Title
81337
    1CHL1    C3    1   1.786   6.424  10.162 -0.5203  0.6789 -0.3738
    1CHL1    H3    2   1.765   6.533  10.153 -1.1342  0.5760 -0.2094
    1CHL1    O3    3   1.798   6.405  10.301 -0.1760  0.2571  0.4773
    1CHL1   H3'    4   1.801   6.309  10.304 -0.1238  0.1992 -0.8716
    1CHL1    C4    5   1.670   6.338  10.102 -0.8670 -0.0684  0.1507
    1CHL1   H4A    6   1.699   6.234  10.130  1.4988  0.6856  0.7321
    1CHL1   H4B    7   1.577   6.356  10.159 -1.4196  1.2690 -1.1042
    1CHL1    C5    8   1.662   6.350   9.951  0.1400 -0.0619  0.1242
    1CHL1    C6    9   1.546   6.386   9.891 -0.0491 -0.3467 -0.5188
    1CHL1    H6   10   1.461   6.404   9.958  0.2020 -1.1853  0.0490
    1CHL1    C7   11   1.523   6.402   9.745  0.2196 -0.4974  0.0972
    1CHL1   H7A   12   1.422   6.370   9.710  0.8524 -0.8887 -1.4761
    1CHL1   H7B   13   1.508   6.509   9.722  0.9300 -0.2894  0.5765
    1CHL1    C8   14   1.634   6.332   9.665 -0.4069  0.0540  0.2852
    1CHL1    H8   15   1.618   6.223   9.670  1.4142 -0.2407  0.3253
    1CHL1   C14   16   1.619   6.375   9.520 -0.0433 -0.3251  0.6227
    1CHL1   H14   17   1.644   6.483   9.519 -0.7095 -0.1602 -0.4921
    1CHL1   C15   18   1.485   6.359   9.457  0.6818 -0.6121  0.3281
    1CHL1  H15A   19   1.445   6.259   9.484  0.8938 -0.6418  0.5326
    1CHL1  H15B   20   1.414   6.438   9.490 -1.6038 -2.6770  0.6871
    1CHL1   C16   21   1.519   6.366   9.312 -0.1386  0.4497  0.2214
    1CHL1  H16A   22   1.478   6.280   9.255  2.0904 -0.4333 -0.1418
    1CHL1  H16B   23   1.475   6.456   9.264 -1.2008  0.1448  0.5897
    1CHL1   C17   24   1.672   6.374   9.298  0.2956 -0.2616  0.5414
    1CHL1   H17   25   1.699   6.482   9.305  3.7688 -0.7511 -2.1967
    1CHL1   C13   26   1.723   6.308   9.429 -0.8869 -0.3949  0.3340
    1CHL1   C18   27   1.706   6.154   9.423  0.2504 -1.0309  0.4696
    1CHL1  H18A   28   1.694   6.116   9.527 -0.3728 -0.0200  0.7821
    1CHL1  H18B   29   1.603   6.124   9.391 -0.4434  1.7165 -0.1427
    1CHL1  H18C   30   1.789   6.112   9.362  1.4705  1.4225  0.3098
    1CHL1   C12   31   1.864   6.356   9.481  0.1058 -1.0183  0.7331
    1CHL1  H12A   32   1.944   6.295   9.435 -1.6924 -3.9708  1.2565
    1CHL1  H12B   33   1.875   6.466   9.471 -0.2536 -0.9111  1.4729
    1CHL1   C11   34   1.890   6.319   9.624 -0.7231  0.0522  0.0358
    1CHL1  H11A   35   1.907   6.209   9.624  0.7514  0.1854 -2.3521
    1CHL1  H11B   36   1.991   6.357   9.652 -1.1839  0.6568  0.9295
    1CHL1    C9   37   1.779   6.367   9.723  0.3413  0.1357  1.5873
    1CHL1    H9   38   1.776   6.478   9.718 -1.1740  0.0918 -3.4253
    1CHL1   C10   39   1.787   6.330   9.872 -0.5055 -0.1663 -0.1013
    1CHL1   C19   40   1.828   6.180   9.876  0.4498  0.1251  0.3049
    1CHL1  H19A   41   1.931   6.160   9.841  0.6447 -0.0181  0.9571
    1CHL1  H19B   42   1.815   6.133   9.976 -0.3733 -1.6578 -0.5957
    1CHL1  H19C   43   1.753   6.129   9.812 -0.2021  2.2229 -0.6812
    1CHL1    C1   44   1.903   6.416   9.941  0.0981  0.1306  0.1354
    1CHL1   H1A   45   1.995   6.403   9.880 -1.3316 -1.5344 -1.8113
    1CHL1   H1B   46   1.868   6.521   9.940  0.8229  0.3919  1.2228
    1CHL1    C2   47   1.916   6.390  10.092  0.6465 -0.0151  0.1405
    1CHL1   H2A   48   1.994   6.454  10.138 -1.9414  1.8831  2.2635
    1CHL1   H2B   49   1.938   6.283  10.112  0.9893  0.2687  1.3844
    1CHL1   C20   50   1.729   6.314   9.168  0.3051  0.4977 -0.9789
    1CHL1   H20   51   1.716   6.204   9.163  0.8855  0.3560  0.1615
    1CHL1   C21   52   1.884   6.341   9.155 -0.1639 -0.3658  0.0758
    1CHL1  H21A   53   1.919   6.438   9.196  0.8182 -0.1735 -1.1504
    1CHL1  H21B   54   1.917   6.342   9.049 -0.3409 -0.1612  0.0219
    1CHL1  H21C   55   1.922   6.261   9.222 -2.6533 -2.9908 -1.4072
    1CHL1   C22   56   1.668   6.385   9.046 -0.1359 -0.2289 -0.1292
    1CHL1  H22A   57   1.559   6.402   9.052  0.1451  2.3152 -0.7273
    1CHL1  H22B   58   1.720   6.484   9.041 -0.2407  0.0506  2.6635
    1CHL1   C23   59   1.677   6.322   8.900 -0.6159  0.2832  0.0382
    1CHL1  H23A   60   1.782   6.327   8.864 -1.0629 -0.0096 -1.3420
    1CHL1  H23B   61   1.651   6.214   8.903 -1.6802  0.5040 -0.6192
    1CHL1   C24   62   1.582   6.385   8.793 -0.1485  0.1055 -0.9569
    1CHL1  H24A   63   1.479   6.404   8.830  0.5962  0.8344  0.8754
    1CHL1  H24B   64   1.619   6.489   8.780 -0.5341  0.7061  2.0876
    1CHL1   C25   65   1.587   6.319   8.654  0.1278  0.4348 -0.4760
    1CHL1   H25   66   1.568   6.210   8.657 -0.0951  0.4959  0.4932
    1CHL1   C26   67   1.468   6.368   8.566 -0.5584 -0.0124 -0.2083
    1CHL1  H26A   68   1.481   6.474   8.535 -0.1852 -0.2440 -0.8831
    1CHL1  H26B   69   1.459   6.303   8.476  0.0950  1.1306 -1.1248
    1CHL1  H26C   70   1.380   6.364   8.633  1.5559 -0.2150  2.7836
    1CHL1   C27   71   1.721   6.334   8.586 -0.2856  0.5684  0.2491
    1CHL1  H27A   72   1.754   6.437   8.611 -2.4283  0.8868  2.0750
    1CHL1  H27B   73   1.789   6.255   8.626 -1.0386  0.0507  0.5310
    1CHL1  H27C   74   1.717   6.310   8.478  1.4027  1.6752 -0.1024
    2CHL1    C3   75   1.770   5.259  10.015  0.3818 -0.0309 -0.6412
    2CHL1    H3   76   1.705   5.348  10.029 -0.5432 -0.7499 -0.2724
    2CHL1    O3   77   1.763   5.192  10.137  0.3902 -0.6671 -1.1683
    2CHL1   H3'   78   1.789   5.100  10.129  1.4924 -0.4353 -0.4016
    2CHL1    C4   79   1.697   5.174   9.908  0.1618 -0.0825  0.4048
    2CHL1   H4A   80   1.736   5.071   9.917  0.4559 -0.0525 -0.4374
    2CHL1   H4B   81   1.590   5.183   9.936  0.6203  0.9620  1.9907
    2CHL1    C5   82   1.716   5.234   9.768  0.6301  0.6155 -0.5989
    2CHL1    C6   83   1.605   5.250   9.688  0.2144 -0.7614 -0.4287
    2CHL1    H6   84   1.500   5.229   9.710 -1.0158  4.4622 -0.1615
    2CHL1    C7   85   1.621   5.289   9.544 -0.6074 -0.2978 -0.5568
    2CHL1   H7A   86   1.550   5.230   9.481  0.1282 -3.0376  1.0105
    2CHL1   H7B   87   1.587   5.394   9.538 -0.7255 -0.3215 -0.3004
    2CHL1    C8   88   1.773   5.276   9.489 -0.6879  0.4764 -0.6724
    2CHL1    H8   89   1.797   5.173   9.454  1.6481  0.6151  0.3368
    2CHL1   C14   90   1.784   5.352   9.356 -0.5338 -0.2830  0.3339
    2CHL1   H14   91   1.775   5.461   9.372 -0.6523  0.2233 -2.6226
    2CHL1   C15   92   1.683   5.317   9.250 -0.0266  0.2572 -1.4358
    2CHL1  H15A   93   1.692   5.206   9.248  3.0668  0.2926  0.8907
    2CHL1  H15B   94   1.578   5.348   9.262  0.5361  1.7867 -0.1690
    2CHL1   C16   95   1.747   5.391   9.133  0.1779  0.4525 -0.2010
    2CHL1  H16A   96   1.736   5.337   9.036  3.0931 -2.0036  0.6846
    2CHL1  H16B   97   1.690   5.486   9.132 -0.4331  0.0948  0.1108
    2CHL1   C17   98   1.903   5.409   9.163 -0.1799 -0.3232  0.3044
    2CHL1   H17   99   1.916   5.518   9.178  0.5978 -0.5379  1.2986
    2CHL1   C13  100   1.930   5.343   9.295  0.7805 -0.0741  0.3476
    2CHL1   C18  101   1.965   5.188   9.273  0.8867 -0.0997 -0.0447
    2CHL1  H18A  102   1.971   5.132   9.369 -0.0458  0.0440  0.1023
    2CHL1  H18B  103   1.893   5.142   9.201 -1.0647  2.9435 -0.2093
    2CHL1  H18C  104   2.064   5.192   9.222  0.4065  3.6294 -0.9652
    2CHL1   C12  105   2.020   5.417   9.389 -0.1691  1.1441  0.5382
    2CHL1  H12A  106   2.121   5.442   9.349  0.3100  0.4538  1.2839
    2CHL1  H12B  107   1.981   5.520   9.402  2.7803  2.2875  1.2457
    2CHL1   C11  108   2.019   5.351   9.531 -0.3761  0.0029 -0.4842
    2CHL1  H11A  109   2.064   5.249   9.525  0.0269  0.0290  1.4647
    2CHL1  H11B  110   2.078   5.417   9.598 -0.8161  0.0093 -0.1025
    2CHL1    C9  111   1.874   5.336   9.594 -0.1032  0.6056  0.5724
    2CHL1    H9  112   1.844   5.441   9.614 -0.3545  0.7163 -0.3417
    2CHL1   C10  113   1.865   5.257   9.730  0.3602 -0.7778  0.5797
    2CHL1   C19  114   1.945   5.125   9.708  0.9049 -0.0050  0.6112
    2CHL1  H19A  115   1.913   5.085   9.610  2.9816 -1.0422  0.2920
    2CHL1  H19B  116   2.055   5.143   9.713  1.2924 -2.4073  2.7832
    2CHL1  H19C  117   1.915   5.054   9.788 -2.0459  0.3697 -0.0657
    2CHL1    C1  118   1.926   5.345   9.836  0.1519  0.0484 -0.7872
    2CHL1   H1A  119   2.033   5.369   9.821 -0.0667  1.2152 -0.5636
    2CHL1   H1B  120   1.874   5.443   9.830 -0.5929 -0.1791  1.2730
    2CHL1    C2  121   1.913   5.285   9.982  0.1665  0.0727  0.6205
    2CHL1   H2A  122   1.954   5.353  10.060  0.7252  0.6428 -0.1472
    2CHL1   H2B  123   1.980   5.197   9.994  2.9193  2.1696  1.7056
    2CHL1   C20  124   1.998   5.380   9.040  0.6779  0.6370  0.4335
    2CHL1   H20  125   2.000   5.273   9.009  0.9264  1.7223 -4.0237
    2CHL1   C21  126   2.144   5.419   9.072 -0.0919 -0.2874 -0.4173
    2CHL1  H21A  127   2.182   5.358   9.157 -0.3162  0.6260  0.3562
    2CHL1  H21B  128   2.154   5.525   9.104  3.4015 -0.9949  1.3179
    2CHL1  H21C  129   2.211   5.406   8.985  1.1505 -0.4746  0.5491
    2CHL1   C22  130   1.954   5.456   8.910  0.6343  0.5081  0.1777
    2CHL1  H22A  131   2.014   5.419   8.824 -0.4005 -0.0706 -0.3081
    2CHL1  H22B  132   1.849   5.435   8.880  0.9275 -1.2112  0.2497
    2CHL1   C23  133   1.996   5.605   8.905  0.4238 -0.1045  0.0878
    2CHL1  H23A  134   1.991   5.648   9.007 -1.3224 -1.7198  0.7520
    2CHL1  H23B  135   2.097   5.609   8.859  0.1858  0.2492 -0.4114
    2CHL1   C24  136   1.888   5.677   8.819 -0.1246 -0.6866  0.0814
    2CHL1  H24A  137   1.894   5.648   8.712  1.3375 -0.3778  0.0625
    2CHL1  H24B  138   1.786   5.670   8.863 -1.1512  1.3344 -1.8347
    2CHL1   C25  139   1.918   5.828   8.829 -0.0695 -0.4753  0.1305
    2CHL1   H25  140   1.935   5.852   8.936  0.9866  0.7651 -0.2888
    2CHL1   C26  141   2.041   5.857   8.745 -0.0589 -0.2905  0.2366
    2CHL1  H26A  142   2.038   5.966   8.726 -0.2483  0.0554  2.0620
    2CHL1  H26B  143   2.128   5.825   8.806 -0.1104  1.3408  1.2110
    2CHL1  H26C  144   2.032   5.794   8.654 -0.6748  1.3321 -0.8695
    2CHL1   C27  145   1.799   5.915   8.778  0.2673  0.3145  0.3656
    2CHL1  H27A  146   1.702   5.883   8.823 -1.3883  0.8673 -2.5722
    2CHL1  H27B  147   1.807   6.024   8.794 -1.2900  0.4069  0.7023
    2CHL1  H27C  148   1.798   5.904   8.667 -0.1277  1.3307  0.2582
    3CHL1    C3  149   2.828   4.540  10.295  0.4875 -0.2012 -0.4042
    3CHL1    H3  150   2.919   4.586  10.251  0.1401  0.4898 -0.4248
    3CHL1    O3  151   2.838   4.544  10.441  0.4718 -0.1027  0.0659
    3CHL1   H3'  152   2.755   4.505  10.467 -0.6858  0.9776 -1.7550
    3CHL1    C4  153   2.696   4.611  10.252  0.5277  0.2003  0.2130
    3CHL1   H4A  154   2.610   4.581  10.317  1.6905  0.3015  1.8684
    3CHL1   H4B  155   2.724   4.710  10.294  2.0954 -0.0212 -0.2616
    3CHL1    C5  156   2.665   4.612  10.106  0.0552 -0.0899  0.3243
    3CHL1    C6  157   2.649   4.723  10.041 -0.2895  0.3317  0.1611
    3CHL1    H6  158   2.653   4.814  10.103  0.9176 -0.0209  0.6320
    3CHL1    C7  159   2.613   4.729   9.895 -0.0999 -0.0172 -0.0155
    3CHL1   H7A  160   2.535   4.806   9.878 -1.2379 -0.1300  3.7645
    3CHL1   H7B  161   2.705   4.761   9.841 -0.0001  2.6016  1.5441
    3CHL1    C8  162   2.574   4.592   9.837  0.3458 -0.0696 -0.5316
    3CHL1    H8  163   2.471   4.575   9.875  0.2519  2.9951  0.8382
    3CHL1   C14  164   2.573   4.597   9.690  0.4557 -0.4156  0.4410
    3CHL1   H14  165   2.677   4.615   9.656  0.9587  0.4822  2.3227
    3CHL1   C15  166   2.484   4.707   9.629 -0.3085  0.0093 -0.6106
    3CHL1  H15A  167   2.388   4.716   9.683 -0.1938  0.1425 -0.4284
    3CHL1  H15B  168   2.544   4.800   9.635 -1.3207  0.7246 -1.2344
    3CHL1   C16  169   2.486   4.660   9.481 -0.0110 -0.6426  0.4028
    3CHL1  H16A  170   2.384   4.663   9.436 -0.9063  0.4148  2.3998
    3CHL1  H16B  171   2.553   4.724   9.421 -2.6178  0.4191 -1.6022
    3CHL1   C17  172   2.537   4.520   9.479  0.3037 -0.4217  0.3221
    3CHL1   H17  173   2.648   4.523   9.467  0.3366 -2.6347 -0.3416
    3CHL1   C13  174   2.530   4.470   9.624 -0.2740 -0.2456  0.5275
    3CHL1   C18  175   2.374   4.432   9.643  0.4918 -0.2304 -0.0935
    3CHL1  H18A  176   2.346   4.344   9.581 -0.2995 -1.1050  1.4270
    3CHL1  H18B  177   2.352   4.404   9.749  1.6056  0.5352  0.3561
    3CHL1  H18C  178   2.308   4.516   9.616  1.1345  0.6885  1.0843
    3CHL1   C12  179   2.625   4.352   9.673 -0.2109 -0.1374  0.1819
    3CHL1  H12A  180   2.588   4.254   9.636 -2.5144 -0.6482  3.4574
    3CHL1  H12B  181   2.722   4.378   9.626  0.5757  0.0581  1.8286
    3CHL1   C11  182   2.620   4.341   9.825 -0.0735 -0.3809  0.5990
    3CHL1  H11A  183   2.514   4.326   9.852 -0.4519 -0.1369 -0.6939
    3CHL1  H11B  184   2.689   4.259   9.853  1.5320  0.8390  0.4177
    3CHL1    C9  185   2.658   4.474   9.892 -0.2167  0.9974 -0.3254
    3CHL1    H9  186   2.758   4.492   9.848 -0.2991 -0.3534 -1.1366
    3CHL1   C10  187   2.664   4.474  10.045  0.0443  0.7824 -1.0932
    3CHL1   C19  188   2.543   4.386  10.098 -0.0628  0.5259 -0.3212
    3CHL1  H19A  189   2.554   4.279  10.069  1.0456 -0.2367  2.6044
    3CHL1  H19B  190   2.543   4.387  10.209  1.9109 -2.3661 -0.1695
    3CHL1  H19C  191   2.448   4.420  10.051  0.1715 -0.4668 -1.5934
    3CHL1    C1  192   2.790   4.394  10.093  0.9817  0.2870  0.9005
    3CHL1   H1A  193   2.790   4.297  10.039  0.6840  1.6667 -1.7190
    3CHL1   H1B  194   2.874   4.448  10.044  0.6815  0.9104  1.0704
    3CHL1    C2  195   2.820   4.398  10.243 -0.2480 -0.1638 -0.9620
    3CHL1   H2A  196   2.920   4.352  10.256 -1.4783 -2.7324  0.2992
    3CHL1   H2B  197   2.755   4.330  10.303  1.3493  1.2815  2.6732
    3CHL1   C20  198   2.489   4.436   9.361  0.3723 -0.7257 -0.6228
    3CHL1   H20  199   2.380   4.416   9.369  0.5048 -0.9861  0.7761
    3CHL1   C21  200   2.553   4.298   9.360 -0.1393  0.5840 -0.0729
    3CHL1  H21A  201   2.663   4.299   9.345  0.1414 -0.3254  1.7001
    3CHL1  H21B  202   2.515   4.223   9.288 -1.2554  0.1064  0.9920
    3CHL1  H21C  203   2.537   4.242   9.455  0.5031 -1.0902 -0.9159
    3CHL1   C22  204   2.498   4.516   9.225 -0.2554  0.1669 -0.1640
    3CHL1  H22A  205   2.436   4.609   9.233 -2.2275 -1.1248  0.3075
    3CHL1  H22B  206   2.607   4.531   9.208 -0.0641 -1.3851 -0.4421
    3CHL1   C23  207   2.420   4.442   9.115  0.5164  0.4788 -0.0950
    3CHL1  H23A  208   2.475   4.360   9.066 -0.0200  0.1503 -0.1503
    3CHL1  H23B  209   2.328   4.392   9.152  0.1992  0.1661 -1.2654
    3CHL1   C24  210   2.380   4.533   9.000 -1.0523 -0.3658  0.7164
    3CHL1  H24A  211   2.314   4.619   9.027 -0.8319  0.1007 -0.1875
    3CHL1  H24B  212   2.477   4.571   8.959 -0.9058 -1.8511 -0.3930
    3CHL1   C25  213   2.309   4.464   8.878 -0.2262  0.0931  0.2242
    3CHL1   H25  214   2.375   4.384   8.837 -0.0680 -0.3830  1.3500
    3CHL1   C26  215   2.177   4.399   8.927 -0.0145 -0.9589 -0.9316
    3CHL1  H26A  216   2.127   4.487   8.973  2.0923  0.2949 -0.9166
    3CHL1  H26B  217   2.122   4.339   8.850 -0.6033 -1.6808  0.0309
    3CHL1  H26C  218   2.192   4.332   9.014 -0.3748 -0.0272 -0.1412
    3CHL1   C27  219   2.281   4.566   8.768  0.3427  0.4283 -0.5472
    3CHL1  H27A  220   2.378   4.605   8.729 -0.4650  2.6137 -0.5000
    3CHL1  H27B  221   2.216   4.521   8.691 -0.8633 -0.6751  1.0488
    3CHL1  H27C  222   2.222   4.652   8.805 -0.2026 -0.4090  0.5985
    4CHL1    C3  223   3.771   6.058  10.511 -0.3906 -0.1209  0.6793
    4CHL1    H3  224   3.841   6.143  10.496  0.3914 -0.4546  2.2602
    4CHL1    O3  225   3.765   6.035  10.651 -0.1780  0.5975  0.3103
    4CHL1   H3'  226   3.712   6.107  10.685 -2.3425  0.3490 -2.1917
    4CHL1    C4  227   3.625   6.086  10.459 -0.3772 -0.9952 -0.8599
    4CHL1   H4A  228   3.556   6.004  10.489 -1.1818 -0.5797 -1.5548
    4CHL1   H4B  229   3.595   6.185  10.499  2.6538 -0.2800 -0.0465
    4CHL1    C5  230   3.629   6.109  10.305 -0.0975  0.6079 -0.3445
    4CHL1    C6  231   3.583   6.220  10.244 -1.0018  0.1848 -0.4635
    4CHL1    H6  232   3.555   6.306  10.307  1.2307  0.4337  0.3017
    4CHL1    C7  233   3.584   6.244  10.098  0.7368 -0.1228 -0.5452
    4CHL1   H7A  234   3.481   6.278  10.076 -0.2872 -1.7083  1.4985
    4CHL1   H7B  235   3.661   6.321  10.077  0.6326  0.1446  0.0512
    4CHL1    C8  236   3.607   6.120  10.016 -0.2878  0.1627  0.4224
    4CHL1    H8  237   3.514   6.061  10.027 -0.6533  0.6338 -0.1177
    4CHL1   C14  238   3.639   6.153   9.870  0.0095  0.6612 -0.5094
    4CHL1   H14  239   3.735   6.208   9.871  0.9317 -0.8881 -0.3575
    4CHL1   C15  240   3.535   6.248   9.803  0.1831  0.7857 -0.4375
    4CHL1  H15A  241   3.435   6.203   9.822  1.3699 -1.5264  0.8005
    4CHL1  H15B  242   3.529   6.353   9.836 -2.1209  1.0890 -1.6290
    4CHL1   C16  243   3.566   6.234   9.655 -0.6500 -0.0947 -0.1156
    4CHL1  H16A  244   3.478   6.198   9.598 -0.4779  0.8776 -1.0473
    4CHL1  H16B  245   3.600   6.328   9.606  1.3091 -0.3795  0.5924
    4CHL1   C17  246   3.669   6.114   9.650 -0.3615  0.6606  0.2638
    4CHL1   H17  247   3.768   6.165   9.656  0.7037 -1.4213  1.9735
    4CHL1   C13  248   3.657   6.034   9.781  0.3884  0.0414  0.2240
    4CHL1   C18  249   3.527   5.944   9.777 -0.6029  0.4280 -0.3370
    4CHL1  H18A  250   3.491   5.912   9.877 -1.0351  1.6403 -0.0836
    4CHL1  H18B  251   3.447   6.004   9.730  0.8414  1.7553 -1.2072
    4CHL1  H18C  252   3.538   5.852   9.717  2.3821  1.3272 -1.3719
    4CHL1   C12  253   3.779   5.949   9.826  0.0811  0.0710 -0.4501
    4CHL1  H12A  254   3.797   5.853   9.774 -0.2839  0.5716 -1.5252
    4CHL1  H12B  255   3.865   6.019   9.827 -1.5535  2.1916  0.0644
    4CHL1   C11  256   3.767   5.908   9.978 -0.1528 -0.0150 -0.6184
    4CHL1  H11A  257   3.691   5.828   9.987  1.1032 -1.0536  1.6155
    4CHL1  H11B  258   3.867   5.867  10.006  0.6069 -0.3202 -3.4510
    4CHL1    C9  259   3.719   6.029  10.072 -0.4605  0.1364  0.2926
    4CHL1    H9  260   3.803   6.102  10.079  1.6650 -1.5344 -3.8833
    4CHL1   C10  261   3.698   5.996  10.225  0.1024  0.7481 -0.1513
    4CHL1   C19  262   3.599   5.874  10.224 -0.1360 -0.0812 -0.2374
    4CHL1  H19A  263   3.561   5.862  10.328  0.3823  1.8418  0.2103
    4CHL1  H19B  264   3.507   5.899  10.168 -2.0125  0.8099  2.9944
    4CHL1  H19C  265   3.647   5.779  10.192  0.0735 -0.4971  1.1977
    4CHL1    C1  266   3.833   5.956  10.287 -0.8038  0.3445  0.3087
    4CHL1   H1A  267   3.866   5.863  10.236  0.7089  1.3687 -0.6622
    4CHL1   H1B  268   3.921   6.020  10.265  0.9120 -1.3759  1.8791
    4CHL1    C2  269   3.817   5.936  10.437  0.2137  0.7546 -0.2111
    4CHL1   H2A  270   3.913   5.903  10.482 -1.2351 -1.1445  1.6896
    4CHL1   H2B  271   3.752   5.846  10.447  0.6328  0.5505  0.9168
    4CHL1   C20  272   3.674   6.042   9.508 -0.1509  0.4982 -0.0469
    4CHL1   H20  273   3.582   5.981   9.494 -0.6470  1.3084 -0.4119
    4CHL1   C21  274   3.795   5.944   9.504 -0.4145 -0.3136  0.2922
    4CHL1  H21A  275   3.801   5.898   9.403 -0.7254 -0.1453  0.1948
    4CHL1  H21B  276   3.780   5.860   9.576 -1.3190  0.3022  0.8371
    4CHL1  H21C  277   3.889   5.994   9.536 -0.5494 -0.8677  1.6540
    4CHL1   C22  278   3.678   6.135   9.382  0.1143  0.1217  0.1091
    4CHL1  H22A  279   3.662   6.242   9.408  0.4459  0.6612 -1.7649
    4CHL1  H22B  280   3.784   6.126   9.350 -0.2034  0.9940 -1.2876
    4CHL1   C23  281   3.586   6.096   9.268 -0.5197  0.2356  0.3418
    4CHL1  H23A  282   3.619   5.992   9.250 -1.8250 -0.4532  1.7985
    4CHL1  H23B  283   3.485   6.093   9.314  0.1004 -2.0493  1.6798
    4CHL1   C24  284   3.575   6.191   9.150 -0.4046  0.2044 -0.0914
    4CHL1  H24A  285   3.572   6.293   9.194 -1.1075 -0.1281  0.6677
    4CHL1  H24B  286   3.668   6.182   9.090 -1.1110  0.9310 -1.3326
    4CHL1   C25  287   3.459   6.159   9.065 -0.0110  0.2944 -0.2555
    4CHL1   H25  288   3.361   6.179   9.112  0.0210 -2.7432  1.3152
    4CHL1   C26  289   3.449   6.259   8.947  0.1496  0.9158  0.5214
    4CHL1  H26A  290   3.428   6.361   8.985  1.6297  1.5371 -0.2505
    4CHL1  H26B  291   3.548   6.262   8.896  1.1364  0.0546  2.3097
    4CHL1  H26C  292   3.372   6.228   8.873 -1.3672  0.7149  2.1129
    4CHL1   C27  293   3.452   6.010   9.021  0.0422 -0.6509  0.1000
    4CHL1  H27A  294   3.360   6.000   8.961 -1.1015 -0.4829  1.7644
    4CHL1  H27B  295   3.542   5.981   8.962  0.9361 -2.0785  2.0388
    4CHL1  H27C  296   3.447   5.941   9.108 -4.0877  1.7147  2.0549
    5CHL1    C3  297   3.527   3.894  10.250  0.0806 -0.9488  0.6523
    5CHL1    H3  298   3.417   3.885  10.268 -0.3050  2.9446  1.0465
    5CHL1    O3  299   3.601   3.879  10.363 -0.1841  0.2981 -0.4624
    5CHL1   H3'  300   3.684   3.927  10.350 -1.1175  2.2993  0.4926
    5CHL1    C4  301   3.575   3.788  10.148  0.1518 -0.2216 -0.0024
    5CHL1   H4A  302   3.686   3.792  10.145  0.1596 -0.3361  0.1946
    5CHL1   H4B  303   3.559   3.692  10.201  0.4189 -0.1012  0.2972
    5CHL1    C5  304   3.507   3.806  10.009 -0.3048  0.5692 -0.6912
    5CHL1    C6  305   3.424   3.714   9.962  0.0919  0.5746  0.0996
    5CHL1    H6  306   3.419   3.616  10.011 -0.6056  0.2320 -0.6364
    5CHL1    C7  307   3.350   3.723   9.831  0.1058  0.1741  0.1077
    5CHL1   H7A  308   3.382   3.634   9.772  1.8325  0.5883  0.3434
    5CHL1   H7B  309   3.242   3.731   9.852  0.2049  3.0603 -0.0805
    5CHL1    C8  310   3.397   3.852   9.748 -0.0296 -0.0323  0.1301
    5CHL1    H8  311   3.498   3.822   9.713 -0.6862 -2.2437 -0.0470
    5CHL1   C14  312   3.304   3.877   9.638  0.6487  0.5841  0.8397
    5CHL1   H14  313   3.206   3.907   9.681  0.2131  2.2755 -1.1159
    5CHL1   C15  314   3.292   3.765   9.534  0.3693 -0.2111  0.0318
    5CHL1  H15A  315   3.384   3.707   9.515 -0.1176 -1.1722  0.5087
    5CHL1  H15B  316   3.217   3.689   9.567 -2.4824  1.0943 -2.9077
    5CHL1   C16  317   3.240   3.841   9.411 -0.0707 -0.2606  0.2047
    5CHL1  H16A  318   3.303   3.812   9.324 -0.9767  2.4737 -1.5033
    5CHL1  H16B  319   3.137   3.815   9.378 -0.0851 -0.5551  0.4746
    5CHL1   C17  320   3.254   3.993   9.429  0.3968  0.5928  0.7142
    5CHL1   H17  321   3.156   4.032   9.464  0.5431  1.2911  0.3520
    5CHL1   C13  322   3.345   4.007   9.557  1.3187  0.2338  0.1822
    5CHL1   C18  323   3.490   3.988   9.501 -0.3416 -0.0714 -0.2683
    5CHL1  H18A  324   3.558   3.971   9.587 -0.8223  3.0004  0.8381
    5CHL1  H18B  325   3.498   3.906   9.426 -1.5614 -2.2939  1.8757
    5CHL1  H18C  326   3.539   4.071   9.445  2.2793 -2.5071 -1.8372
    5CHL1   C12  327   3.319   4.118   9.657 -0.7142 -0.2070 -0.1866
    5CHL1  H12A  328   3.338   4.211   9.599  1.7623 -1.9622 -2.4994
    5CHL1  H12B  329   3.215   4.115   9.695  0.4686  0.1031  3.3823
    5CHL1   C11  330   3.427   4.120   9.768  0.1381  0.3710  0.0255
    5CHL1  H11A  331   3.529   4.129   9.725 -0.5586  1.3429 -1.5344
    5CHL1  H11B  332   3.412   4.200   9.844 -0.4800 -0.8047  1.1808
    5CHL1    C9  333   3.410   3.978   9.843 -0.5296 -0.5006 -0.1381
    5CHL1    H9  334   3.308   3.984   9.884 -0.7303 -2.1309 -0.3500
    5CHL1   C10  335   3.512   3.951   9.955  0.1904 -0.3143 -0.2944
    5CHL1   C19  336   3.658   3.954   9.899  0.0720 -0.5543 -0.0277
    5CHL1  H19A  337   3.727   3.952   9.986 -0.9989 -0.1369  0.8657
    5CHL1  H19B  338   3.675   3.865   9.835 -0.7578  0.5304 -1.8388
    5CHL1  H19C  339   3.679   4.048   9.843  1.9543 -0.6683  0.4266
    5CHL1    C1  340   3.493   4.066  10.062 -0.0011 -0.3776 -0.1258
    5CHL1   H1A  341   3.539   4.162  10.031  3.1380 -1.4460  0.8312
    5CHL1   H1B  342   3.387   4.078  10.094 -0.1442 -2.7020  0.4471
    5CHL1    C2  343   3.567   4.035  10.199 -0.2521  0.2769 -0.0771
    5CHL1   H2A  344   3.544   4.118  10.270 -0.0335  0.9470 -0.7780
    5CHL1   H2B  345   3.674   4.057  10.183 -0.3621  0.8232 -0.1044
    5CHL1   C20  346   3.285   4.068   9.302  0.2517 -0.3191 -0.3229
    5CHL1   H20  347   3.374   4.023   9.252 -0.3965 -1.2125 -0.6936
    5CHL1   C21  348   3.305   4.218   9.341  0.0765 -0.0141  0.2897
    5CHL1  H21A  349   3.297   4.289   9.256 -1.8296 -0.3512  0.1434
    5CHL1  H21B  350   3.399   4.227   9.399  0.4219 -0.5173 -0.1910
    5CHL1  H21C  351   3.233   4.251   9.420  1.7252  0.9238  1.4808
    5CHL1   C22  352   3.158   4.063   9.211  0.6481 -0.5211  0.7183
    5CHL1  H22A  353   3.138   3.954   9.208  1.1894 -0.6124 -0.8137
    5CHL1  H22B  354   3.076   4.116   9.265 -0.1978  0.1767 -1.1196
    5CHL1   C23  355   3.177   4.133   9.063 -0.0153  0.2034 -0.3649
    5CHL1  H23A  356   3.079   4.121   9.012  0.2807  0.4289 -0.9875
    5CHL1  H23B  357   3.190   4.240   9.089 -1.6074  0.0440  1.2984
    5CHL1   C24  358   3.286   4.077   8.979 -0.2817  0.5763  0.6778
    5CHL1  H24A  359   3.383   4.065   9.033 -0.3452  0.2220  0.7175
    5CHL1  H24B  360   3.246   3.978   8.948 -1.3132  0.3188  2.6567
    5CHL1   C25  361   3.318   4.154   8.854 -0.2529 -0.8542  0.5349
    5CHL1   H25  362   3.356   4.070   8.792  0.1194 -0.5067  0.2892
    5CHL1   C26  363   3.194   4.212   8.767  0.2809 -0.1196 -0.3415
    5CHL1  H26A  364   3.126   4.129   8.740 -0.2923  0.8696 -2.0308
    5CHL1  H26B  365   3.142   4.284   8.834  1.5407  1.2922 -0.8259
    5CHL1  H26C  366   3.229   4.243   8.667 -0.7109 -1.8485 -1.2762
    5CHL1   C27  367   3.426   4.256   8.882 -0.8956  0.0998  0.4336
    5CHL1  H27A  368   3.441   4.305   8.784 -1.1265  1.2830  0.9753
    5CHL1  H27B  369   3.408   4.337   8.957 -1.7981  1.3128 -1.0487
    5CHL1  H27C  370   3.522   4.203   8.903 -1.6309 -1.5910 -0.2865
    6CHL1    C3  371   1.781   1.114  10.257  0.0101  0.4249  0.4637
    6CHL1    H3  372   1.863   1.189  10.252 -1.2616  1.9609  1.4346
    6CHL1    O3  373   1.765   1.082  10.395  0.2245  0.5271 -0.4111
    6CHL1   H3'  374   1.692   1.019  10.399  2.3025 -1.9793  1.4519
    6CHL1    C4  375   1.645   1.173  10.202 -0.3431  0.1997 -0.0322
    6CHL1   H4A  376   1.567   1.104  10.240  0.5425 -2.0144 -1.9451
    6CHL1   H4B  377   1.634   1.262  10.267  1.8828 -0.9443  2.0925
    6CHL1    C5  378   1.640   1.186  10.049 -0.5372 -0.3066  1.0402
    6CHL1    C6  379   1.625   1.309   9.994  0.9003 -0.0362  0.8557
    6CHL1    H6  380   1.593   1.388  10.062 -1.8180  0.3759 -0.7520
    6CHL1    C7  381   1.631   1.333   9.845  0.6143 -0.3705 -0.4471
    6CHL1   H7A  382   1.574   1.428   9.829 -0.2353 -0.2454  2.6144
    6CHL1   H7B  383   1.737   1.357   9.821  0.7476 -0.2994  0.1717
    6CHL1    C8  384   1.594   1.211   9.761 -0.7760 -1.0904 -0.6562
    6CHL1    H8  385   1.486   1.186   9.771 -1.1353 -0.2373 -2.1412
    6CHL1   C14  386   1.623   1.244   9.612 -0.6359 -0.3148 -0.3816
    6CHL1   H14  387   1.730   1.271   9.606  0.4535 -4.0309 -0.2808
    6CHL1   C15  388   1.549   1.355   9.543  0.2760  0.3573 -0.2748
    6CHL1  H15A  389   1.442   1.362   9.572  0.6309  2.4275  0.7257
    6CHL1  H15B  390   1.580   1.458   9.570 -2.2071  1.6974 -2.0762
    6CHL1   C16  391   1.563   1.329   9.396 -0.1150 -0.2577 -0.4360
    6CHL1  H16A  392   1.461   1.317   9.354 -0.5549  4.3143 -1.1705
    6CHL1  H16B  393   1.615   1.408   9.339 -1.6634  0.9564 -0.2311
    6CHL1   C17  394   1.624   1.183   9.387 -0.4544 -0.6757 -0.0064
    6CHL1   H17  395   1.733   1.195   9.368 -0.3492  0.1215  1.0771
    6CHL1   C13  396   1.611   1.117   9.525  0.9003 -0.7613  0.0452
    6CHL1   C18  397   1.460   1.069   9.548 -0.1539  0.5363  0.6304
    6CHL1  H18A  398   1.444   1.038   9.653  1.1981  0.2487  0.7710
    6CHL1  H18B  399   1.388   1.150   9.522  0.9600  1.7458  1.2192
    6CHL1  H18C  400   1.437   0.982   9.482  1.0892  0.4876  0.2386
    6CHL1   C12  401   1.710   1.009   9.567  0.0012  0.3642  0.2337
    6CHL1  H12A  402   1.697   0.922   9.500 -2.8628  0.5859  0.3786
    6CHL1  H12B  403   1.813   1.049   9.551  0.5727 -0.7603  0.9288
    6CHL1   C11  404   1.694   0.975   9.714  0.0807  0.2526  0.0424
    6CHL1  H11A  405   1.611   0.902   9.725  0.0063  0.3242 -0.0530
    6CHL1  H11B  406   1.786   0.926   9.753  0.8339  1.0930 -0.6174
    6CHL1    C9  407   1.689   1.095   9.811 -0.2506 -0.2455  0.4358
    6CHL1    H9  408   1.784   1.150   9.799 -0.7996  0.8902  1.1535
    6CHL1   C10  409   1.677   1.059   9.961  0.3653 -0.1544  0.2620
    6CHL1   C19  410   1.555   0.964   9.988  0.4307 -0.7507 -0.1656
    6CHL1  H19A  411   1.538   0.963  10.098  2.3449  0.6164  0.2114
    6CHL1  H19B  412   1.466   0.998   9.932 -0.2500  1.2382  1.9806
    6CHL1  H19C  413   1.579   0.859   9.960  0.8913 -0.5522 -0.5485
    6CHL1    C1  414   1.807   1.008  10.022 -0.0562  0.3605  0.0199
    6CHL1   H1A  415   1.839   0.913   9.975  0.4680 -0.6375  2.2655
    6CHL1   H1B  416   1.889   1.082  10.013  0.7748 -0.2697  1.8057
    6CHL1    C2  417   1.807   0.984  10.177 -1.0843  0.2466 -0.2728
    6CHL1   H2A  418   1.902   0.934  10.207 -2.4941 -1.7778  1.0896
    6CHL1   H2B  419   1.738   0.900  10.200  0.7163 -1.4477 -0.8002
    6CHL1   C20  420   1.560   1.111   9.263 -0.0839 -0.1617  0.2759
    6CHL1   H20  421   1.451   1.096   9.279  0.1046 -1.2197  0.6784
    6CHL1   C21  422   1.622   0.973   9.239  0.3244  0.1368 -0.2012
    6CHL1  H21A  423   1.594   0.899   9.317 -1.2203  0.8710 -0.0148
    6CHL1  H21B  424   1.732   0.973   9.221  0.3329  2.0525 -0.3535
    6CHL1  H21C  425   1.572   0.929   9.150 -0.8525 -1.1930  1.0675
    6CHL1   C22  426   1.574   1.204   9.134  0.3004  0.5234  0.3868
    6CHL1  H22A  427   1.519   1.299   9.149  0.5573  0.2323  4.4074
    6CHL1  H22B  428   1.683   1.224   9.124  0.9519 -1.3313  2.7166
    6CHL1   C23  429   1.528   1.138   8.995  0.2956  0.2707 -0.0147
    6CHL1  H23A  430   1.604   1.066   8.959  1.8424  1.4118  0.7885
    6CHL1  H23B  431   1.436   1.082   9.022 -0.6795  1.9102  0.2336
    6CHL1   C24  432   1.494   1.250   8.895  0.0242  0.0681  0.5607
    6CHL1  H24A  433   1.395   1.291   8.921 -0.0467  0.1008  0.2442
    6CHL1  H24B  434   1.554   1.343   8.896 -0.8207  0.6354  0.0059
    6CHL1   C25  435   1.496   1.205   8.752 -0.8512 -0.2599  1.0391
    6CHL1   H25  436   1.440   1.110   8.742  0.2886 -1.0273  1.6750
    6CHL1   C26  437   1.423   1.304   8.658 -0.3961 -0.2511  0.5467
    6CHL1  H26A  438   1.378   1.257   8.568  2.7960 -0.6047 -1.0024
    6CHL1  H26B  439   1.340   1.345   8.720  1.7740  1.5253  2.4814
    6CHL1  H26C  440   1.487   1.392   8.633 -0.6968 -0.8926 -2.9000
    6CHL1   C27  441   1.641   1.191   8.701 -0.4240  0.1151 -0.3281
    6CHL1  H27A  442   1.696   1.282   8.734 -0.4127  0.4240 -1.1734
    6CHL1  H27B  443   1.688   1.101   8.745 -0.8299  0.5967  1.1503
    6CHL1  H27C  444   1.656   1.186   8.591  1.7425 -0.4429 -0.0481
    7CHL1    C3  445   3.312   5.418  10.457 -0.1657 -0.0668 -0.0002
    7CHL1    H3  446   3.209   5.379  10.444 -0.8406  1.9633 -1.2890
    7CHL1    O3  447   3.354   5.427  10.597  0.4876  0.5547  0.2414
    7CHL1   H3'  448   3.448   5.442  10.587  1.1430 -2.6398  0.8617
    7CHL1    C4  449   3.413   5.335  10.382  0.3944  0.2585  0.1929
    7CHL1   H4A  450   3.516   5.377  10.385 -0.3924  2.2703  1.0812
    7CHL1   H4B  451   3.409   5.234  10.427 -1.6691 -0.7380 -2.0501
    7CHL1    C5  452   3.381   5.326  10.234  0.9751 -0.3145  0.1146
    7CHL1    C6  453   3.355   5.209  10.179 -0.3463 -0.1504 -0.1316
    7CHL1    H6  454   3.363   5.120  10.244  0.6099  0.4127  0.5525
    7CHL1    C7  455   3.332   5.194  10.037 -0.1600  0.0894 -0.6628
    7CHL1   H7A  456   3.404   5.118   9.999  1.2480  2.1624 -2.3587
    7CHL1   H7B  457   3.230   5.158  10.011  0.0573 -2.4047  1.4670
    7CHL1    C8  458   3.358   5.325   9.954 -0.0681  0.1814  0.3946
    7CHL1    H8  459   3.468   5.325   9.936  0.3565 -0.5929  2.6323
    7CHL1   C14  460   3.292   5.310   9.813  0.3556  0.3986 -0.4515
    7CHL1   H14  461   3.185   5.298   9.837  0.8742  1.5451  2.9443
    7CHL1   C15  462   3.325   5.185   9.732 -0.4232  0.1946 -0.6363
    7CHL1  H15A  463   3.434   5.165   9.740 -0.0769  2.0683 -0.1066
    7CHL1  H15B  464   3.272   5.090   9.754  1.0229 -0.9736 -1.9785
    7CHL1   C16  465   3.289   5.222   9.584  0.0658  0.2686 -0.5643
    7CHL1  H16A  466   3.382   5.221   9.523  0.5391 -1.0739  0.1350
    7CHL1  H16B  467   3.218   5.146   9.545  0.8896 -0.7892 -0.0852
    7CHL1   C17  468   3.228   5.365   9.594  0.0263 -0.6626  0.9022
    7CHL1   H17  469   3.118   5.354   9.600 -0.3587  0.6380 -2.1518
    7CHL1   C13  470   3.297   5.430   9.716  0.4644 -0.1085  1.2875
    7CHL1   C18  471   3.446   5.471   9.681  0.1361 -0.9617 -1.1435
    7CHL1  H18A  472   3.503   5.485   9.776  1.6286  1.1499 -2.2804
    7CHL1  H18B  473   3.483   5.394   9.610 -1.3561 -0.5699 -2.3851
    7CHL1  H18C  474   3.434   5.569   9.632 -1.0204 -0.6012 -0.1893
    7CHL1   C12  475   3.229   5.546   9.790 -0.6985  0.5836 -0.2110
    7CHL1  H12A  476   3.246   5.636   9.726 -2.7231 -0.5571 -2.4694
    7CHL1  H12B  477   3.123   5.527   9.814 -0.3240 -2.8826 -0.8241
    7CHL1   C11  478   3.304   5.572   9.927 -0.4713  0.0212  0.5669
    7CHL1  H11A  479   3.408   5.604   9.906 -0.4522 -0.2529  0.2418
    7CHL1  H11B  480   3.255   5.663   9.968  2.7473  1.6002  1.2025
    7CHL1    C9  481   3.303   5.449  10.026  0.1407 -0.5341  0.4239
    7CHL1    H9  482   3.195   5.432  10.047 -0.2497  1.0306 -0.1204
    7CHL1   C10  483   3.369   5.464  10.166 -0.2261 -0.5047 -0.3154
    7CHL1   C19  484   3.509   5.527  10.149  0.0480 -0.3769  0.0862
    7CHL1  H19A  485   3.581   5.446  10.123  0.0061 -0.3109 -0.2396
    7CHL1  H19B  486   3.512   5.617  10.084 -2.4689  0.5429  1.0924
    7CHL1  H19C  487   3.535   5.576  10.246 -1.4834  0.4601  0.1063
    7CHL1    C1  488   3.271   5.550  10.248  0.3098 -0.3759 -0.3426
    7CHL1   H1A  489   3.265   5.651  10.204 -0.3279 -0.2441  0.0421
    7CHL1   H1B  490   3.166   5.515  10.241 -0.2188  1.4050 -1.9181
    7CHL1    C2  491   3.306   5.556  10.394 -0.6164 -0.8596 -1.1023
    7CHL1   H2A  492   3.221   5.608  10.442 -0.2511  1.3173 -2.7024
    7CHL1   H2B  493   3.405   5.606  10.407 -0.6724 -1.4219  2.5414
    7CHL1   C20  494   3.241   5.437   9.454  1.5300 -0.1092 -1.5110
    7CHL1   H20  495   3.348   5.467   9.443  1.4761  0.7858  0.1128
    7CHL1   C21  496   3.157   5.571   9.455 -0.3145 -0.1334 -0.1250
    7CHL1  H21A  497   3.050   5.542   9.451 -0.1386 -0.9658  0.7609
    7CHL1  H21B  498   3.181   5.639   9.371  0.2933  0.7362  0.7322
    7CHL1  H21C  499   3.181   5.629   9.547 -0.5779 -1.6862  0.9708
    7CHL1   C22  500   3.200   5.340   9.338  0.8425 -0.5649 -0.1485
    7CHL1  H22A  501   3.267   5.252   9.342  0.5361 -0.7627  2.5319
    7CHL1  H22B  502   3.094   5.314   9.358  0.3031  0.7295 -1.1596
    7CHL1   C23  503   3.189   5.409   9.197  0.2832  0.4834 -1.0900
    7CHL1  H23A  504   3.104   5.481   9.197 -0.3835 -0.2651 -2.7099
    7CHL1  H23B  505   3.285   5.457   9.168  0.9099 -0.6452 -0.9457
    7CHL1   C24  506   3.147   5.301   9.091 -0.5869  0.3642 -0.0942
    7CHL1  H24A  507   3.215   5.217   9.117  0.9772  1.6163  0.0461
    7CHL1  H24B  508   3.044   5.262   9.101 -0.1693 -0.2068  2.4742
    7CHL1   C25  509   3.169   5.337   8.950  0.8798 -0.1517  0.4426
    7CHL1   H25  510   3.272   5.371   8.923  0.2161  1.7275  0.1400
    7CHL1   C26  511   3.146   5.212   8.861 -0.8656 -0.2186 -0.0291
    7CHL1  H26A  512   3.042   5.174   8.867  0.1840 -3.1210  2.4014
    7CHL1  H26B  513   3.168   5.243   8.756  0.7516  0.2818  0.4222
    7CHL1  H26C  514   3.204   5.124   8.896 -1.3799 -1.2727 -1.6896
    7CHL1   C27  515   3.091   5.452   8.896  0.9179  0.8450  0.4470
    7CHL1  H27A  516   3.107   5.469   8.788  2.3437 -0.2021  0.4578
    7CHL1  H27B  517   2.987   5.451   8.934  0.3423 -1.7479 -0.9876
    7CHL1  H27C  518   3.136   5.546   8.933  0.8344  0.4703  1.5431
    8CHL1    C3  519   3.952   0.396  10.389 -0.6140  0.3389 -0.4583
    8CHL1    H3  520   3.874   0.318  10.403 -0.6416  0.3125 -0.7365
    8CHL1    O3  521   3.982   0.460  10.512  0.2669  0.2050  0.4619
    8CHL1   H3'  522   3.900   0.507  10.528  0.3403  0.0537  1.2908
    8CHL1    C4  523   4.077   0.328  10.332 -0.2914  0.0508  0.0370
    8CHL1   H4A  524   4.164   0.396  10.342 -2.1543  2.7023 -0.4176
    8CHL1   H4B  525   4.082   0.242  10.402  1.7839 -0.0546 -0.1872
    8CHL1    C5  526   4.074   0.287  10.191 -0.2065 -0.1040  0.5800
    8CHL1    C6  527   4.122   0.166  10.156 -0.3093  0.2414  0.9034
    8CHL1    H6  528   4.166   0.096  10.228 -0.6398 -2.1474 -1.0756
    8CHL1    C7  529   4.132   0.122  10.013 -0.2756  0.3384 -0.9909
    8CHL1   H7A  530   4.233   0.081   9.996  0.1252  1.1571 -0.6532
    8CHL1   H7B  531   4.059   0.039   9.999  1.2886 -1.6612  1.7502
    8CHL1    C8  532   4.099   0.233   9.910 -0.3452  0.9095 -0.0151
    8CHL1    H8  533   4.192   0.294   9.908  0.4815 -0.2624  1.2694
    8CHL1   C14  534   4.071   0.173   9.770  0.4523  0.2218 -0.1561
    8CHL1   H14  535   3.972   0.132   9.802 -0.9651  2.8026 -0.9656
    8CHL1   C15  536   4.164   0.066   9.724  0.2340  0.6104  0.1471
    8CHL1  H15A  537   4.270   0.079   9.755  0.4825 -1.2797  0.1975
    8CHL1  H15B  538   4.123  -0.029   9.764 -1.5163  1.6979  1.0939
    8CHL1   C16  539   4.139   0.065   9.571 -0.3203 -0.1015 -0.5439
    8CHL1  H16A  540   4.231   0.101   9.521 -0.3740  1.4340  0.3886
    8CHL1  H16B  541   4.116  -0.040   9.544  0.7781 -0.6171  0.4216
    8CHL1   C17  542   4.025   0.169   9.542  0.5617 -0.1850 -0.3689
    8CHL1   H17  543   3.931   0.115   9.566  0.5084  0.1746  0.2499
    8CHL1   C13  544   4.035   0.270   9.660  0.5226  0.2782  0.1601
    8CHL1   C18  545   4.153   0.372   9.649 -0.1321 -0.3546  0.0407
    8CHL1  H18A  546   4.135   0.441   9.564  3.3272  1.1549  0.3703
    8CHL1  H18B  547   4.179   0.445   9.729 -0.6509 -0.0748 -0.0388
    8CHL1  H18C  548   4.237   0.306   9.619  0.3586  1.1285 -2.1139
    8CHL1   C12  549   3.905   0.339   9.709  0.0202 -0.5278  0.4298
    8CHL1  H12A  550   3.874   0.417   9.636 -0.5346 -1.6173 -0.5244
    8CHL1  H12B  551   3.817   0.271   9.712  0.0180 -0.6449 -1.5704
    8CHL1   C11  552   3.925   0.412   9.845  0.5546  0.2455  0.1206
    8CHL1  H11A  553   3.989   0.501   9.824  4.1351 -2.2774 -0.5627
    8CHL1  H11B  554   3.826   0.452   9.877 -0.1422 -0.6961 -0.8013
    8CHL1    C9  555   3.983   0.320   9.953 -0.1114  0.3056 -0.0277
    8CHL1    H9  556   3.903   0.246   9.975  2.0998 -2.2293 -0.0412
    8CHL1   C10  557   4.015   0.385  10.090 -0.5405 -0.0501 -0.3111
    8CHL1   C19  558   4.126   0.496  10.074 -0.1101 -0.5650 -0.2849
    8CHL1  H19A  559   4.226   0.455  10.047  0.7114  1.8922 -1.3024
    8CHL1  H19B  560   4.089   0.572  10.001  2.7839  1.3710  0.1021
    8CHL1  H19C  561   4.133   0.554  10.169 -0.4940 -0.5649 -0.2547
    8CHL1    C1  562   3.879   0.455  10.152 -0.0719  0.0151 -0.4773
    8CHL1   H1A  563   3.848   0.532  10.077 -0.3928 -2.1151 -2.6581
    8CHL1   H1B  564   3.807   0.370  10.155 -0.8719  0.6856 -0.1064
    8CHL1    C2  565   3.894   0.505  10.296  0.4907 -0.9917 -0.2568
    8CHL1   H2A  566   3.803   0.549  10.342  1.0641 -2.2698  2.2484
    8CHL1   H2B  567   3.970   0.586  10.296 -0.9138  0.3939 -1.4110
    8CHL1   C20  568   4.012   0.221   9.401  0.1981 -0.4369 -1.0197
    8CHL1   H20  569   4.093   0.296   9.387  0.9160 -0.8039  0.8521
    8CHL1   C21  570   3.869   0.286   9.383  0.1820 -0.0876 -0.5986
    8CHL1  H21A  571   3.871   0.377   9.446 -0.9543 -1.1081  0.9639
    8CHL1  H21B  572   3.800   0.207   9.418  3.3908 -4.9763 -3.9233
    8CHL1  H21C  573   3.862   0.307   9.274  0.1643  1.2200 -0.3557
    8CHL1   C22  574   4.027   0.117   9.290  0.4042 -0.2311  0.2022
    8CHL1  H22A  575   4.111   0.050   9.316 -0.2487 -1.0942  0.1414
    8CHL1  H22B  576   3.950   0.037   9.298  0.5987 -0.3683  0.7143
    8CHL1   C23  577   4.061   0.171   9.149  0.4564  0.7771  0.0355
    8CHL1  H23A  578   3.994   0.257   9.128 -1.0357  0.1481  1.9299
    8CHL1  H23B  579   4.167   0.205   9.151  1.2583 -1.4660 -0.8897
    8CHL1   C24  580   4.031   0.068   9.045 -0.2712 -0.7586  0.1837
    8CHL1  H24A  581   4.104  -0.013   9.064 -0.3188 -0.8432  0.0092
    8CHL1  H24B  582   3.927   0.028   9.043 -0.0667 -1.2940 -1.3543
    8CHL1   C25  583   4.059   0.133   8.904 -0.7050  0.4940 -0.4165
    8CHL1   H25  584   4.169   0.132   8.891 -0.5671  0.9149  0.6251
    8CHL1   C26  585   4.002   0.035   8.804 -0.2313 -0.4718 -0.1271
    8CHL1  H26A  586   4.024  -0.066   8.844  0.2148 -0.1638  0.4100
    8CHL1  H26B  587   3.891   0.030   8.798 -0.3408  1.8473 -0.9896
    8CHL1  H26C  588   4.066   0.042   8.714 -0.3726 -2.1536 -0.3934
    8CHL1   C27  589   3.998   0.269   8.881 -0.2903 -0.5666  0.4789
    8CHL1  H27A  590   4.039   0.351   8.944 -1.5888  0.5024 -0.0248
    8CHL1  H27B  591   4.017   0.303   8.776 -4.5678 -1.1358 -0.6739
    8CHL1  H27C  592   3.888   0.264   8.893 -0.3446  1.4626  1.2802
    9CHL1    C3  593   1.945   1.450  10.143  0.2669  0.6223  0.7417
    9CHL1    H3  594   1.856   1.387  10.126  1.6088 -1.6358  1.6828
    9CHL1    O3  595   1.978   1.419  10.277 -0.3645  0.0040 -0.4856
    9CHL1   H3'  596   2.054   1.465  10.311  0.2969 -2.2022  1.2934
    9CHL1    C4  597   2.060   1.388  10.059  0.1895  0.0732 -0.1311
    9CHL1   H4A  598   2.148   1.450  10.086 -1.1058  1.9070 -0.0003
    9CHL1   H4B  599   2.079   1.281  10.083  1.7833  0.1627 -0.8663
    9CHL1    C5  600   2.036   1.410   9.909 -0.4872 -0.1017 -0.5698
    9CHL1    C6  601   2.057   1.310   9.817 -0.9069 -0.6048 -0.8236
    9CHL1    H6  602   2.108   1.224   9.863  1.6336  0.4634 -1.4423
    9CHL1    C7  603   2.046   1.327   9.668 -0.8549 -0.5752 -0.5088
    9CHL1   H7A  604   2.138   1.297   9.613 -1.9932  0.8183 -3.3786
    9CHL1   H7B  605   1.965   1.268   9.622  1.1849 -1.5468 -3.1018
    9CHL1    C8  606   2.034   1.474   9.626  0.4308 -0.7077 -0.0037
    9CHL1    H8  607   2.136   1.516   9.621  0.5929 -1.2685 -2.2302
    9CHL1   C14  608   1.960   1.485   9.488 -0.0080  0.3616 -0.1467
    9CHL1   H14  609   1.852   1.466   9.503 -0.1810  0.4345 -1.2735
    9CHL1   C15  610   2.003   1.384   9.380  0.1651  0.4992  0.0770
    9CHL1  H15A  611   2.111   1.357   9.382 -0.3557 -1.9501 -1.0886
    9CHL1  H15B  612   1.963   1.281   9.388  2.2180 -0.3737 -0.0951
    9CHL1   C16  613   1.965   1.448   9.248  0.2377 -0.0730 -0.2668
    9CHL1  H16A  614   2.058   1.468   9.191 -0.5137  1.8874 -0.8714
    9CHL1  H16B  615   1.889   1.384   9.198  2.3639 -3.1610  0.1681
    9CHL1   C17  616   1.917   1.596   9.289  0.6798  0.6854 -0.0041
    9CHL1   H17  617   1.807   1.590   9.305  0.4006  0.7007 -1.6893
    9CHL1   C13  618   1.974   1.628   9.424 -0.8425 -0.0199  0.2324
    9CHL1   C18  619   2.123   1.678   9.408  0.3327  0.0318 -0.3130
    9CHL1  H18A  620   2.130   1.780   9.365 -3.6314  0.1538 -1.0227
    9CHL1  H18B  621   2.163   1.694   9.511  3.5201 -0.1470 -1.4198
    9CHL1  H18C  622   2.179   1.604   9.346  0.0960 -1.2636  0.9590
    9CHL1   C12  623   1.892   1.724   9.507  0.8099  0.3164  0.2840
    9CHL1  H12A  624   1.903   1.827   9.467  0.3801 -0.0997 -0.9460
    9CHL1  H12B  625   1.786   1.694   9.494  0.5681  1.2184  0.1609
    9CHL1   C11  626   1.927   1.707   9.659 -0.0372 -0.0726 -0.8908
    9CHL1  H11A  627   2.014   1.774   9.675 -2.3305  2.8990  0.0667
    9CHL1  H11B  628   1.844   1.747   9.722  0.4435 -2.1396  1.1587
    9CHL1    C9  629   1.945   1.566   9.723 -0.0910  0.0764 -0.0635
    9CHL1    H9  630   1.846   1.517   9.718 -0.0528  0.1379 -2.0606
    9CHL1   C10  631   1.998   1.557   9.871  0.5349 -0.3374 -0.4161
    9CHL1   C19  632   2.129   1.635   9.887  0.6603  0.2851 -0.8828
    9CHL1  H19A  633   2.154   1.647   9.994 -0.9337  0.3169 -0.4955
    9CHL1  H19B  634   2.214   1.592   9.829  1.1779  1.1787 -0.8026
    9CHL1  H19C  635   2.116   1.745   9.875  0.9071  0.7255  2.1207
    9CHL1    C1  636   1.894   1.625   9.970  0.5027  0.8400 -0.3646
    9CHL1   H1A  637   1.875   1.734   9.957 -0.9355  0.8047  1.1737
    9CHL1   H1B  638   1.793   1.590   9.943 -0.1068  0.1301  2.5228
    9CHL1    C2  639   1.932   1.599  10.116  0.2972 -0.0393  0.2908
    9CHL1   H2A  640   1.844   1.631  10.177  0.5688 -0.2460  0.7981
    9CHL1   H2B  641   2.014   1.662  10.156 -1.7546  2.0980  1.4098
    9CHL1   C20  642   1.914   1.695   9.170  0.7060  0.4816  0.6103
    9CHL1   H20  643   2.020   1.724   9.152  0.3407  0.3660 -2.1052
    9CHL1   C21  644   1.827   1.817   9.192  0.2971 -0.2315 -0.3693
    9CHL1  H21A  645   1.802   1.887   9.109 -2.9224 -0.4542  0.2519
    9CHL1  H21B  646   1.875   1.883   9.267 -0.2317 -0.3224  0.0561
    9CHL1  H21C  647   1.736   1.780   9.245  0.4810  1.6980  1.4317
    9CHL1   C22  648   1.872   1.623   9.038 -0.0919  0.0515 -0.2482
    9CHL1  H22A  649   1.942   1.539   9.019  3.0862  2.7330 -1.1393
    9CHL1  H22B  650   1.767   1.586   9.046  0.5206 -1.4324  2.5882
    9CHL1   C23  651   1.882   1.709   8.913 -0.7089 -0.2167  0.3539
    9CHL1  H23A  652   1.819   1.801   8.912  1.3316  1.3135  1.9646
    9CHL1  H23B  653   1.980   1.760   8.901 -0.6244 -0.0291  1.6621
    9CHL1   C24  654   1.821   1.635   8.791 -0.7076  0.3826  0.3791
    9CHL1  H24A  655   1.834   1.527   8.814  4.3347  0.7291  0.2946
    9CHL1  H24B  656   1.712   1.654   8.785 -0.4831  2.3045  1.6745
    9CHL1   C25  657   1.894   1.661   8.660  0.4722 -0.2572 -0.1591
    9CHL1   H25  658   2.000   1.630   8.671  0.3544 -0.2055  1.3731
    9CHL1   C26  659   1.828   1.565   8.555 -0.0042  0.3280 -0.1789
    9CHL1  H26A  660   1.851   1.460   8.580 -2.3783  0.5614  3.7911
    9CHL1  H26B  661   1.719   1.586   8.559 -0.2184 -0.7099 -0.2922
    9CHL1  H26C  662   1.872   1.600   8.459  0.8365 -2.0374 -0.7157
    9CHL1   C27  663   1.867   1.811   8.618 -0.5507  0.0566 -0.7866
    9CHL1  H27A  664   1.758   1.833   8.619 -0.5092  0.2314 -0.2322
    9CHL1  H27B  665   1.923   1.877   8.687  0.6653  0.1057 -1.7651
    9CHL1  H27C  666   1.905   1.828   8.514 -0.3677  0.9347 -0.5868
   10CHL1    C3  667   1.155   6.525  10.000 -0.5180  0.8437 -0.8594
   10CHL1    H3  668   1.254   6.479   9.983 -0.7090 -0.9538  2.1834
   10CHL1    O3  669   1.120   6.508  10.139 -0.1531 -0.1686 -0.1319
   10CHL1   H3'  670   1.029   6.539  10.132 -0.0221 -0.0566 -2.1754
   10CHL1    C4  671   1.160   6.677   9.965  0.3515  0.1177  0.2134
   10CHL1   H4A  672   1.067   6.735   9.986 -0.3450 -0.0905 -2.0430
   10CHL1   H4B  673   1.240   6.731  10.020 -0.7268  0.8962  1.0746
   10CHL1    C5  674   1.198   6.679   9.819  0.9272  1.1246 -0.2402
   10CHL1    C6  675   1.321   6.737   9.782  0.4211 -0.1013  0.0310
   10CHL1    H6  676   1.393   6.769   9.859 -0.1319  0.7441  0.2092
   10CHL1    C7  677   1.363   6.757   9.633 -0.5975  0.2595  0.4474
   10CHL1   H7A  678   1.408   6.859   9.625 -1.3706  0.5754  0.0767
   10CHL1   H7B  679   1.438   6.680   9.604  0.1163  1.4558 -1.0432
   10CHL1    C8  680   1.237   6.743   9.547 -0.7376 -0.6066 -0.1286
   10CHL1    H8  681   1.181   6.839   9.552  0.1084 -0.0892 -0.3295
   10CHL1   C14  682   1.285   6.737   9.407  0.1295  0.4500  0.1781
   10CHL1   H14  683   1.336   6.638   9.410  2.5614  1.6472  1.0294
   10CHL1   C15  684   1.388   6.837   9.358  0.0794 -0.1356 -0.6373
   10CHL1  H15A  685   1.355   6.938   9.390  0.7661 -0.5983  1.6798
   10CHL1  H15B  686   1.490   6.819   9.397  0.0824  0.1557 -0.5110
   10CHL1   C16  687   1.382   6.827   9.204 -1.0488 -0.3233 -0.1867
   10CHL1  H16A  688   1.373   6.930   9.164  0.4388 -0.0701  0.0580
   10CHL1  H16B  689   1.478   6.791   9.163 -1.7951 -1.6629 -0.8157
   10CHL1   C17  690   1.266   6.726   9.170  0.0306 -0.7215  0.4595
   10CHL1   H17  691   1.313   6.628   9.149 -0.4094 -0.4257 -2.2774
   10CHL1   C13  692   1.178   6.720   9.296 -0.3832  0.5629 -0.2552
   10CHL1   C18  693   1.084   6.850   9.293  0.2331  0.2577  0.2899
   10CHL1  H18A  694   1.041   6.861   9.394  1.1325  2.1626  0.5187
   10CHL1  H18B  695   1.146   6.941   9.276  2.9936 -1.4602  0.4811
   10CHL1  H18C  696   1.004   6.829   9.219  0.3333  3.0880 -0.7142
   10CHL1   C12  697   1.102   6.586   9.325  0.6714  0.1914 -0.1951
   10CHL1  H12A  698   1.013   6.579   9.259  0.3516 -1.0526  0.3459
   10CHL1  H12B  699   1.162   6.493   9.319  0.3953 -0.0443  0.6283
   10CHL1   C11  700   1.051   6.582   9.472  0.6343  0.1677  0.4886
   10CHL1  H11A  701   0.968   6.655   9.460 -1.2764 -2.2813 -2.8223
   10CHL1  H11B  702   0.996   6.488   9.493 -0.4672  0.7748  0.4055
   10CHL1    C9  703   1.154   6.617   9.580 -0.3056 -0.7520  0.6907
   10CHL1    H9  704   1.223   6.530   9.578  0.5878 -0.0386 -0.4616
   10CHL1   C10  705   1.096   6.625   9.718 -0.4191 -0.4042  0.0429
   10CHL1   C19  706   0.972   6.713   9.719  0.7206  0.9203 -0.2173
   10CHL1  H19A  707   0.992   6.819   9.692 -0.0232  1.0196 -0.3916
   10CHL1  H19B  708   0.893   6.670   9.653  0.5553  0.9977 -0.0711
   10CHL1  H19C  709   0.926   6.718   9.820  1.0145  2.9806 -0.1349
   10CHL1    C1  710   1.058   6.481   9.766  0.2504 -0.0697  0.1254
   10CHL1   H1A  711   0.969   6.437   9.717  1.2186 -0.6042 -1.2142
   10CHL1   H1B  712   1.144   6.416   9.738 -1.7333 -2.1148 -1.5463
   10CHL1    C2  713   1.050   6.455   9.915  0.3853  0.1499 -0.9512
   10CHL1   H2A  714   1.044   6.346   9.935 -0.0075  0.4474  0.7269
   10CHL1   H2B  715   0.959   6.503   9.956  1.4165  0.6070  0.9075
   10CHL1   C20  716   1.197   6.767   9.039 -0.0816  0.1935 -0.5483
   10CHL1   H20  717   1.141   6.862   9.048 -0.9036 -0.3394  0.1042
   10CHL1   C21  718   1.108   6.648   9.004  0.3029  0.1959 -0.0776
   10CHL1  H21A  719   1.081   6.666   8.898 -0.9411  3.0434  0.6180
   10CHL1  H21B  720   1.020   6.657   9.072  0.3110 -0.6809  0.0624
   10CHL1  H21C  721   1.158   6.550   9.023 -0.4099 -0.2482 -0.4429
   10CHL1   C22  722   1.307   6.787   8.929 -0.0870  0.3496 -0.5319
   10CHL1  H22A  723   1.392   6.852   8.959 -0.7738  1.1370 -0.2453
   10CHL1  H22B  724   1.344   6.686   8.900 -1.4024 -0.2211 -0.2938
   10CHL1   C23  725   1.256   6.846   8.797  0.0540 -0.2267 -0.0877
   10CHL1  H23A  726   1.171   6.796   8.747  0.8104 -1.9731  0.3033
   10CHL1  H23B  727   1.221   6.944   8.838  0.9822  0.1102 -0.0798
   10CHL1   C24  728   1.361   6.880   8.693  0.1414 -0.1509  0.0908
   10CHL1  H24A  729   1.311   6.955   8.628  1.4286  0.4045 -0.2867
   10CHL1  H24B  730   1.445   6.934   8.742  1.1601  0.1670 -1.9246
   10CHL1   C25  731   1.412   6.764   8.611  1.0563  0.1795 -0.0034
   10CHL1   H25  732   1.426   6.674   8.674 -1.9178 -0.6707 -0.4088
   10CHL1   C26  733   1.311   6.719   8.508 -0.7085  0.0917  0.3674
   10CHL1  H26A  734   1.308   6.800   8.432  1.0819  0.2649  0.4320
   10CHL1  H26B  735   1.342   6.623   8.460 -0.8508  0.6413 -0.8543
   10CHL1  H26C  736   1.209   6.699   8.548 -0.6247 -1.2378 -0.0191
   10CHL1   C27  737   1.538   6.805   8.534 -0.3907 -0.5306  0.2242
   10CHL1  H27A  738   1.547   6.904   8.485  1.7488 -0.6664  0.2554
   10CHL1  H27B  739   1.618   6.806   8.611 -1.8627  2.3685  1.8944
   10CHL1  H27C  740   1.564   6.721   8.466  1.2477  0.9324 -1.0460
   11CHL1    C3  741   1.554   2.925  10.000 -0.7439  1.0458 -0.0374
   11CHL1    H3  742   1.473   2.850  10.011 -0.9391  1.3713  0.8456
   11CHL1    O3  743   1.591   2.952  10.138 -0.3019  0.3569 -0.3107
   11CHL1   H3'  744   1.643   3.033  10.132 -1.2986  1.1079  0.7128
   11CHL1    C4  745   1.670   2.861   9.925  0.0077  0.4149 -0.1657
   11CHL1   H4A  746   1.757   2.929   9.926 -1.4612  2.3925 -0.3878
   11CHL1   H4B  747   1.699   2.775   9.989 -1.4970 -1.3473 -1.7338
   11CHL1    C5  748   1.635   2.819   9.784  0.1635 -0.1062  0.3107
   11CHL1    C6  749   1.647   2.692   9.742  0.1052 -0.6094 -0.3612
   11CHL1    H6  750   1.681   2.612   9.809 -1.2550 -0.5403  0.4463
   11CHL1    C7  751   1.621   2.651   9.602 -0.1623  0.3513 -0.4434
   11CHL1   H7A  752   1.691   2.572   9.566 -0.9856  0.8595 -3.3735
   11CHL1   H7B  753   1.523   2.600   9.594 -0.5195  1.3355 -4.1999
   11CHL1    C8  754   1.618   2.771   9.500  0.2877 -0.1673 -0.3411
   11CHL1    H8  755   1.717   2.816   9.476 -0.1808  0.9299 -0.2714
   11CHL1   C14  756   1.556   2.731   9.363  0.3534 -0.0367  0.1737
   11CHL1   H14  757   1.449   2.708   9.384 -0.3926  1.9203 -1.1586
   11CHL1   C15  758   1.616   2.610   9.290  0.2486 -0.2843 -0.0005
   11CHL1  H15A  759   1.725   2.628   9.304  0.5630 -0.7850 -1.5894
   11CHL1  H15B  760   1.588   2.518   9.344 -1.8705  1.7072  2.5683
   11CHL1   C16  761   1.565   2.621   9.147 -0.0867 -0.6979 -0.4830
   11CHL1  H16A  762   1.643   2.604   9.070 -0.5645  0.3839 -1.2453
   11CHL1  H16B  763   1.487   2.546   9.123 -0.9491  0.0155 -0.0023
   11CHL1   C17  764   1.493   2.756   9.142  0.3598 -0.0191  0.1658
   11CHL1   H17  765   1.387   2.741   9.170 -0.1554  0.1228 -1.5530
   11CHL1   C13  766   1.547   2.844   9.255  0.5431 -0.0814 -1.2106
   11CHL1   C18  767   1.682   2.904   9.214 -0.8604 -0.0014 -1.1182
   11CHL1  H18A  768   1.749   2.816   9.205 -0.7237 -0.0496  0.2195
   11CHL1  H18B  769   1.678   2.960   9.118 -0.8995 -0.2684 -1.2750
   11CHL1  H18C  770   1.719   2.971   9.294  0.1748 -0.0544 -1.5383
   11CHL1   C12  771   1.466   2.957   9.325 -0.0439 -0.3652  0.5098
   11CHL1  H12A  772   1.467   3.041   9.253 -2.6111  0.4731  1.3383
   11CHL1  H12B  773   1.359   2.931   9.341 -0.2497  0.4231  0.4373
   11CHL1   C11  774   1.517   3.005   9.462 -0.3038  0.0772 -0.0728
   11CHL1  H11A  775   1.615   3.053   9.437 -0.1089 -0.1505  0.2513
   11CHL1  H11B  776   1.456   3.090   9.499  0.1412  0.4550 -0.1897
   11CHL1    C9  777   1.545   2.892   9.556  0.5475  0.4674 -0.1366
   11CHL1    H9  778   1.447   2.844   9.580 -0.1462  1.8660 -0.0272
   11CHL1   C10  779   1.592   2.934   9.695  0.5079  0.5210 -0.3341
   11CHL1   C19  780   1.712   3.036   9.670  0.8132 -0.2964  0.7505
   11CHL1  H19A  781   1.673   3.126   9.618 -1.9286 -2.8233 -2.0234
   11CHL1  H19B  782   1.754   3.075   9.764  2.5920 -1.3946  0.4541
   11CHL1  H19C  783   1.798   3.002   9.609  0.7450  2.9260 -1.3829
   11CHL1    C1  784   1.479   3.012   9.772 -0.0682 -0.2957 -0.1651
   11CHL1   H1A  785   1.464   3.107   9.716 -1.6204 -0.6837 -0.4516
   11CHL1   H1B  786   1.386   2.953   9.763  0.5287 -1.1476 -1.0176
   11CHL1    C2  787   1.505   3.043   9.917  0.3081 -0.0282  0.1910
   11CHL1   H2A  788   1.408   3.073   9.962  0.3326  1.2425 -0.5634
   11CHL1   H2B  789   1.567   3.135   9.923 -1.3650  1.1458  0.3581
   11CHL1   C20  790   1.483   2.808   8.990 -0.1069 -0.0539 -0.1968
   11CHL1   H20  791   1.584   2.816   8.945  0.4304 -1.6218  0.6285
   11CHL1   C21  792   1.412   2.944   8.992 -0.0210  1.0388  0.2554
   11CHL1  H21A  793   1.328   2.943   9.064  0.8258  1.1426  1.2851
   11CHL1  H21B  794   1.375   2.966   8.890 -0.9172 -1.7100 -0.0844
   11CHL1  H21C  795   1.486   3.016   9.034  0.6041  0.3144  0.4100
   11CHL1   C22  796   1.407   2.708   8.899  0.1235  0.2296 -0.2004
   11CHL1  H22A  797   1.434   2.604   8.929  2.3186  0.6033 -0.6701
   11CHL1  H22B  798   1.297   2.721   8.895  0.4519  3.1741 -2.0063
   11CHL1   C23  799   1.437   2.722   8.749 -0.2111 -0.2502 -0.3246
   11CHL1  H23A  800   1.421   2.824   8.708  0.5604  0.7183  1.6418
   11CHL1  H23B  801   1.547   2.707   8.746  0.1536  1.6852  1.5666
   11CHL1   C24  802   1.378   2.604   8.672 -0.1105 -0.9025  0.0117
   11CHL1  H24A  803   1.404   2.507   8.719  0.1783 -1.1952 -0.7314
   11CHL1  H24B  804   1.268   2.604   8.664 -0.1340 -0.4792  0.2973
   11CHL1   C25  805   1.438   2.596   8.525  0.1419  0.7123 -0.2451
   11CHL1   H25  806   1.549   2.605   8.533  0.3340 -1.6622  0.3843
   11CHL1   C26  807   1.417   2.460   8.451 -0.0376 -0.1010 -0.2254
   11CHL1  H26A  808   1.479   2.453   8.359 -0.2820  0.5627 -0.4442
   11CHL1  H26B  809   1.461   2.389   8.525  0.0287  1.7604  1.6042
   11CHL1  H26C  810   1.307   2.464   8.440  0.0806  0.4891 -1.3316
   11CHL1   C27  811   1.396   2.722   8.444  0.0237 -0.0631  0.2359
   11CHL1  H27A  812   1.289   2.742   8.465 -0.3152  0.4916 -1.7427
   11CHL1  H27B  813   1.455   2.814   8.467  2.1058 -1.7759  2.1762
   11CHL1  H27C  814   1.396   2.715   8.333 -1.7757  0.8864  0.1320
   12CHL1    C3  815   4.814   6.477  10.422  0.0284 -0.1723 -0.5730
   12CHL1    H3  816   4.737   6.538  10.370 -1.6774  0.3943  2.3535
   12CHL1    O3  817   4.814   6.523  10.559  0.5210 -0.3145  0.2637
   12CHL1   H3'  818   4.743   6.470  10.598  0.8377 -0.0136  1.2841
   12CHL1    C4  819   4.776   6.337  10.428 -0.1734  0.9457  0.2865
   12CHL1   H4A  820   4.850   6.279  10.487 -0.4424  1.1334  0.8132
   12CHL1   H4B  821   4.686   6.322  10.492 -1.8758  1.3318 -1.8801
   12CHL1    C5  822   4.764   6.282  10.283 -0.1269  0.3792 -0.4594
   12CHL1    C6  823   4.650   6.231  10.241 -0.0439 -0.0418  0.0422
   12CHL1    H6  824   4.567   6.222  10.312  1.1287 -1.9027  1.2649
   12CHL1    C7  825   4.626   6.173  10.101  0.2233 -0.0030  0.0844
   12CHL1   H7A  826   4.579   6.073  10.115 -2.0031  1.1400  1.3289
   12CHL1   H7B  827   4.546   6.237  10.057 -2.4196 -2.3016  1.2166
   12CHL1    C8  828   4.757   6.179  10.022 -0.0330  0.4122  0.1256
   12CHL1    H8  829   4.812   6.084  10.039 -1.4900 -0.2296  1.5718
   12CHL1   C14  830   4.718   6.189   9.878  0.0521  0.8915 -0.3407
   12CHL1   H14  831   4.683   6.295   9.872  1.5181  1.4247  0.1513
   12CHL1   C15  832   4.599   6.110   9.825  0.2302 -0.8904 -0.3348
   12CHL1  H15A  833   4.621   6.011   9.871 -0.4598 -1.0021 -0.2284
   12CHL1  H15B  834   4.503   6.157   9.855  1.5632  1.7661  0.1028
   12CHL1   C16  835   4.616   6.118   9.676 -0.5978  0.5560  0.5104
   12CHL1  H16A  836   4.613   6.020   9.624  0.0032  0.5043  0.5738
   12CHL1  H16B  837   4.535   6.172   9.623 -0.3423  0.6732  0.2355
   12CHL1   C17  838   4.748   6.193   9.644 -0.1373 -0.0271 -1.2573
   12CHL1   H17  839   4.740   6.304   9.634 -0.5366 -0.1814 -3.1169
   12CHL1   C13  840   4.829   6.178   9.774 -0.5151  0.3277  0.3562
   12CHL1   C18  841   4.894   6.040   9.774 -0.3668 -0.4192  0.6322
   12CHL1  H18A  842   4.965   6.019   9.690 -2.8931 -0.6036 -1.6168
   12CHL1  H18B  843   4.953   6.009   9.863  3.7134 -1.5597 -2.1593
   12CHL1  H18C  844   4.814   5.968   9.746  1.8046 -1.4542 -3.9642
   12CHL1   C12  845   4.925   6.293   9.804 -0.1770 -0.3579 -0.2244
   12CHL1  H12A  846   5.014   6.300   9.737 -0.8799  2.1055 -1.0141
   12CHL1  H12B  847   4.880   6.392   9.782  0.1849 -0.4053 -1.1998
   12CHL1   C11  848   4.968   6.295   9.951 -0.5332  0.0891 -0.0623
   12CHL1  H11A  849   5.037   6.209   9.969  1.1309  1.6140  1.1253
   12CHL1  H11B  850   5.034   6.381   9.972  1.5730 -0.9298 -2.1293
   12CHL1    C9  851   4.847   6.295  10.053 -0.5982  0.2219 -0.1431
   12CHL1    H9  852   4.788   6.381  10.015  1.4214  1.0004 -1.6691
   12CHL1   C10  853   4.885   6.308  10.195 -0.0056  0.2757 -0.2570
   12CHL1   C19  854   4.996   6.203  10.227  0.1140 -0.2297  0.0975
   12CHL1  H19A  855   5.036   6.216  10.330  0.9116 -0.8177 -0.1290
   12CHL1  H19B  856   4.947   6.103  10.229 -1.0582  0.3083 -0.6833
   12CHL1  H19C  857   5.088   6.210  10.166  0.5241 -2.8734  0.3099
   12CHL1    C1  858   4.947   6.449  10.212 -0.2355  0.8709  0.0475
   12CHL1   H1A  859   5.042   6.474  10.160 -1.2501  0.3237 -2.1987
   12CHL1   H1B  860   4.879   6.519  10.159  1.0891  0.9828 -1.5964
   12CHL1    C2  861   4.950   6.495  10.359 -1.3540 -0.2564  0.0275
   12CHL1   H2A  862   4.968   6.604  10.367  0.3023 -0.5936  1.3352
   12CHL1   H2B  863   5.026   6.445  10.422  0.3066  1.8196 -0.2216
   12CHL1   C20  864   4.815   6.152   9.511  0.2292  0.3342  0.0721
   12CHL1   H20  865   4.839   6.044   9.523 -1.2506  0.1979  2.3480
   12CHL1   C21  866   4.953   6.234   9.498  0.1611  0.2114 -0.0504
   12CHL1  H21A  867   4.981   6.234   9.390  0.1293  1.1127 -0.0702
   12CHL1  H21B  868   5.031   6.189   9.563  0.8146 -0.3325 -1.1741
   12CHL1  H21C  869   4.951   6.342   9.527  1.3526  0.4411 -0.7632
   12CHL1   C22  870   4.706   6.191   9.403 -0.2253  0.1108  0.2282
   12CHL1  H22A  871   4.605   6.156   9.434  0.3379 -1.6524  0.1802
   12CHL1  H22B  872   4.696   6.301   9.411 -0.0831  0.0264  1.7974
   12CHL1   C23  873   4.734   6.140   9.262  0.5308  0.4948 -0.9092
   12CHL1  H23A  874   4.823   6.194   9.222  2.1969 -0.7809  0.8692
   12CHL1  H23B  875   4.767   6.034   9.271  2.8898  1.1846 -0.6067
   12CHL1   C24  876   4.612   6.159   9.164 -0.1476 -0.8426 -0.5712
   12CHL1  H24A  877   4.536   6.089   9.206  0.6567 -0.6341  1.3653
   12CHL1  H24B  878   4.572   6.262   9.167  1.7260 -0.0916  1.5095
   12CHL1   C25  879   4.646   6.110   9.026 -0.7461 -0.0875  0.2241
   12CHL1   H25  880   4.700   6.014   9.040  1.7338  1.3047  0.9405
   12CHL1   C26  881   4.525   6.074   8.942  0.3754  0.1153 -1.5073
   12CHL1  H26A  882   4.445   6.016   8.993 -0.4155  0.9120 -1.8039
   12CHL1  H26B  883   4.476   6.169   8.913  0.1196  0.9840  1.4793
   12CHL1  H26C  884   4.558   6.011   8.856  0.6428  0.4370 -1.6422
   12CHL1   C27  885   4.734   6.206   8.940 -0.5996 -0.4187  0.0631
   12CHL1  H27A  886   4.679   6.301   8.919 -1.5743 -0.9268  0.2872
   12CHL1  H27B  887   4.831   6.227   8.990 -0.2431  0.0519 -0.8065
   12CHL1  H27C  888   4.765   6.158   8.844  0.1744  3.2735 -1.7300
   13CHL1    C3  889   5.301   2.026   9.939  0.1137 -0.5076  0.0415
   13CHL1    H3  890   5.391   2.091   9.937 -2.2948  3.1640  1.0069
   13CHL1    O3  891   5.247   2.039  10.071  0.2713  0.4268 -0.1444
   13CHL1   H3'  892   5.288   1.964  10.115 -0.2641  1.2564  1.8687
   13CHL1    C4  893   5.202   2.093   9.845 -0.1158  0.2080 -0.3128
   13CHL1   H4A  894   5.107   2.040   9.868 -0.3170  0.7618  0.1577
   13CHL1   H4B  895   5.186   2.197   9.882 -3.4147 -1.4165  3.5930
   13CHL1    C5  896   5.229   2.099   9.699 -0.0212  0.0442  0.0021
   13CHL1    C6  897   5.230   2.215   9.631 -0.0928  0.8586  0.1987
   13CHL1    H6  898   5.186   2.304   9.679 -0.7828  0.5995  0.0488
   13CHL1    C7  899   5.246   2.219   9.488  0.6225  0.3002 -0.1323
   13CHL1   H7A  900   5.170   2.284   9.440  1.0517 -0.3360 -1.7654
   13CHL1   H7B  901   5.346   2.264   9.474  0.8216 -0.3174 -0.7824
   13CHL1    C8  902   5.244   2.082   9.417 -0.1335 -0.2470 -0.0766
   13CHL1    H8  903   5.136   2.060   9.406 -0.1029 -0.4113 -0.0482
   13CHL1   C14  904   5.303   2.091   9.281  0.0595 -0.1127  0.3174
   13CHL1   H14  905   5.410   2.116   9.296 -0.3550  0.9749  1.6963
   13CHL1   C15  906   5.250   2.214   9.190  0.1117 -0.2681  0.4123
   13CHL1  H15A  907   5.140   2.200   9.194 -0.3420  0.0124 -4.5122
   13CHL1  H15B  908   5.285   2.314   9.224 -0.6680  0.5019 -0.9825
   13CHL1   C16  909   5.292   2.170   9.047  0.0093 -0.3136  0.2110
   13CHL1  H16A  910   5.203   2.145   8.984  0.9918 -0.3565 -1.1924
   13CHL1  H16B  911   5.359   2.250   9.010 -2.0884  2.4524  1.9585
   13CHL1   C17  912   5.364   2.030   9.066  0.0991 -0.0824  0.7868
   13CHL1   H17  913   5.471   2.050   9.088  0.4305 -0.1134 -0.6993
   13CHL1   C13  914   5.297   1.962   9.190  0.1419 -0.4317 -1.0811
   13CHL1   C18  915   5.153   1.913   9.164  0.2880 -0.5858  0.7684
   13CHL1  H18A  916   5.096   1.986   9.103 -3.9607 -0.6782  4.1635
   13CHL1  H18B  917   5.162   1.815   9.113  0.1477  1.0458 -2.6819
   13CHL1  H18C  918   5.102   1.895   9.260 -1.0386  0.7712  0.3586
   13CHL1   C12  919   5.380   1.859   9.272 -1.0763  0.5112  0.0842
   13CHL1  H12A  920   5.377   1.761   9.220 -2.9657  1.1161 -1.0698
   13CHL1  H12B  921   5.486   1.889   9.279 -0.0759 -2.6071 -0.2246
   13CHL1   C11  922   5.329   1.840   9.420 -0.5354 -0.9382 -0.4799
   13CHL1  H11A  923   5.229   1.791   9.422 -1.0839  0.1418  0.8750
   13CHL1  H11B  924   5.408   1.779   9.468  0.5467  1.2480  0.6734
   13CHL1    C9  925   5.319   1.977   9.498 -0.2914 -0.1405  0.2414
   13CHL1    H9  926   5.420   2.021   9.511 -0.4855  1.3838 -2.5256
   13CHL1   C10  927   5.265   1.961   9.642 -0.1922  1.3303  0.8600
   13CHL1   C19  928   5.131   1.874   9.643 -0.5576 -0.3139  0.0521
   13CHL1  H19A  929   5.088   1.876   9.745 -0.1692  2.3798  0.2197
   13CHL1  H19B  930   5.060   1.914   9.567 -0.7109  0.5238  0.6239
   13CHL1  H19C  931   5.145   1.767   9.618  0.2648  0.1590 -1.6367
   13CHL1    C1  932   5.363   1.889   9.743 -0.7706 -0.4150 -0.3423
   13CHL1   H1A  933   5.377   1.782   9.715 -0.2285 -0.6462  0.7449
   13CHL1   H1B  934   5.460   1.944   9.737 -0.8315 -0.3728 -0.9562
   13CHL1    C2  935   5.325   1.887   9.891 -0.0159  0.4926 -0.4799
   13CHL1   H2A  936   5.416   1.851   9.944  0.3972  1.7553 -0.3011
   13CHL1   H2B  937   5.240   1.816   9.898  0.6833 -0.1671  3.7409
   13CHL1   C20  938   5.368   1.947   8.934  0.8416 -0.8655  0.7800
   13CHL1   H20  939   5.266   1.906   8.917  0.7532 -0.8926  1.3359
   13CHL1   C21  940   5.445   1.818   8.952 -0.6970  0.1658 -0.5314
   13CHL1  H21A  941   5.479   1.768   8.859 -0.3659 -1.3918  0.3823
   13CHL1  H21B  942   5.378   1.740   8.995 -1.4459 -0.3055 -2.4647
   13CHL1  H21C  943   5.534   1.840   9.015 -1.6676  0.9177  0.6124
   13CHL1   C22  944   5.402   2.032   8.808  0.8165  0.2977  0.6807
   13CHL1  H22A  945   5.367   1.969   8.723  2.4247 -0.3649  0.4576
   13CHL1  H22B  946   5.350   2.130   8.807  0.7349  0.2526  0.0531
   13CHL1   C23  947   5.553   2.054   8.793  1.0925 -0.5661 -0.0241
   13CHL1  H23A  948   5.592   2.093   8.890  1.8704  2.5176 -1.4659
   13CHL1  H23B  949   5.593   1.954   8.769 -1.5173 -1.1326 -2.4483
   13CHL1   C24  950   5.594   2.153   8.671 -0.0195 -0.5664  0.0005
   13CHL1  H24A  951   5.517   2.232   8.655  0.1959 -0.6542 -1.6929
   13CHL1  H24B  952   5.687   2.213   8.680  0.1609 -0.8522  0.0499
   13CHL1   C25  953   5.596   2.087   8.528 -0.0328  0.6759  0.0163
   13CHL1   H25  954   5.494   2.047   8.507  0.6391 -1.9780  1.3710
   13CHL1   C26  955   5.647   2.175   8.419 -0.7432 -0.5927 -0.0904
   13CHL1  H26A  956   5.650   2.118   8.324 -0.4626  0.7794 -0.9208
   13CHL1  H26B  957   5.577   2.261   8.418 -0.5778 -0.1957  4.1371
   13CHL1  H26C  958   5.750   2.210   8.441 -0.4487 -1.6276  0.2251
   13CHL1   C27  959   5.686   1.964   8.522 -0.1556  0.3708  0.0903
   13CHL1  H27A  960   5.689   1.918   8.421 -0.4453 -2.4903  1.2896
   13CHL1  H27B  961   5.790   1.990   8.554  0.6754  0.2622 -2.3058
   13CHL1  H27C  962   5.646   1.888   8.592  2.6602  0.5853  2.0941
   14CHL1    C3  963   3.907   4.477  10.277 -0.1094 -0.0672  0.8938
   14CHL1    H3  964   3.886   4.582  10.245 -2.9519 -1.0266 -0.6924
   14CHL1    O3  965   3.907   4.475  10.416  0.2391  0.1182 -0.3055
   14CHL1   H3'  966   3.893   4.382  10.435  0.4463  0.1223 -0.1297
   14CHL1    C4  967   3.792   4.385  10.230  0.2631  0.6365  0.2092
   14CHL1   H4A  968   3.820   4.281  10.258 -0.2485  0.5092  0.2572
   14CHL1   H4B  969   3.704   4.421  10.287  1.5443  0.8453  2.1485
   14CHL1    C5  970   3.792   4.390  10.075  0.2145 -0.5586  0.1233
   14CHL1    C6  971   3.684   4.439  10.009  0.2393 -0.1134  0.0265
   14CHL1    H6  972   3.597   4.476  10.065  0.2521  0.5786 -0.4010
   14CHL1    C7  973   3.668   4.448   9.862 -0.0566 -0.7731 -0.1916
   14CHL1   H7A  974   3.570   4.417   9.821 -0.1266 -0.3545 -0.3480
   14CHL1   H7B  975   3.672   4.556   9.837 -0.4281 -0.1754  2.0790
   14CHL1    C8  976   3.772   4.355   9.787 -0.3059  0.2475 -0.0306
   14CHL1    H8  977   3.757   4.246   9.799 -1.6378  0.3205 -0.7881
   14CHL1   C14  978   3.784   4.388   9.636 -1.1873  0.2808 -0.4882
   14CHL1   H14  979   3.827   4.490   9.634  4.1154 -1.6340 -0.5645
   14CHL1   C15  980   3.654   4.384   9.551  0.6483 -0.1020  0.0546
   14CHL1  H15A  981   3.607   4.287   9.576 -0.1895  0.3082  0.0831
   14CHL1  H15B  982   3.576   4.461   9.567 -0.1167 -0.8047 -0.2153
   14CHL1   C16  983   3.698   4.377   9.403 -0.2332 -0.0408 -0.4195
   14CHL1  H16A  984   3.667   4.285   9.350 -0.3213  0.6011 -1.5213
   14CHL1  H16B  985   3.672   4.467   9.344 -1.5030  1.9291  2.8588
   14CHL1   C17  986   3.861   4.367   9.414  0.0246  0.2804  0.8623
   14CHL1   H17  987   3.889   4.475   9.415 -2.6865  1.1598 -2.2323
   14CHL1   C13  988   3.888   4.308   9.550 -0.2382  0.1176 -0.4976
   14CHL1   C18  989   3.846   4.160   9.565 -0.1434  0.5330  0.4666
   14CHL1  H18A  990   3.921   4.105   9.505 -1.2169  0.4770 -0.8825
   14CHL1  H18B  991   3.848   4.130   9.672  1.1133  1.6362  0.7732
   14CHL1  H18C  992   3.749   4.127   9.522  0.0048  0.9353 -0.1929
   14CHL1   C12  993   4.028   4.343   9.615  0.4492 -0.1393 -0.5828
   14CHL1  H12A  994   4.113   4.281   9.578  1.2159 -0.4156  1.5322
   14CHL1  H12B  995   4.054   4.448   9.589  0.3429  0.3766  1.2835
   14CHL1   C11  996   4.028   4.308   9.766 -0.5060 -0.0281  0.5107
   14CHL1  H11A  997   4.025   4.197   9.777  1.1122 -0.0584  0.9578
   14CHL1  H11B  998   4.128   4.332   9.810 -0.3866  1.8543 -0.6840
   14CHL1    C9  999   3.912   4.381   9.846 -0.4947  0.6240 -0.3423
   14CHL1    H9 1000   3.923   4.491   9.838 -1.9143  0.8530  0.4656
   14CHL1   C10 1001   3.916   4.349  10.000  0.1347 -0.2624 -0.4759
   14CHL1   C19 1002   3.952   4.200  10.032  0.1893  0.3673 -0.5441
   14CHL1  H19A 1003   3.949   4.175  10.140  2.5678  1.8188 -0.0571
   14CHL1  H19B 1004   3.880   4.130   9.984 -0.5221  0.5983  0.1674
   14CHL1  H19C 1005   4.055   4.176   9.996  0.2835  2.4818 -1.8183
   14CHL1    C1 1006   4.027   4.440  10.058  0.6801  0.1069 -0.4218
   14CHL1   H1A 1007   4.125   4.408  10.015  0.0463 -0.6850 -1.3399
   14CHL1   H1B 1008   4.008   4.548  10.041  0.6981  0.1639 -0.0796
   14CHL1    C2 1009   4.045   4.432  10.213  0.0618  0.1217  0.1641
   14CHL1   H2A 1010   4.124   4.498  10.254  1.3447 -1.0766 -0.2838
   14CHL1   H2B 1011   4.067   4.331  10.255 -2.5603  0.5778  2.9782
   14CHL1   C20 1012   3.920   4.294   9.295 -0.1782 -0.0027  0.5113
   14CHL1   H20 1013   3.881   4.191   9.305  0.1030 -0.1404  0.2266
   14CHL1   C21 1014   4.069   4.286   9.294  0.0934 -0.2767  0.1850
   14CHL1  H21A 1015   4.108   4.390   9.289 -1.2898  0.2127 -1.1657
   14CHL1  H21B 1016   4.112   4.232   9.207 -1.1686  0.2958 -0.8190
   14CHL1  H21C 1017   4.100   4.243   9.392  2.3617  1.9101  0.5318
   14CHL1   C22 1018   3.873   4.355   9.157 -0.2352  0.8762 -0.1426
   14CHL1  H22A 1019   3.767   4.390   9.163 -0.4546  0.5196 -1.4977
   14CHL1  H22B 1020   3.934   4.448   9.148 -1.2028  1.7048  1.4472
   14CHL1   C23 1021   3.889   4.261   9.037  0.4300  0.5730  0.1242
   14CHL1  H23A 1022   3.844   4.301   8.943  2.0178 -0.4648 -1.1278
   14CHL1  H23B 1023   3.995   4.253   9.006  0.6753 -0.8326  1.2215
   14CHL1   C24 1024   3.814   4.130   9.064 -0.5300  0.3494 -0.2234
   14CHL1  H24A 1025   3.874   4.055   9.120 -1.2149 -0.3438 -0.3987
   14CHL1  H24B 1026   3.721   4.139   9.125  1.1473  3.1282  2.1913
   14CHL1   C25 1027   3.791   4.057   8.921  0.1584 -0.0426 -0.3434
   14CHL1   H25 1028   3.755   4.141   8.859  3.0482  0.3760 -1.6427
   14CHL1   C26 1029   3.927   4.021   8.864  0.2389  0.2243  0.4857
   14CHL1  H26A 1030   3.922   3.974   8.763  1.6356  0.7650  0.1386
   14CHL1  H26B 1031   3.992   4.111   8.853 -0.1481  0.4342 -0.1535
   14CHL1  H26C 1032   3.982   3.948   8.926  0.6204  1.1241  1.2370
   14CHL1   C27 1033   3.688   3.940   8.923 -0.3857 -0.3682 -0.5981
   14CHL1  H27A 1034   3.605   3.967   8.991  2.3613  0.2632  2.8221
   14CHL1  H27B 1035   3.666   3.920   8.816 -1.0366  1.8185 -0.9292
   14CHL1  H27C 1036   3.721   3.845   8.970  0.3003 -0.7310 -1.7697
   15CHL1    C3 1037   4.293   3.686  10.251  0.3158  0.0771 -0.3634
   15CHL1    H3 1038   4.342   3.594  10.213  1.6570  1.7661 -2.9868
   15CHL1    O3 1039   4.314   3.698  10.392  0.3310  0.5102  0.1092
   15CHL1   H3' 1040   4.224   3.682  10.424  1.3848 -5.0460  1.4259
   15CHL1    C4 1041   4.363   3.799  10.171 -0.1712  0.0816 -0.4074
   15CHL1   H4A 1042   4.319   3.899  10.190  0.5850  0.6084 -1.3418
   15CHL1   H4B 1043   4.469   3.805  10.204 -0.7713 -1.0666  1.9350
   15CHL1    C5 1044   4.359   3.773  10.022 -0.0005 -0.0548  0.6655
   15CHL1    C6 1045   4.473   3.755   9.956  0.1056 -0.3837 -0.3840
   15CHL1    H6 1046   4.571   3.755  10.007  0.0539 -1.1529 -0.2761
   15CHL1    C7 1047   4.479   3.727   9.804 -0.8499  0.1624 -0.2030
   15CHL1   H7A 1048   4.551   3.793   9.752 -1.3153  0.7899 -0.0664
   15CHL1   H7B 1049   4.516   3.623   9.790  1.2225  0.5654  1.7014
   15CHL1    C8 1050   4.342   3.763   9.732 -0.5009  0.0749  0.8200
   15CHL1    H8 1051   4.345   3.874   9.737 -0.7055  0.3303 -2.5386
   15CHL1   C14 1052   4.342   3.709   9.591 -0.5764 -0.5647  0.6861
   15CHL1   H14 1053   4.341   3.598   9.591  0.0404 -0.6048  2.3094
   15CHL1   C15 1054   4.467   3.724   9.500 -0.4342 -0.3783 -0.2292
   15CHL1  H15A 1055   4.493   3.832   9.504 -3.0778  0.2939  2.0750
   15CHL1  H15B 1056   4.545   3.651   9.530 -0.0327 -0.1389 -0.6688
   15CHL1   C16 1057   4.407   3.698   9.362  0.0905  0.4560  0.8217
   15CHL1  H16A 1058   4.432   3.778   9.289 -0.5175 -1.3387 -1.4479
   15CHL1  H16B 1059   4.452   3.604   9.323 -1.4309  0.0968 -0.1133
   15CHL1   C17 1060   4.255   3.683   9.372  0.6166  0.3881 -0.2608
   15CHL1   H17 1061   4.241   3.573   9.384  2.5736  0.3317  2.5347
   15CHL1   C13 1062   4.215   3.744   9.511  0.3989 -0.1011  0.1229
   15CHL1   C18 1063   4.192   3.899   9.488  0.4530  0.3042  0.4146
   15CHL1  H18A 1064   4.187   3.956   9.583 -2.4469  2.0351 -0.6383
   15CHL1  H18B 1065   4.280   3.926   9.425  0.7118 -2.1234 -0.3922
   15CHL1  H18C 1066   4.096   3.915   9.434 -0.8771 -4.6947  0.7785
   15CHL1   C12 1067   4.099   3.685   9.583 -0.1871  0.0541  0.0017
   15CHL1  H12A 1068   4.002   3.698   9.530 -0.1144 -1.9854 -0.7339
   15CHL1  H12B 1069   4.102   3.575   9.597 -3.1346  0.0424  1.5691
   15CHL1   C11 1070   4.087   3.733   9.722  0.0134  0.1999  0.1190
   15CHL1  H11A 1071   4.062   3.841   9.734  1.9989  0.7963 -0.5852
   15CHL1  H11B 1072   3.998   3.680   9.762 -0.1045  0.2377 -0.0948
   15CHL1    C9 1073   4.211   3.716   9.813 -0.4269 -0.4702  0.2825
   15CHL1    H9 1074   4.223   3.606   9.820 -0.4070 -0.6294 -1.7707
   15CHL1   C10 1075   4.217   3.766   9.960  0.0730 -0.1419 -0.2212
   15CHL1   C19 1076   4.148   3.900   9.961 -0.0387  0.5344 -0.2170
   15CHL1  H19A 1077   4.164   3.950  10.060 -0.4835  0.5912 -0.1722
   15CHL1  H19B 1078   4.193   3.973   9.891  0.0282  1.4739  0.7791
   15CHL1  H19C 1079   4.040   3.884   9.943  0.4208 -1.6942 -1.2829
   15CHL1    C1 1080   4.150   3.661  10.054  0.3488  0.7309  0.3800
   15CHL1   H1A 1081   4.041   3.656  10.033  0.2428  2.0950  0.5472
   15CHL1   H1B 1082   4.183   3.556  10.038  0.4505  1.0899 -2.0899
   15CHL1    C2 1083   4.150   3.676  10.206 -0.6726  0.7445  0.2365
   15CHL1   H2A 1084   4.111   3.581  10.248 -0.7062  0.7006  0.1046
   15CHL1   H2B 1085   4.093   3.765  10.242  0.4535  1.1879  0.9874
   15CHL1   C20 1086   4.191   3.731   9.241  0.4553 -0.0256 -0.0171
   15CHL1   H20 1087   4.213   3.839   9.226 -1.6457  0.8854  2.5621
   15CHL1   C21 1088   4.038   3.716   9.245  0.9224  0.2400  0.6089
   15CHL1  H21A 1089   3.985   3.811   9.269  0.0259  0.2512 -1.1840
   15CHL1  H21B 1090   3.996   3.639   9.314  2.0508 -2.1144 -1.1751
   15CHL1  H21C 1091   4.012   3.680   9.143  0.9441 -1.1211  1.0618
   15CHL1   C22 1092   4.246   3.662   9.106  0.1536  0.1146 -0.7894
   15CHL1  H22A 1093   4.355   3.644   9.115  0.5386  1.3822 -2.5123
   15CHL1  H22B 1094   4.185   3.571   9.085  0.8677 -0.4554 -0.4664
   15CHL1   C23 1095   4.227   3.751   8.989 -0.1041  0.6253  0.7022
   15CHL1  H23A 1096   4.121   3.780   8.975 -0.5425 -0.6325  1.2481
   15CHL1  H23B 1097   4.286   3.844   9.002  1.6007 -0.3282  0.1252
   15CHL1   C24 1098   4.278   3.699   8.861 -0.2241  0.1402  0.8674
   15CHL1  H24A 1099   4.388   3.705   8.846 -0.2220  0.0549  0.8478
   15CHL1  H24B 1100   4.253   3.591   8.853  0.5847 -0.2920  3.3537
   15CHL1   C25 1101   4.217   3.782   8.743 -0.0030 -0.1242 -0.2147
   15CHL1   H25 1102   4.108   3.786   8.764  0.2764  1.8584  1.1635
   15CHL1   C26 1103   4.256   3.931   8.749 -0.7272  0.0227  0.5603
   15CHL1  H26A 1104   4.366   3.935   8.763 -0.6081 -0.1245 -0.2993
   15CHL1  H26B 1105   4.219   3.990   8.663 -1.7623 -0.7106  0.4800
   15CHL1  H26C 1106   4.209   3.977   8.839 -2.3329 -2.1082  0.9031
   15CHL1   C27 1107   4.247   3.724   8.607  0.5577  0.9653  0.4589
   15CHL1  H27A 1108   4.182   3.775   8.532  0.1008  2.7895  2.0261
   15CHL1  H27B 1109   4.351   3.731   8.569 -0.0172  0.1830 -1.3918
   15CHL1  H27C 1110   4.216   3.617   8.614  1.0570  0.8677  1.3334
   16CHL1    C3 1111   5.203   4.088  10.310 -0.3155 -0.0549 -0.4568
   16CHL1    H3 1112   5.130   4.171  10.324 -0.8289  0.0376 -3.0503
   16CHL1    O3 1113   5.262   4.061  10.435 -0.1790  0.5076 -0.0833
   16CHL1   H3' 1114   5.322   3.990  10.411 -0.3094  1.0442 -2.1617
   16CHL1    C4 1115   5.115   3.965  10.265 -0.5661  0.0183 -0.0205
   16CHL1   H4A 1116   5.171   3.869  10.268  0.5701  0.6696  0.0956
   16CHL1   H4B 1117   5.038   3.947  10.343 -0.7803  0.6920 -0.0707
   16CHL1    C5 1118   5.045   3.984  10.128 -0.2923  0.4084  0.2794
   16CHL1    C6 1119   4.911   3.992  10.102 -0.2315  0.6396  0.2886
   16CHL1    H6 1120   4.838   3.978  10.182 -0.5790 -1.8229 -0.3737
   16CHL1    C7 1121   4.862   3.993   9.962  0.4601 -0.7468  0.2547
   16CHL1   H7A 1122   4.781   3.918   9.953  0.6160 -0.6897 -2.0139
   16CHL1   H7B 1123   4.815   4.092   9.941  0.9003 -0.7019 -0.5286
   16CHL1    C8 1124   4.970   3.954   9.855  0.3299 -0.6569 -0.7113
   16CHL1    H8 1125   4.996   3.846   9.863  2.8863  0.0179  2.3632
   16CHL1   C14 1126   4.920   3.992   9.714  0.2151  0.1341 -0.4835
   16CHL1   H14 1127   4.908   4.102   9.720  0.9249  0.2212 -0.5412
   16CHL1   C15 1128   4.796   3.930   9.669 -0.3180  0.2558 -0.6619
   16CHL1  H15A 1129   4.798   3.823   9.698 -0.9685  0.0039 -1.4991
   16CHL1  H15B 1130   4.710   3.982   9.716  1.9564  3.4214  0.3112
   16CHL1   C16 1131   4.793   3.946   9.519 -0.2204 -0.0016  0.4625
   16CHL1  H16A 1132   4.785   3.851   9.462 -0.0124  0.6943 -0.7580
   16CHL1  H16B 1133   4.707   4.009   9.485  0.3017  0.5625  0.1654
   16CHL1   C17 1134   4.931   4.007   9.483 -0.3046  0.2371 -0.6612
   16CHL1   H17 1135   4.921   4.118   9.486 -1.4941  0.1410  1.2243
   16CHL1   C13 1136   5.022   3.974   9.605 -0.6621 -0.2148  0.4881
   16CHL1   C18 1137   5.069   3.829   9.597 -0.2928 -0.4273 -0.5345
   16CHL1  H18A 1138   5.159   3.829   9.532 -0.1599 -0.7317 -0.3593
   16CHL1  H18B 1139   5.091   3.779   9.694 -0.9825 -0.0054 -0.1496
   16CHL1  H18C 1140   4.993   3.764   9.549  0.8775 -2.9593  0.8302
   16CHL1   C12 1141   5.140   4.070   9.632 -0.3344  0.4968 -0.2213
   16CHL1  H12A 1142   5.218   4.055   9.555  1.0193 -1.8067  1.4607
   16CHL1  H12B 1143   5.105   4.175   9.617 -3.1839 -0.3183  0.0585
   16CHL1   C11 1144   5.199   4.049   9.773 -0.0181  0.2186 -0.1492
   16CHL1  H11A 1145   5.247   3.949   9.782  0.5283  0.5198  0.4189
   16CHL1  H11B 1146   5.274   4.129   9.792 -0.5023  0.5070  0.6138
   16CHL1    C9 1147   5.091   4.045   9.888  0.2750 -0.1609 -0.2241
   16CHL1    H9 1148   5.045   4.146   9.893 -0.3273 -0.4464  0.0464
   16CHL1   C10 1149   5.151   4.005  10.023 -0.4070 -0.1535 -0.8539
   16CHL1   C19 1150   5.239   3.879  10.014  0.2047  0.3452 -0.5158
   16CHL1  H19A 1151   5.173   3.791   9.997  1.2667 -0.7454  0.7663
   16CHL1  H19B 1152   5.328   3.894   9.949  0.4537  1.3740  0.0390
   16CHL1  H19C 1153   5.280   3.855  10.114  0.4602  1.5158 -0.3281
   16CHL1    C1 1154   5.243   4.129  10.065 -0.0743 -0.0392 -1.0803
   16CHL1   H1A 1155   5.336   4.135  10.005  1.2201  1.1217  0.9235
   16CHL1   H1B 1156   5.186   4.224  10.049 -0.3432  0.1197  0.6259
   16CHL1    C2 1157   5.310   4.108  10.206  0.5257 -0.1063 -0.9952
   16CHL1   H2A 1158   5.368   4.197  10.239 -1.2482  0.2009  1.5521
   16CHL1   H2B 1159   5.380   4.022  10.203 -0.3729 -0.8818 -4.6820
   16CHL1   C20 1160   4.969   3.975   9.342  0.6306 -0.1758 -0.6687
   16CHL1   H20 1161   4.971   3.864   9.332 -0.5921 -0.0273 -3.0955
   16CHL1   C21 1162   5.105   4.038   9.302 -0.4383 -0.3516 -0.0909
   16CHL1  H21A 1163   5.137   4.005   9.201  1.4737 -0.0585  0.3887
   16CHL1  H21B 1164   5.190   4.014   9.369 -0.6297  3.4398  1.7588
   16CHL1  H21C 1165   5.095   4.148   9.311  1.5311 -0.2889  2.5292
   16CHL1   C22 1166   4.860   4.019   9.242  0.4789 -0.3468  0.3077
   16CHL1  H22A 1167   4.764   3.972   9.269  1.1592 -1.8444  0.2142
   16CHL1  H22B 1168   4.844   4.129   9.236 -1.4442 -0.6852 -2.1309
   16CHL1   C23 1169   4.885   3.973   9.102 -0.6443  0.0281  0.5324
   16CHL1  H23A 1170   4.967   4.040   9.071 -0.0689  0.1629  2.2339
   16CHL1  H23B 1171   4.910   3.865   9.100  0.3934  0.2587  0.5563
   16CHL1   C24 1172   4.767   3.976   9.008  0.2174 -0.6740  0.5817
   16CHL1  H24A 1173   4.784   3.912   8.918  0.3135 -0.7252  0.6352
   16CHL1  H24B 1174   4.670   3.946   9.052  0.1275 -1.1059  0.0945
   16CHL1   C25 1175   4.748   4.120   8.947  0.9484  0.1591  0.6032
   16CHL1   H25 1176   4.751   4.198   9.027  1.4642 -0.4691  1.2115
   16CHL1   C26 1177   4.862   4.155   8.850  0.0748 -0.4855 -0.6724
   16CHL1  H26A 1178   4.955   4.183   8.904 -0.6515 -0.5296  0.6498
   16CHL1  H26B 1179   4.878   4.070   8.780 -4.0879 -0.9170 -1.3504
   16CHL1  H26C 1180   4.838   4.242   8.786  0.1293  1.7582  2.1946
   16CHL1   C27 1181   4.613   4.120   8.867 -0.8496  0.2481 -0.1813
   16CHL1  H27A 1182   4.526   4.118   8.936 -0.3737  0.6260  0.4416
   16CHL1  H27B 1183   4.611   4.211   8.803  0.3028  1.2036  1.0605
   16CHL1  H27C 1184   4.611   4.023   8.814 -0.3564  0.2833 -0.2731
   17CHL1    C3 1185   2.604   6.559  10.346  0.4985  0.3943 -0.1831
   17CHL1    H3 1186   2.513   6.505  10.311  2.0940 -2.4028 -0.3638
   17CHL1    O3 1187   2.607   6.576  10.481  0.5654  0.3699 -0.5275
   17CHL1   H3' 1188   2.657   6.658  10.488  0.7748  0.4294 -2.2823
   17CHL1    C4 1189   2.720   6.487  10.286  0.3724  0.1339  0.3536
   17CHL1   H4A 1190   2.814   6.538  10.316 -1.1790  3.2810  0.2717
   17CHL1   H4B 1191   2.709   6.382  10.321 -2.5476 -0.2216 -1.3245
   17CHL1    C5 1192   2.726   6.487  10.134  0.2207 -0.6083  0.3693
   17CHL1    C6 1193   2.742   6.370  10.063  1.0135 -0.6483  0.5656
   17CHL1    H6 1194   2.754   6.272  10.113  0.7816 -0.4606  0.9873
   17CHL1    C7 1195   2.735   6.366   9.912 -0.1134 -1.2248 -0.2432
   17CHL1   H7A 1196   2.820   6.308   9.870  0.8099 -0.6132  0.7070
   17CHL1   H7B 1197   2.648   6.303   9.882 -0.1938 -1.9516  1.4000
   17CHL1    C8 1198   2.742   6.506   9.842  0.7396  0.6048  0.5127
   17CHL1    H8 1199   2.844   6.549   9.850  0.4689  1.9407 -2.1021
   17CHL1   C14 1200   2.704   6.489   9.691 -0.8505  0.4352 -0.1484
   17CHL1   H14 1201   2.600   6.451   9.690 -0.4975 -0.8021  2.0527
   17CHL1   C15 1202   2.779   6.378   9.611 -0.2318 -0.4988  0.3019
   17CHL1  H15A 1203   2.889   6.387   9.623 -0.2447  0.0618  0.0243
   17CHL1  H15B 1204   2.750   6.273   9.631 -1.0655 -0.0808  1.3623
   17CHL1   C16 1205   2.745   6.422   9.465  0.1392  0.2889 -0.1110
   17CHL1  H16A 1206   2.838   6.442   9.409 -1.1550  1.5970 -1.9340
   17CHL1  H16B 1207   2.680   6.358   9.401  2.2845 -1.9951 -0.1337
   17CHL1   C17 1208   2.676   6.565   9.471  0.0749  0.6140 -0.4429
   17CHL1   H17 1209   2.568   6.544   9.481  0.6634 -2.9783 -0.2874
   17CHL1   C13 1210   2.714   6.617   9.607  0.1066  0.1568 -0.8962
   17CHL1   C18 1211   2.863   6.660   9.608  0.1750  0.3221  0.3319
   17CHL1  H18A 1212   2.938   6.593   9.559 -1.0453 -0.4206 -0.5806
   17CHL1  H18B 1213   2.868   6.763   9.566  1.7478  0.0686 -0.2071
   17CHL1  H18C 1214   2.894   6.681   9.712  1.8804 -3.2543  0.7102
   17CHL1   C12 1215   2.609   6.719   9.670 -0.4701  0.4087 -0.6744
   17CHL1  H12A 1216   2.615   6.824   9.632  2.2019  0.6181  0.1209
   17CHL1  H12B 1217   2.507   6.675   9.666 -0.1089 -0.4200 -1.1136
   17CHL1   C11 1218   2.635   6.735   9.821  0.1153 -0.4917  0.1879
   17CHL1  H11A 1219   2.724   6.802   9.815 -0.6934  0.6165  0.3738
   17CHL1  H11B 1220   2.552   6.797   9.860  1.6566  2.0695 -0.3734
   17CHL1    C9 1221   2.652   6.607   9.907 -0.0900 -0.0081 -0.3627
   17CHL1    H9 1222   2.551   6.561   9.907 -0.4911  0.8570 -0.1724
   17CHL1   C10 1223   2.690   6.626  10.063  0.0079 -0.8343  0.6647
   17CHL1   C19 1224   2.811   6.723  10.071  0.5579 -0.3721 -0.0127
   17CHL1  H19A 1225   2.855   6.720  10.173  2.0723  2.3155 -0.4968
   17CHL1  H19B 1226   2.884   6.683   9.997  0.8208 -0.9602  0.5523
   17CHL1  H19C 1227   2.783   6.827  10.046  0.5047 -0.8291 -1.9762
   17CHL1    C1 1228   2.575   6.692  10.138 -0.2821  0.7587 -0.0596
   17CHL1   H1A 1229   2.571   6.798  10.104 -1.3748  0.5107 -0.7268
   17CHL1   H1B 1230   2.475   6.653  10.110  0.0805  0.1534 -0.5273
   17CHL1    C2 1231   2.583   6.701  10.293 -0.3056 -0.0897 -0.3132
   17CHL1   H2A 1232   2.488   6.744  10.331 -0.2594 -1.6979  1.8810
   17CHL1   H2B 1233   2.661   6.773  10.324 -1.0893  1.0911 -1.0279
   17CHL1   C20 1234   2.706   6.649   9.345  0.2950  0.3300 -0.3222
   17CHL1   H20 1235   2.817   6.650   9.345  0.3025  0.4708  0.7667
   17CHL1   C21 1236   2.654   6.789   9.355 -0.2694  0.5699 -0.6847
   17CHL1  H21A 1237   2.676   6.852   9.266 -3.7084  1.3954 -1.1104
   17CHL1  H21B 1238   2.697   6.839   9.444 -0.0497  0.4004 -0.6962
   17CHL1  H21C 1239   2.543   6.784   9.365 -0.1979 -0.5127 -0.2362
   17CHL1   C22 1240   2.668   6.576   9.210  0.3222 -1.0029 -0.6001
   17CHL1  H22A 1241   2.720   6.478   9.218 -1.7814 -2.1014  0.2578
   17CHL1  H22B 1242   2.560   6.552   9.199  0.7046 -2.7429 -0.8696
   17CHL1   C23 1243   2.708   6.654   9.085 -0.4001  0.1795  0.5351
   17CHL1  H23A 1244   2.636   6.738   9.076 -0.4402  0.3372  2.1289
   17CHL1  H23B 1245   2.805   6.709   9.093 -0.4728  0.4832 -0.5187
   17CHL1   C24 1246   2.691   6.562   8.961 -0.2281  0.7465 -0.5256
   17CHL1  H24A 1247   2.737   6.463   8.980 -1.7281  0.0080 -0.5311
   17CHL1  H24B 1248   2.583   6.540   8.941 -0.0316 -0.5874 -0.2116
   17CHL1   C25 1249   2.745   6.613   8.831 -0.3713  0.1438  0.3000
   17CHL1   H25 1250   2.850   6.636   8.857  0.6180 -2.7400 -0.6839
   17CHL1   C26 1251   2.744   6.502   8.729 -0.2601  0.5398 -0.3420
   17CHL1  H26A 1252   2.789   6.541   8.635  1.9840 -0.1505  0.3873
   17CHL1  H26B 1253   2.810   6.421   8.768 -2.2352 -0.3931  1.2673
   17CHL1  H26C 1254   2.646   6.457   8.702  0.5172 -0.3684 -1.7858
   17CHL1   C27 1255   2.669   6.740   8.787  0.3115 -0.0489 -0.2706
   17CHL1  H27A 1256   2.695   6.836   8.836 -1.9038  0.6204 -0.2973
   17CHL1  H27B 1257   2.677   6.743   8.676 -2.5449 -0.9438 -0.5827
   17CHL1  H27C 1258   2.561   6.716   8.794  0.3239  0.0217  0.1530
   18CHL1    C3 1259   6.287   6.404  10.157  0.8935  0.0601 -0.5666
   18CHL1    H3 1260   6.360   6.486  10.136  0.4893  0.4060 -0.6351
   18CHL1    O3 1261   6.252   6.411  10.297  0.0806 -0.1835 -0.2194
   18CHL1   H3' 1262   6.263   6.318  10.318 -1.8858  0.0132  2.1802
   18CHL1    C4 1263   6.158   6.416  10.065  0.0991  0.1850  0.1099
   18CHL1   H4A 1264   6.076   6.347  10.094  0.3925 -0.4081 -0.4637
   18CHL1   H4B 1265   6.120   6.517  10.094 -1.6770  0.2365 -2.1131
   18CHL1    C5 1266   6.186   6.393   9.923 -0.3690  0.5247  0.7663
   18CHL1    C6 1267   6.157   6.494   9.838 -0.1642  0.7686  0.3834
   18CHL1    H6 1268   6.108   6.584   9.880  0.8203  0.0415  3.3873
   18CHL1    C7 1269   6.175   6.487   9.692 -0.0780  0.5005 -0.1564
   18CHL1   H7A 1270   6.082   6.524   9.644 -1.5406 -2.2587  0.3570
   18CHL1   H7B 1271   6.261   6.545   9.652 -0.8519  0.6456 -1.6616
   18CHL1    C8 1272   6.197   6.340   9.640  0.0430 -0.3225 -0.2554
   18CHL1    H8 1273   6.096   6.296   9.637  0.0003 -0.3035  0.5522
   18CHL1   C14 1274   6.262   6.347   9.505 -0.7465 -0.0851 -0.5233
   18CHL1   H14 1275   6.368   6.375   9.519 -0.8733 -0.5587  1.6905
   18CHL1   C15 1276   6.209   6.439   9.394  0.2223 -0.3720 -0.3367
   18CHL1  H15A 1277   6.102   6.431   9.368 -0.4753  0.0106  2.1245
   18CHL1  H15B 1278   6.237   6.543   9.421  0.3859 -0.8367  1.3944
   18CHL1   C16 1279   6.276   6.386   9.264 -0.3573  0.3628  0.0927
   18CHL1  H16A 1280   6.195   6.384   9.188 -1.0523  0.9011  0.8057
   18CHL1  H16B 1281   6.360   6.451   9.232  1.6740 -1.5784  1.1419
   18CHL1   C17 1282   6.332   6.244   9.300  0.1972 -0.1447 -0.6243
   18CHL1   H17 1283   6.440   6.253   9.325 -0.1913 -1.8637  2.0705
   18CHL1   C13 1284   6.276   6.212   9.441  0.6871  0.1330 -0.2412
   18CHL1   C18 1285   6.138   6.144   9.415 -0.1253 -0.7294 -0.2308
   18CHL1  H18A 1286   6.150   6.041   9.377 -1.4429 -2.1750  2.9467
   18CHL1  H18B 1287   6.082   6.121   9.508  0.0505  1.5757  0.5315
   18CHL1  H18C 1288   6.078   6.208   9.347  0.0186  1.8342  1.8943
   18CHL1   C12 1289   6.365   6.119   9.531 -0.3181 -0.2425 -0.1986
   18CHL1  H12A 1290   6.374   6.019   9.483  1.2582 -0.0669 -0.3278
   18CHL1  H12B 1291   6.468   6.160   9.535 -0.6824  0.8798 -1.3916
   18CHL1   C11 1292   6.305   6.105   9.674  0.0149 -0.4530  0.8208
   18CHL1  H11A 1293   6.203   6.060   9.667  0.1472 -0.5320 -1.5025
   18CHL1  H11B 1294   6.369   6.049   9.745 -0.5674  0.9970  2.5805
   18CHL1    C9 1295   6.288   6.251   9.734  0.1440 -0.3985  0.1591
   18CHL1    H9 1296   6.380   6.309   9.713 -0.1839  1.1962  2.6333
   18CHL1   C10 1297   6.249   6.258   9.886  0.7005  0.0974  0.1898
   18CHL1   C19 1298   6.152   6.145   9.921  0.3389 -0.2901 -0.3532
   18CHL1  H19A 1299   6.059   6.161   9.862  1.1397 -0.6075 -1.7367
   18CHL1  H19B 1300   6.202   6.047   9.906  1.3269 -0.3763  2.7916
   18CHL1  H19C 1301   6.118   6.155  10.026  1.9340  0.6237  0.1028
   18CHL1    C1 1302   6.375   6.253   9.974 -1.2598  0.6681 -0.0140
   18CHL1   H1A 1303   6.436   6.164   9.949  1.5239  2.7097 -0.9204
   18CHL1   H1B 1304   6.436   6.336   9.934 -0.0985 -0.6502 -1.1001
   18CHL1    C2 1305   6.354   6.272  10.127  0.6708  0.3141 -0.6392
   18CHL1   H2A 1306   6.454   6.260  10.174 -0.0218  0.0594  0.8273
   18CHL1   H2B 1307   6.289   6.189  10.161 -0.4881  1.1933 -0.6502
   18CHL1   C20 1308   6.323   6.145   9.181 -0.0556 -0.4042  0.2067
   18CHL1   H20 1309   6.215   6.129   9.164 -0.1337  0.4536 -0.1472
   18CHL1   C21 1310   6.381   6.012   9.219  0.2463  0.4051 -0.1016
   18CHL1  H21A 1311   6.377   5.940   9.135 -2.0115  0.9110 -0.4922
   18CHL1  H21B 1312   6.321   5.955   9.292 -1.8830 -0.9750 -2.7699
   18CHL1  H21C 1313   6.485   6.023   9.258  0.0861  1.0852  0.1468
   18CHL1   C22 1314   6.387   6.205   9.059  0.0348  0.5432  0.8385
   18CHL1  H22A 1315   6.336   6.301   9.036  0.0387  0.6136  1.1309
   18CHL1  H22B 1316   6.497   6.220   9.057  0.0950  0.2331 -1.3133
   18CHL1   C23 1317   6.353   6.121   8.932 -0.5918  0.3393  0.3718
   18CHL1  H23A 1318   6.393   6.019   8.945 -0.3817  0.5190  1.1686
   18CHL1  H23B 1319   6.243   6.110   8.933 -0.6407  0.7402 -0.3045
   18CHL1   C24 1320   6.399   6.179   8.796  0.2393 -0.5709 -0.3757
   18CHL1  H24A 1321   6.358   6.279   8.771  2.9217  0.2831 -1.6324
   18CHL1  H24B 1322   6.507   6.193   8.813 -0.0815  1.0307  0.5502
   18CHL1   C25 1323   6.377   6.093   8.672 -0.3978  0.5129  0.0938
   18CHL1   H25 1324   6.408   5.989   8.697 -0.1712  0.7675  0.9120
   18CHL1   C26 1325   6.230   6.090   8.625 -0.3276  0.5593  0.4246
   18CHL1  H26A 1326   6.160   6.061   8.706 -0.3655  0.9645  0.5388
   18CHL1  H26B 1327   6.192   6.193   8.608 -1.6416  0.4086  2.1248
   18CHL1  H26C 1328   6.222   6.041   8.525  0.9576  1.0972  0.0307
   18CHL1   C27 1329   6.474   6.132   8.562  0.0629  0.1057 -0.9033
   18CHL1  H27A 1330   6.452   6.085   8.464 -0.7146  4.6624 -3.1950
   18CHL1  H27B 1331   6.466   6.243   8.563 -0.5559  0.2355  3.7164
   18CHL1  H27C 1332   6.581   6.125   8.590 -0.0263 -1.9636 -0.9597
   19CHL1    C3 1333   5.557   3.004  10.150  0.9466 -0.3171  0.5721
   19CHL1    H3 1334   5.469   3.067  10.172  1.0969  0.3296 -0.6042
   19CHL1    O3 1335   5.606   2.951  10.269  0.1476  0.2260  0.2745
   19CHL1   H3' 1336   5.663   2.879  10.241 -0.1135  0.1970 -0.2042
   19CHL1    C4 1337   5.513   2.897  10.057  0.2791  0.0917  0.2116
   19CHL1   H4A 1338   5.592   2.819  10.060  1.8086  1.5901  0.5240
   19CHL1   H4B 1339   5.413   2.866  10.095 -0.5815  1.1829 -1.0653
   19CHL1    C5 1340   5.487   2.928   9.911 -0.6232 -0.2279 -0.0014
   19CHL1    C6 1341   5.368   2.897   9.846  0.1317  0.3078  0.0886
   19CHL1    H6 1342   5.282   2.850   9.895  1.7592 -0.3402  2.4972
   19CHL1    C7 1343   5.341   2.933   9.702 -0.2356 -0.2434  0.0155
   19CHL1   H7A 1344   5.298   2.851   9.641  1.5232  0.5091 -2.3845
   19CHL1   H7B 1345   5.258   3.007   9.706  1.7632  2.2818 -1.4331
   19CHL1    C8 1346   5.472   2.968   9.631  0.3683  0.2075  0.1927
   19CHL1    H8 1347   5.526   2.873   9.610 -1.4620 -0.6316 -1.0387
   19CHL1   C14 1348   5.439   3.018   9.489 -0.4365  0.4304 -0.2619
   19CHL1   H14 1349   5.381   3.111   9.508 -2.3180 -0.9640  1.2334
   19CHL1   C15 1350   5.346   2.936   9.397  0.9232 -0.0954  0.1878
   19CHL1  H15A 1351   5.377   2.830   9.403 -0.9305 -0.5687  5.0778
   19CHL1  H15B 1352   5.237   2.940   9.418  1.1942  2.0873  1.5159
   19CHL1   C16 1353   5.369   3.006   9.263  0.7870 -0.2468 -0.4861
   19CHL1  H16A 1354   5.388   2.924   9.190  3.2533  0.0908 -0.3208
   19CHL1  H16B 1355   5.280   3.067   9.238 -1.6006 -1.9456  3.0696
   19CHL1   C17 1356   5.490   3.106   9.276 -0.4786 -0.7307 -0.8402
   19CHL1   H17 1357   5.450   3.205   9.304  1.9230  0.9102 -2.7980
   19CHL1   C13 1358   5.562   3.057   9.400 -0.5430 -0.0115  0.4993
   19CHL1   C18 1359   5.636   2.930   9.366  0.2014 -0.1835 -0.4281
   19CHL1  H18A 1360   5.734   2.948   9.317 -0.1384 -0.0257 -1.0608
   19CHL1  H18B 1361   5.659   2.869   9.456 -1.4844 -1.0349 -0.5334
   19CHL1  H18C 1362   5.584   2.861   9.296  1.5954 -1.5525 -0.1568
   19CHL1   C12 1363   5.636   3.163   9.483 -0.2257 -0.1708  0.1437
   19CHL1  H12A 1364   5.730   3.186   9.429  0.3334 -1.6280  0.4427
   19CHL1  H12B 1365   5.568   3.250   9.495 -1.1406 -0.4497 -2.4613
   19CHL1   C11 1366   5.669   3.118   9.631  0.4649 -0.5456  0.4503
   19CHL1  H11A 1367   5.759   3.056   9.608  0.2360 -0.2341 -1.4145
   19CHL1  H11B 1368   5.710   3.203   9.689  0.5178 -0.5162  0.3710
   19CHL1    C9 1369   5.555   3.065   9.713 -0.7166  0.0292 -0.2647
   19CHL1    H9 1370   5.488   3.149   9.739  0.8108  1.4950 -0.9313
   19CHL1   C10 1371   5.602   3.002   9.851 -0.2026 -0.0520  0.7521
   19CHL1   C19 1372   5.719   2.913   9.833 -0.0141  0.3738  0.4361
   19CHL1  H19A 1373   5.693   2.836   9.757 -1.2057  1.9021 -0.7746
   19CHL1  H19B 1374   5.809   2.962   9.790  0.4284  0.3110  1.2640
   19CHL1  H19C 1375   5.759   2.864   9.924 -0.8073  0.9388  1.1055
   19CHL1    C1 1376   5.643   3.117   9.946 -0.3938  0.2189 -0.1988
   19CHL1   H1A 1377   5.738   3.166   9.916 -0.6542 -0.0216 -1.4367
   19CHL1   H1B 1378   5.561   3.192   9.943  0.2497  0.9863  0.8054
   19CHL1    C2 1379   5.666   3.077  10.095 -0.2145 -0.6942  0.0522
   19CHL1   H2A 1380   5.687   3.177  10.138 -0.7359 -0.2987 -0.5877
   19CHL1   H2B 1381   5.761   3.020  10.097  0.4932  0.4524  0.0190
   19CHL1   C20 1382   5.561   3.132   9.143  0.3213  0.2105  0.7774
   19CHL1   H20 1383   5.601   3.030   9.128  1.2542  0.4011  1.8250
   19CHL1   C21 1384   5.678   3.231   9.155  0.3417 -0.2450  0.1945
   19CHL1  H21A 1385   5.723   3.234   9.054  1.2460  0.8389  0.6158
   19CHL1  H21B 1386   5.756   3.193   9.225  1.4936  0.3508 -0.7336
   19CHL1  H21C 1387   5.647   3.334   9.181  0.9474 -0.1277  0.4758
   19CHL1   C22 1388   5.469   3.166   9.019 -0.5196 -0.1931 -0.3479
   19CHL1  H22A 1389   5.375   3.109   9.036 -0.3751 -0.0552  0.9911
   19CHL1  H22B 1390   5.433   3.272   9.015 -1.1905 -0.4365 -1.2161
   19CHL1   C23 1391   5.513   3.119   8.881 -0.0167 -0.0479 -0.3929
   19CHL1  H23A 1392   5.608   3.170   8.852  1.4041 -2.1528  0.3596
   19CHL1  H23B 1393   5.537   3.011   8.880  1.2129  0.1634 -2.5464
   19CHL1   C24 1394   5.405   3.138   8.772 -0.3865 -0.7442  0.1528
   19CHL1  H24A 1395   5.437   3.082   8.681  0.1378 -0.7215  0.3241
   19CHL1  H24B 1396   5.313   3.092   8.812 -1.2764  0.8689  0.0573
   19CHL1   C25 1397   5.376   3.294   8.741  0.1752  0.7935  0.4810
   19CHL1   H25 1398   5.358   3.346   8.838  0.8482  0.9004  0.5576
   19CHL1   C26 1399   5.505   3.356   8.679  0.3289 -0.0011  0.1507
   19CHL1  H26A 1400   5.581   3.364   8.759 -0.2881  4.2490  0.5667
   19CHL1  H26B 1401   5.549   3.290   8.601 -0.7769 -0.7753  0.1553
   19CHL1  H26C 1402   5.483   3.458   8.640  3.7702  0.1859 -1.6379
   19CHL1   C27 1403   5.262   3.319   8.647  0.5177  0.1245 -0.4939
   19CHL1  H27A 1404   5.275   3.286   8.541  0.9720  0.7196 -0.6292
   19CHL1  H27B 1405   5.176   3.270   8.696  0.7199 -1.2481 -1.4478
   19CHL1  H27C 1406   5.247   3.429   8.641  1.2767  0.2508 -0.2058
   20CHL1    C3 1407   6.144   4.307  10.202  0.7212  0.9083  0.5995
   20CHL1    H3 1408   6.252   4.281  10.199  0.5325  0.1375 -0.0969
   20CHL1    O3 1409   6.110   4.291  10.335 -0.1060 -1.1841  0.4082
   20CHL1   H3' 1410   6.015   4.294  10.345 -0.2211 -1.0071 -0.6189
   20CHL1    C4 1411   6.133   4.454  10.153 -1.4650  0.4044 -0.2844
   20CHL1   H4A 1412   6.028   4.483  10.178 -1.1046  1.5083  0.0018
   20CHL1   H4B 1413   6.207   4.505  10.218  0.3260  0.0726 -1.9928
   20CHL1    C5 1414   6.157   4.479  10.009  0.4856 -0.8217 -0.0787
   20CHL1    C6 1415   6.251   4.575   9.972  0.2473 -0.4374  0.2832
   20CHL1    H6 1416   6.286   4.648  10.046 -2.3702 -0.5106  1.7148
   20CHL1    C7 1417   6.287   4.596   9.830 -0.3859  0.4149  0.3242
   20CHL1   H7A 1418   6.287   4.707   9.827  0.3706  0.4255  0.5544
   20CHL1   H7B 1419   6.390   4.563   9.806 -0.1494 -1.5227  3.4058
   20CHL1    C8 1420   6.192   4.530   9.724  0.1020 -0.0608 -0.2695
   20CHL1    H8 1421   6.101   4.594   9.727  0.5481  0.6157 -0.9010
   20CHL1   C14 1422   6.251   4.545   9.581 -0.5784 -0.4320 -0.1619
   20CHL1   H14 1423   6.345   4.486   9.585 -0.3276  0.0113  1.0686
   20CHL1   C15 1424   6.307   4.676   9.517 -0.2788 -0.0691  0.8635
   20CHL1  H15A 1425   6.241   4.763   9.540 -1.3413 -0.0951 -1.6858
   20CHL1  H15B 1426   6.412   4.697   9.548 -0.3232  0.1130  0.8930
   20CHL1   C16 1427   6.309   4.641   9.360 -0.0362 -0.2453 -1.2979
   20CHL1  H16A 1428   6.241   4.713   9.308 -1.8279  0.4374  1.7443
   20CHL1  H16B 1429   6.404   4.648   9.302 -0.9124  2.1751 -2.6175
   20CHL1   C17 1430   6.255   4.493   9.348  0.7793 -0.3456 -0.8388
   20CHL1   H17 1431   6.341   4.424   9.360  1.5240  0.7153  0.0893
   20CHL1   C13 1432   6.169   4.463   9.482 -0.4348 -0.1440  0.7404
   20CHL1   C18 1433   6.031   4.523   9.471  0.1087  0.3717 -0.2473
   20CHL1  H18A 1434   5.973   4.473   9.390  0.6315  1.5517 -1.3900
   20CHL1  H18B 1435   5.970   4.523   9.564  0.3969 -1.1962 -0.0433
   20CHL1  H18C 1436   6.042   4.630   9.442 -0.3783  0.0309 -1.8208
   20CHL1   C12 1437   6.170   4.317   9.526  0.0556  0.4452  0.1307
   20CHL1  H12A 1438   6.115   4.265   9.445 -0.3283 -0.9227  1.2356
   20CHL1  H12B 1439   6.275   4.285   9.541 -0.2905 -1.8311 -1.7552
   20CHL1   C11 1440   6.095   4.295   9.659 -0.3675  0.6703  0.0632
   20CHL1  H11A 1441   5.991   4.321   9.633 -0.1750 -1.1422 -2.9354
   20CHL1  H11B 1442   6.095   4.187   9.683  0.8631  0.6806  0.1869
   20CHL1    C9 1443   6.160   4.387   9.770  0.5024  0.4216 -0.4356
   20CHL1    H9 1444   6.261   4.342   9.782  1.1534  1.3690 -2.0720
   20CHL1   C10 1445   6.096   4.383   9.912 -0.5706  0.7174 -0.1062
   20CHL1   C19 1446   5.943   4.418   9.906 -0.2465  0.6051 -0.4470
   20CHL1  H19A 1447   5.896   4.337   9.847  1.2906  1.4830 -3.0384
   20CHL1  H19B 1448   5.904   4.410  10.010 -0.3488  1.4654 -0.4077
   20CHL1  H19C 1449   5.918   4.516   9.861  1.3697  0.3707 -1.9801
   20CHL1    C1 1450   6.116   4.239   9.966  0.4660  0.2264  0.5967
   20CHL1   H1A 1451   6.062   4.161   9.907  1.1623 -1.9006  2.6365
   20CHL1   H1B 1452   6.226   4.228   9.959  0.7048  2.3240  0.3525
   20CHL1    C2 1453   6.065   4.214  10.107 -0.0391 -0.2962  0.1578
   20CHL1   H2A 1454   6.079   4.107  10.133 -1.4343 -0.4190  0.4977
   20CHL1   H2B 1455   5.955   4.227  10.116  0.0005  1.5088 -1.3222
   20CHL1   C20 1456   6.201   4.479   9.206 -0.6297  0.4797  0.3451
   20CHL1   H20 1457   6.105   4.534   9.200  0.2238  2.4858  2.8289
   20CHL1   C21 1458   6.170   4.326   9.179  0.2316 -0.8573  0.2802
   20CHL1  H21A 1459   6.258   4.272   9.220  2.0087  2.0747  0.5620
   20CHL1  H21B 1460   6.132   4.295   9.079  0.5844  0.3820 -0.2458
   20CHL1  H21C 1461   6.079   4.317   9.242  0.6929 -1.6961  0.8530
   20CHL1   C22 1462   6.296   4.523   9.095  0.5688  0.5268  0.2762
   20CHL1  H22A 1463   6.359   4.612   9.116  0.4694  0.8494 -0.7232
   20CHL1  H22B 1464   6.375   4.446   9.079  0.3721  0.2979  0.4053
   20CHL1   C23 1465   6.223   4.544   8.963 -0.2097  0.6284 -0.3850
   20CHL1  H23A 1466   6.180   4.450   8.923 -2.5367  1.3068  0.3221
   20CHL1  H23B 1467   6.129   4.603   8.974 -0.0462  0.4788  2.5941
   20CHL1   C24 1468   6.310   4.609   8.858  0.0899  1.0007  0.1034
   20CHL1  H24A 1469   6.255   4.632   8.764 -0.7839  0.7669  0.5525
   20CHL1  H24B 1470   6.332   4.709   8.899 -1.9269  1.0406  1.2154
   20CHL1   C25 1471   6.438   4.527   8.809 -0.2778  0.3365 -0.2630
   20CHL1   H25 1472   6.505   4.503   8.894 -2.8321  1.2676  2.1747
   20CHL1   C26 1473   6.390   4.408   8.722  0.2907 -0.0132 -0.3608
   20CHL1  H26A 1474   6.341   4.441   8.628  1.3949  0.1101 -0.9113
   20CHL1  H26B 1475   6.474   4.345   8.685 -0.3190 -0.9216 -0.2484
   20CHL1  H26C 1476   6.322   4.341   8.778 -0.3586  0.6447 -0.3494
   20CHL1   C27 1477   6.516   4.627   8.715 -0.2026 -0.0491 -0.4793
   20CHL1  H27A 1478   6.444   4.670   8.642 -1.9634  2.3940  2.4347
   20CHL1  H27B 1479   6.555   4.712   8.774 -0.5682 -1.3673  1.7701
   20CHL1  H27C 1480   6.592   4.576   8.652 -0.0487 -0.2769 -0.1121
   21CHL1    C3 1481   4.966   0.451  10.292  0.3262  0.1529  0.5665
   21CHL1    H3 1482   4.879   0.382  10.294 -0.2844  0.9134  0.7768
   21CHL1    O3 1483   5.000   0.451  10.426 -0.1791  0.3004 -0.0863
   21CHL1   H3' 1484   5.090   0.484  10.426  0.7123 -1.8757 -1.4210
   21CHL1    C4 1485   5.076   0.370  10.224 -0.5346  0.3318  0.2028
   21CHL1   H4A 1486   5.175   0.410  10.256 -1.5600  3.5421 -0.3281
   21CHL1   H4B 1487   5.075   0.264  10.257  0.5435  0.3384  0.3183
   21CHL1    C5 1488   5.064   0.375  10.069 -0.4398 -0.1704 -0.0068
   21CHL1    C6 1489   5.067   0.265   9.990  0.6356  0.8407  0.1763
   21CHL1    H6 1490   5.077   0.169  10.043  0.5868  0.9397  0.3647
   21CHL1    C7 1491   5.066   0.273   9.837  0.1456 -0.6058 -0.8377
   21CHL1   H7A 1492   5.146   0.210   9.791  1.9533  0.1834  1.0641
   21CHL1   H7B 1493   4.976   0.232   9.786 -1.1748  0.5168  0.4940
   21CHL1    C8 1494   5.094   0.417   9.784 -0.5909 -0.2300 -0.1588
   21CHL1    H8 1495   5.202   0.435   9.799 -0.5276  3.2400 -3.4105
   21CHL1   C14 1496   5.066   0.422   9.632  0.1375 -0.2657  0.4650
   21CHL1   H14 1497   4.958   0.395   9.625 -0.0145  0.1896  1.0279
   21CHL1   C15 1498   5.133   0.313   9.542  0.1603  0.4542  0.3124
   21CHL1  H15A 1499   5.239   0.292   9.566 -0.3304 -2.2863  0.4112
   21CHL1  H15B 1500   5.084   0.214   9.544  0.8195  0.1209  0.1786
   21CHL1   C16 1501   5.124   0.370   9.402  0.5257  0.9696  0.7894
   21CHL1  H16A 1502   5.229   0.364   9.366 -0.0565 -0.9274 -0.7969
   21CHL1  H16B 1503   5.056   0.300   9.350  1.6624 -0.8531  1.6166
   21CHL1   C17 1504   5.060   0.507   9.412 -0.3152 -0.9299 -1.2505
   21CHL1   H17 1505   4.950   0.494   9.401 -0.7281  1.1445 -0.0757
   21CHL1   C13 1506   5.086   0.549   9.556  0.2719 -0.6550 -0.5533
   21CHL1   C18 1507   5.234   0.603   9.567  0.0002  0.4845  0.3210
   21CHL1  H18A 1508   5.269   0.591   9.671 -2.5310 -2.4466  0.9911
   21CHL1  H18B 1509   5.310   0.558   9.500  2.5157  3.1427  1.1550
   21CHL1  H18C 1510   5.236   0.712   9.544 -0.7565  0.5190  0.3894
   21CHL1   C12 1511   4.989   0.649   9.629  0.6653 -0.2125  0.1996
   21CHL1  H12A 1512   4.995   0.752   9.587 -3.4706  0.0083 -0.2298
   21CHL1  H12B 1513   4.887   0.614   9.606  1.4409 -1.3622 -1.6307
   21CHL1   C11 1514   5.017   0.654   9.784  0.4285 -0.1473  0.3075
   21CHL1  H11A 1515   5.123   0.687   9.792  0.2856  0.9977 -1.9044
   21CHL1  H11B 1516   4.961   0.728   9.845  1.3958 -0.5504  1.7470
   21CHL1    C9 1517   5.005   0.519   9.855  1.1984  0.6305  0.1282
   21CHL1    H9 1518   4.897   0.495   9.842  0.9691  2.3367 -1.5438
   21CHL1   C10 1519   5.031   0.522  10.016  0.0322 -0.1004 -0.5211
   21CHL1   C19 1520   5.163   0.617  10.028  0.4393 -1.1532  0.1320
   21CHL1  H19A 1521   5.243   0.592   9.954  1.6408  1.5479  0.4110
   21CHL1  H19B 1522   5.135   0.724  10.015  2.6542 -0.2779  1.9022
   21CHL1  H19C 1523   5.214   0.605  10.126  3.0488 -1.5229 -1.1934
   21CHL1    C1 1524   4.904   0.582  10.088 -0.2006  0.3642 -0.3533
   21CHL1   H1A 1525   4.874   0.678  10.041  1.3354  0.5276 -1.0768
   21CHL1   H1B 1526   4.823   0.510  10.065  1.7117 -1.2865 -2.4390
   21CHL1    C2 1527   4.938   0.590  10.232  0.0258  0.1937 -0.4023
   21CHL1   H2A 1528   4.857   0.628  10.297 -0.4389 -1.1496 -0.1833
   21CHL1   H2B 1529   5.024   0.657  10.257 -0.7264  0.3229  2.0225
   21CHL1   C20 1530   5.098   0.608   9.298 -0.5393 -0.0203 -0.0008
   21CHL1   H20 1531   5.208   0.624   9.290 -0.5038  0.2057  0.8275
   21CHL1   C21 1532   5.025   0.745   9.317  0.1921  0.3899 -0.1716
   21CHL1  H21A 1533   4.916   0.724   9.322  0.4844 -1.6058 -1.0891
   21CHL1  H21B 1534   5.043   0.814   9.232  0.7191 -2.4232 -2.4953
   21CHL1  H21C 1535   5.060   0.795   9.410  0.3546 -0.8403  0.4578
   21CHL1   C22 1536   5.065   0.553   9.155  0.7554  0.4065  0.5322
   21CHL1  H22A 1537   5.098   0.449   9.137 -3.2601 -1.0495  0.5476
   21CHL1  H22B 1538   4.954   0.541   9.152  0.7164  0.6313  0.9283
   21CHL1   C23 1539   5.132   0.637   9.048  0.4230  0.6217 -0.6289
   21CHL1  H23A 1540   5.162   0.740   9.075 -2.5391  1.1118  1.2795
   21CHL1  H23B 1541   5.220   0.576   9.019 -1.2611 -2.6283  0.6449
   21CHL1   C24 1542   5.049   0.621   8.917  0.0073 -0.3970 -0.2791
   21CHL1  H24A 1543   5.023   0.513   8.915 -1.0407 -0.3778  3.7749
   21CHL1  H24B 1544   4.952   0.676   8.918 -1.2320 -2.4406 -0.6591
   21CHL1   C25 1545   5.111   0.669   8.789  0.1348 -0.2170  1.1701
   21CHL1   H25 1546   5.220   0.687   8.801  0.4695 -1.2815 -0.0735
   21CHL1   C26 1547   5.101   0.565   8.677 -0.3358 -0.5521  0.5670
   21CHL1  H26A 1548   5.168   0.477   8.688  1.6240  0.0694 -4.0790
   21CHL1  H26B 1549   4.993   0.538   8.679 -0.6822  0.7114  0.0675
   21CHL1  H26C 1550   5.118   0.600   8.573 -0.0800 -0.5686  0.6031
   21CHL1   C27 1551   5.053   0.806   8.751 -0.8210  0.1244  0.0339
   21CHL1  H27A 1552   5.096   0.837   8.654  2.4678 -0.5876  1.1051
   21CHL1  H27B 1553   4.944   0.790   8.739 -0.7574 -0.3168  0.0231
   21CHL1  H27C 1554   5.081   0.881   8.829  1.7388 -2.0242  1.3574
   22CHL1    C3 1555   5.491   0.931  10.122  0.0069 -0.1031  0.6902
   22CHL1    H3 1556   5.415   0.851  10.109 -0.9053  1.0182 -1.3410
   22CHL1    O3 1557   5.525   0.943  10.258  0.0767  0.0145 -0.2353
   22CHL1   H3' 1558   5.588   1.015  10.266  0.6185 -0.6345  1.9932
   22CHL1    C4 1559   5.614   0.879  10.051 -0.1239 -0.4337 -0.8842
   22CHL1   H4A 1560   5.698   0.944  10.085 -1.1763  1.2603 -1.3854
   22CHL1   H4B 1561   5.639   0.781  10.096  1.7684  1.2514  2.1353
   22CHL1    C5 1562   5.607   0.876   9.904  0.4893  0.0891 -1.0320
   22CHL1    C6 1563   5.650   0.764   9.845  0.1838 -0.5774  0.3947
   22CHL1    H6 1564   5.677   0.679   9.910  1.5183 -0.2689  0.2809
   22CHL1    C7 1565   5.646   0.742   9.698 -0.3022 -0.4768  0.4034
   22CHL1   H7A 1566   5.737   0.690   9.663  0.4516  0.9856  0.0990
   22CHL1   H7B 1567   5.556   0.676   9.697 -2.1751  1.9349 -0.7347
   22CHL1    C8 1568   5.605   0.866   9.617 -0.8744 -0.2371  0.2953
   22CHL1    H8 1569   5.704   0.914   9.604  0.4327 -2.6452  0.9841
   22CHL1   C14 1570   5.551   0.830   9.486 -0.5120 -0.1251 -0.0895
   22CHL1   H14 1571   5.458   0.780   9.518  0.4746 -1.8418  0.2279
   22CHL1   C15 1572   5.637   0.730   9.397 -0.3512 -0.1995 -0.2404
   22CHL1  H15A 1573   5.745   0.747   9.415 -0.4935  0.0990  0.3536
   22CHL1  H15B 1574   5.606   0.625   9.415  2.9528 -1.4207 -0.9299
   22CHL1   C16 1575   5.600   0.766   9.255  0.5518 -0.0015  0.4743
   22CHL1  H16A 1576   5.691   0.810   9.209 -0.5111  0.0497 -1.7188
   22CHL1  H16B 1577   5.569   0.676   9.197  1.3629  0.4293 -0.6708
   22CHL1   C17 1578   5.484   0.872   9.258  0.5473 -0.1169  0.1756
   22CHL1   H17 1579   5.392   0.811   9.274  0.9680 -0.8128  0.0118
   22CHL1   C13 1580   5.512   0.951   9.399 -0.2790 -0.3344 -0.3598
   22CHL1   C18 1581   5.638   1.036   9.374  0.3497 -0.2923 -0.4724
   22CHL1  H18A 1582   5.680   1.074   9.469 -0.5577  0.4768 -0.3679
   22CHL1  H18B 1583   5.715   0.984   9.313  2.9105  0.2724  2.0807
   22CHL1  H18C 1584   5.603   1.117   9.306 -0.3376 -0.4389 -0.3106
   22CHL1   C12 1585   5.393   1.024   9.468  0.5033 -0.7163  0.0773
   22CHL1  H12A 1586   5.369   1.117   9.413  1.0973 -1.2055 -1.0377
   22CHL1  H12B 1587   5.295   0.972   9.456 -0.2479  0.5409  0.6032
   22CHL1   C11 1588   5.425   1.059   9.613  0.4850  0.3747  0.3899
   22CHL1  H11A 1589   5.508   1.133   9.606  1.8472 -1.1167  0.1414
   22CHL1  H11B 1590   5.336   1.095   9.668  1.1578 -1.6939  3.0671
   22CHL1    C9 1591   5.496   0.946   9.692  0.1779  0.2834 -0.5646
   22CHL1    H9 1592   5.417   0.871   9.712  0.7351 -0.3372 -0.6284
   22CHL1   C10 1593   5.533   0.990   9.836  0.0103  0.0848 -0.0688
   22CHL1   C19 1594   5.634   1.102   9.830 -0.4510 -0.3342 -0.5997
   22CHL1  H19A 1595   5.656   1.139   9.932 -2.6503 -0.0572 -0.1668
   22CHL1  H19B 1596   5.730   1.083   9.779  1.7847  0.1659  3.0511
   22CHL1  H19C 1597   5.584   1.192   9.788  1.1113  1.0798  0.4365
   22CHL1    C1 1598   5.407   1.036   9.913 -0.3804  0.2214  0.2768
   22CHL1   H1A 1599   5.366   1.128   9.868  0.3581  0.1595 -0.5437
   22CHL1   H1B 1600   5.341   0.947   9.903  1.4075 -1.7166  3.7550
   22CHL1    C2 1601   5.433   1.061  10.065 -0.2659 -0.8822 -0.0966
   22CHL1   H2A 1602   5.346   1.092  10.126 -0.7176 -0.2708 -1.0263
   22CHL1   H2B 1603   5.506   1.142  10.084  0.7187 -1.4729 -1.1891
   22CHL1   C20 1604   5.481   0.952   9.130  0.4371  0.0253 -0.3498
   22CHL1   H20 1605   5.568   1.021   9.125 -0.7100  1.4156 -2.5185
   22CHL1   C21 1606   5.356   1.037   9.121  0.1413 -0.7828  0.6686
   22CHL1  H21A 1607   5.334   1.069   9.225  3.1631  1.7161  0.6776
   22CHL1  H21B 1608   5.272   0.981   9.074 -0.8670  1.2311 -0.0277
   22CHL1  H21C 1609   5.385   1.123   9.057  1.3072 -2.1970 -0.7743
   22CHL1   C22 1610   5.500   0.857   9.007 -0.2357 -0.1612  0.1949
   22CHL1  H22A 1611   5.598   0.805   9.014  0.6198  1.1381 -1.3111
   22CHL1  H22B 1612   5.420   0.780   9.007 -0.1509 -0.2750  1.4524
   22CHL1   C23 1613   5.490   0.932   8.872 -0.3211 -0.2970 -0.1118
   22CHL1  H23A 1614   5.384   0.956   8.851 -0.3177 -0.9780 -0.9546
   22CHL1  H23B 1615   5.541   1.030   8.876 -1.5021  0.4756 -2.3363
   22CHL1   C24 1616   5.531   0.850   8.753  0.2058  0.7736 -0.6204
   22CHL1  H24A 1617   5.641   0.833   8.755  0.2816  0.2633 -3.7408
   22CHL1  H24B 1618   5.481   0.753   8.771  1.5839 -0.0746 -1.2218
   22CHL1   C25 1619   5.474   0.906   8.626  0.4479  0.3791  0.3227
   22CHL1   H25 1620   5.363   0.911   8.634  0.1445 -3.1447 -0.0970
   22CHL1   C26 1621   5.526   1.046   8.603  0.4793 -0.1972  0.3454
   22CHL1  H26A 1622   5.636   1.048   8.620  0.5437  0.5829 -0.0986
   22CHL1  H26B 1623   5.510   1.072   8.496 -0.0296 -0.7914  0.2751
   22CHL1  H26C 1624   5.469   1.120   8.662  0.0425 -0.6756  0.5290
   22CHL1   C27 1625   5.506   0.819   8.510 -0.8482  0.2998  0.1994
   22CHL1  H27A 1626   5.458   0.848   8.414  1.5387  1.4794 -0.7267
   22CHL1  H27B 1627   5.616   0.806   8.497 -0.4787  2.6451  0.3722
   22CHL1  H27C 1628   5.489   0.712   8.531  1.0139 -0.1777 -0.5433
   23CHL1    C3 1629   1.967   2.169  10.136  0.2900 -0.5941  0.9453
   23CHL1    H3 1630   2.078   2.162  10.140  0.3663  0.7600  3.3906
   23CHL1    O3 1631   1.914   2.148  10.268 -0.3435 -0.1391  0.3741
   23CHL1   H3' 1632   1.911   2.237  10.304  0.5755  0.2997 -0.5745
   23CHL1    C4 1633   1.922   2.307  10.089  0.1076  0.1267 -0.2495
   23CHL1   H4A 1634   1.813   2.310  10.109  0.0235  0.7255 -0.7824
   23CHL1   H4B 1635   1.969   2.376  10.162  1.5214 -1.4903  0.4310
   23CHL1    C5 1636   1.960   2.338   9.949  0.9929 -0.2852 -0.0779
   23CHL1    C6 1637   2.028   2.442   9.912 -0.2209  0.2107  0.0672
   23CHL1    H6 1638   2.041   2.522   9.986 -1.4772 -0.3052  0.8791
   23CHL1    C7 1639   2.067   2.481   9.770 -0.3598  0.5533 -0.0843
   23CHL1   H7A 1640   2.044   2.586   9.743  0.0830  1.2467  2.0390
   23CHL1   H7B 1641   2.176   2.470   9.752  0.2340  1.2702  2.6463
   23CHL1    C8 1642   1.979   2.393   9.668 -0.4584  0.2901 -0.2682
   23CHL1    H8 1643   1.874   2.429   9.671 -1.3358 -2.1403  0.7345
   23CHL1   C14 1644   2.039   2.400   9.528 -0.3528 -0.3818 -0.2617
   23CHL1   H14 1645   2.147   2.373   9.525 -0.2078  0.2783 -2.6647
   23CHL1   C15 1646   2.027   2.539   9.471  0.3855  0.0135 -0.0759
   23CHL1  H15A 1647   1.926   2.576   9.498  0.0525 -0.4585 -0.6429
   23CHL1  H15B 1648   2.095   2.612   9.518  0.3757  0.7093 -1.1040
   23CHL1   C16 1649   2.048   2.512   9.320 -0.1376 -0.2054 -0.3788
   23CHL1  H16A 1650   1.976   2.555   9.248 -1.9921 -1.1606  0.8092
   23CHL1  H16B 1651   2.148   2.541   9.283  0.1636  1.3144  1.4753
   23CHL1   C17 1652   2.035   2.355   9.300  0.3022  0.1114  0.4770
   23CHL1   H17 1653   2.139   2.318   9.300  0.5739  0.7818  2.4639
   23CHL1   C13 1654   1.975   2.311   9.429 -0.1755  0.6431 -0.4088
   23CHL1   C18 1655   1.819   2.330   9.418 -0.3015  0.0160  0.9986
   23CHL1  H18A 1656   1.770   2.321   9.518 -1.3711 -0.9733  0.4120
   23CHL1  H18B 1657   1.799   2.435   9.389 -0.5060  0.1935  1.7666
   23CHL1  H18C 1658   1.780   2.248   9.354  0.1317 -0.2669  1.0969
   23CHL1   C12 1659   2.005   2.161   9.477 -0.0606  0.4507  0.2873
   23CHL1  H12A 1660   1.947   2.099   9.405  0.1773 -0.8854  1.2143
   23CHL1  H12B 1661   2.114   2.154   9.457 -0.0727 -2.1040  0.7108
   23CHL1   C11 1662   1.959   2.140   9.618  0.0110  0.2666 -1.2418
   23CHL1  H11A 1663   1.850   2.126   9.604  0.3284 -0.4647 -3.3296
   23CHL1  H11B 1664   2.004   2.045   9.651 -2.1927 -0.0800  1.1370
   23CHL1    C9 1665   1.995   2.247   9.720  0.0208 -0.1721  0.1393
   23CHL1    H9 1666   2.099   2.226   9.750 -0.5016 -2.2597  0.6392
   23CHL1   C10 1667   1.923   2.230   9.849 -0.0585  0.7515 -1.5051
   23CHL1   C19 1668   1.773   2.240   9.838 -0.5085 -0.6704 -0.0234
   23CHL1  H19A 1669   1.739   2.334   9.787 -2.0159 -1.7559 -1.1347
   23CHL1  H19B 1670   1.728   2.156   9.781 -2.1950 -1.3831  2.2246
   23CHL1  H19C 1671   1.708   2.234   9.928 -2.6877 -1.4370 -1.5388
   23CHL1    C1 1672   1.958   2.081   9.902 -0.1760 -0.0839  0.1150
   23CHL1   H1A 1673   1.922   1.999   9.837 -0.4132  0.1515 -0.0503
   23CHL1   H1B 1674   2.068   2.069   9.917 -0.6077 -0.7809  3.8292
   23CHL1    C2 1675   1.915   2.059  10.042  0.1364 -0.2477 -0.0705
   23CHL1   H2A 1676   1.959   1.966  10.083  1.6092  0.5657  0.2682
   23CHL1   H2B 1677   1.805   2.041  10.043  0.5547 -3.4343 -0.1100
   23CHL1   C20 1678   1.982   2.316   9.161  0.4453 -0.4921  0.1738
   23CHL1   H20 1679   1.879   2.356   9.152  0.1268 -0.8212  1.9883
   23CHL1   C21 1680   1.976   2.167   9.149 -0.2542 -0.1450  0.0598
   23CHL1  H21A 1681   1.981   2.129   9.044  2.1227  2.0003 -0.7212
   23CHL1  H21B 1682   1.891   2.126   9.207 -0.0419 -0.0230  0.4619
   23CHL1  H21C 1683   2.071   2.124   9.189 -0.4784 -0.0951  0.6432
   23CHL1   C22 1684   2.068   2.377   9.051  0.4648  0.1890  0.1045
   23CHL1  H22A 1685   2.081   2.486   9.068 -0.6893  0.3180  0.2642
   23CHL1  H22B 1686   2.170   2.333   9.049  0.3376 -0.0901 -0.7405
   23CHL1   C23 1687   2.029   2.351   8.905  0.5333 -0.2303 -0.2139
   23CHL1  H23A 1688   2.098   2.400   8.832  2.0504 -0.9007  0.7166
   23CHL1  H23B 1689   2.043   2.242   8.891 -0.3846 -0.3536 -0.2305
   23CHL1   C24 1690   1.880   2.394   8.879 -0.4998  0.6087  0.6793
   23CHL1  H24A 1691   1.811   2.341   8.948 -0.4633 -0.4649 -0.0952
   23CHL1  H24B 1692   1.846   2.500   8.888 -3.5288 -0.1362 -0.5653
   23CHL1   C25 1693   1.827   2.351   8.739  0.7999  0.3825  0.1339
   23CHL1   H25 1694   1.903   2.370   8.661 -0.7071  0.3057 -1.4176
   23CHL1   C26 1695   1.810   2.200   8.746  0.4537 -0.0556 -0.1730
   23CHL1  H26A 1696   1.751   2.171   8.835  2.1002  0.5040  1.1391
   23CHL1  H26B 1697   1.761   2.167   8.651 -1.2871  0.6472  0.4319
   23CHL1  H26C 1698   1.908   2.149   8.739 -0.2950 -1.4505 -1.1432
   23CHL1   C27 1699   1.700   2.421   8.700  0.1824 -0.2948  0.3147
   23CHL1  H27A 1700   1.670   2.391   8.597  1.0130 -1.5668  0.4136
   23CHL1  H27B 1701   1.620   2.414   8.777 -1.1956 -0.4438 -1.0875
   23CHL1  H27C 1702   1.726   2.528   8.693 -2.1585  0.4372  1.6926
   24CHL1    C3 1703   2.261   3.987  10.103  0.2215  0.1493  0.5821
   24CHL1    H3 1704   2.150   3.979  10.103  0.2704 -1.2930 -1.7628
   24CHL1    O3 1705   2.306   4.002  10.231  0.0446 -0.0059 -0.3445
   24CHL1   H3' 1706   2.250   4.067  10.275 -0.2014  1.2327 -2.3516
   24CHL1    C4 1707   2.315   3.861  10.043 -1.0848  1.4213 -0.5934
   24CHL1   H4A 1708   2.426   3.867  10.046 -0.7812 -2.0991  2.3688
   24CHL1   H4B 1709   2.301   3.777  10.115  1.3112  0.8408 -0.7370
   24CHL1    C5 1710   2.258   3.839   9.903 -1.2575 -0.3990  0.6789
   24CHL1    C6 1711   2.196   3.728   9.870  0.1881 -0.0003  0.2870
   24CHL1    H6 1712   2.180   3.651   9.947 -3.2730  0.3794  0.1328
   24CHL1    C7 1713   2.145   3.687   9.731 -0.2307  0.0307 -0.8952
   24CHL1   H7A 1714   2.189   3.590   9.697 -1.7656 -1.1287  0.3003
   24CHL1   H7B 1715   2.035   3.676   9.721 -0.5326  1.9010  0.0001
   24CHL1    C8 1716   2.188   3.793   9.624 -0.2471  0.4204  0.3816
   24CHL1    H8 1717   2.290   3.766   9.590 -0.9309 -0.1910 -1.2902
   24CHL1   C14 1718   2.090   3.794   9.501 -0.3713 -0.5171 -0.3513
   24CHL1   H14 1719   1.991   3.835   9.531  0.7629  1.3847  0.9818
   24CHL1   C15 1720   2.069   3.657   9.442 -0.3415  0.0312 -0.7707
   24CHL1  H15A 1721   2.164   3.598   9.439 -0.7996 -0.6915 -1.5177
   24CHL1  H15B 1722   2.021   3.588   9.514 -0.3905  1.1649  0.2967
   24CHL1   C16 1723   2.019   3.689   9.303  0.1905  0.1834  0.5198
   24CHL1  H16A 1724   2.088   3.644   9.228  0.5325 -0.3144  1.1219
   24CHL1  H16B 1725   1.919   3.642   9.292 -0.5825  1.7735  0.5069
   24CHL1   C17 1726   2.032   3.842   9.281  0.2523 -0.6496  0.4197
   24CHL1   H17 1727   1.933   3.886   9.304 -0.8064 -0.9876 -2.9788
   24CHL1   C13 1728   2.139   3.884   9.388 -0.3692 -0.0514  0.2097
   24CHL1   C18 1729   2.282   3.842   9.340 -0.5812 -0.2331  0.7062
   24CHL1  H18A 1730   2.365   3.838   9.413 -0.5447 -0.8199  0.6352
   24CHL1  H18B 1731   2.280   3.746   9.284  1.6964  0.1399 -0.1412
   24CHL1  H18C 1732   2.309   3.923   9.268 -0.6065  0.6747  1.7004
   24CHL1   C12 1733   2.136   4.026   9.432  0.4646 -0.0827  0.1793
   24CHL1  H12A 1734   2.167   4.102   9.358 -1.9989  1.7964  0.9476
   24CHL1  H12B 1735   2.032   4.046   9.464  0.4474  1.3204 -0.6804
   24CHL1   C11 1736   2.217   4.042   9.561 -0.2281  0.1813  0.7336
   24CHL1  H11A 1737   2.319   4.037   9.519  0.1123  1.5056  1.3639
   24CHL1  H11B 1738   2.206   4.146   9.598 -0.9969  0.8064 -1.1483
   24CHL1    C9 1739   2.188   3.938   9.680 -0.4631  0.3431 -0.0869
   24CHL1    H9 1740   2.081   3.946   9.710 -0.4407 -1.7123  0.7215
   24CHL1   C10 1741   2.281   3.957   9.799 -0.2586  0.1069 -0.2376
   24CHL1   C19 1742   2.434   3.970   9.763  0.2725  0.3947 -0.5504
   24CHL1  H19A 1743   2.445   4.067   9.710 -0.2426  0.9169  0.2686
   24CHL1  H19B 1744   2.497   3.956   9.854 -0.7305  0.5788  0.1818
   24CHL1  H19C 1745   2.446   3.890   9.687  1.5737  0.3338 -0.3023
   24CHL1    C1 1746   2.236   4.081   9.880 -0.4108  0.0120 -0.4785
   24CHL1   H1A 1747   2.279   4.163   9.819  1.3568 -0.4938  0.0093
   24CHL1   H1B 1748   2.127   4.100   9.871 -0.5321  0.0402  0.7824
   24CHL1    C2 1749   2.295   4.108  10.018 -0.0784 -0.4621  1.4659
   24CHL1   H2A 1750   2.250   4.205  10.051  1.4204  1.1453 -0.8658
   24CHL1   H2B 1751   2.406   4.117  10.013 -0.2311  1.1747 -1.4830
   24CHL1   C20 1752   2.057   3.873   9.130  0.1778 -0.1924 -0.2522
   24CHL1   H20 1753   2.158   3.835   9.103  0.7176 -0.4863  1.9687
   24CHL1   C21 1754   2.057   4.030   9.114 -0.1895 -1.0154 -0.1122
   24CHL1  H21A 1755   2.089   4.060   9.012  1.5417 -0.3899  0.5615
   24CHL1  H21B 1756   2.137   4.066   9.183 -1.5457 -1.0360  1.5274
   24CHL1  H21C 1757   1.961   4.079   9.139  1.8542  2.1572  2.2665
   24CHL1   C22 1758   1.953   3.801   9.038  0.5815 -0.3181 -0.3699
   24CHL1  H22A 1759   1.935   3.697   9.072  1.2341  0.2051  1.6703
   24CHL1  H22B 1760   1.856   3.855   9.029  0.6959  0.2298  1.3364
   24CHL1   C23 1761   2.008   3.791   8.893  0.4848 -0.4816 -0.5618
   24CHL1  H23A 1762   2.049   3.889   8.861  1.6089 -0.4069  1.0181
   24CHL1  H23B 1763   2.093   3.720   8.901  0.4049 -0.4055  1.5427
   24CHL1   C24 1764   1.907   3.727   8.794 -0.3102  0.6231  0.1563
   24CHL1  H24A 1765   1.913   3.618   8.813  0.8480  0.6059 -0.1934
   24CHL1  H24B 1766   1.813   3.776   8.824 -0.1591  0.1741  1.4306
   24CHL1   C25 1767   1.934   3.760   8.650 -1.0188  0.0579 -0.5476
   24CHL1   H25 1768   1.900   3.864   8.634  1.4837  0.9427 -0.5469
   24CHL1   C26 1769   2.082   3.758   8.622  1.0828 -0.2185  0.7917
   24CHL1  H26A 1770   2.120   3.663   8.664  0.7995 -0.6962 -0.0143
   24CHL1  H26B 1771   2.121   3.760   8.517 -0.1422  1.5434  0.3202
   24CHL1  H26C 1772   2.132   3.841   8.676  1.3930 -0.9208  1.5857
   24CHL1   C27 1773   1.868   3.666   8.553  0.5146 -0.6879 -0.6068
   24CHL1  H27A 1774   1.898   3.701   8.452  2.4556  0.7611  0.4036
   24CHL1  H27B 1775   1.903   3.562   8.566  1.4649 -0.2734  0.2626
   24CHL1  H27C 1776   1.757   3.657   8.556  0.5852 -1.8760 -1.1592
   25CHL1    C3 1777   3.846   5.068  10.349 -0.5609  0.5693  0.4717
   25CHL1    H3 1778   3.778   4.980  10.350  1.4906 -1.1986 -2.0190
   25CHL1    O3 1779   3.876   5.104  10.481 -0.2154 -0.4513 -0.5000
   25CHL1   H3' 1780   3.788   5.114  10.517 -0.0504 -1.0033  0.0591
   25CHL1    C4 1781   3.977   5.028  10.269  0.5655 -0.3038  0.0432
   25CHL1   H4A 1782   4.052   5.108  10.285  0.1268  0.3841 -1.2077
   25CHL1   H4B 1783   4.011   4.943  10.331 -1.3670 -0.0146  1.6234
   25CHL1    C5 1784   3.952   4.991  10.130  0.6220  0.5202  0.0207
   25CHL1    C6 1785   3.979   4.864  10.082  0.5017 -0.1890 -0.2077
   25CHL1    H6 1786   4.019   4.788  10.150 -1.3350  0.2307  1.4529
   25CHL1    C7 1787   3.953   4.821   9.942  0.0068  0.3849  0.1087
   25CHL1   H7A 1788   4.043   4.767   9.906 -0.7066  0.4443 -1.8478
   25CHL1   H7B 1789   3.873   4.745   9.930 -0.8402  1.2572  0.1021
   25CHL1    C8 1790   3.920   4.943   9.853  0.2268  0.2791  0.4907
   25CHL1    H8 1791   4.016   4.995   9.832  1.7759 -1.8886  1.8022
   25CHL1   C14 1792   3.876   4.888   9.719 -0.8353  0.1016  0.5002
   25CHL1   H14 1793   3.786   4.826   9.738  0.0303 -1.6908 -0.9409
   25CHL1   C15 1794   3.973   4.793   9.646 -0.2087 -0.4013  0.3240
   25CHL1  H15A 1795   4.075   4.837   9.646 -0.0119 -0.8446  0.2595
   25CHL1  H15B 1796   3.973   4.698   9.704 -2.9221  1.0245  2.8992
   25CHL1   C16 1797   3.913   4.787   9.504  0.3423 -0.1247  0.2197
   25CHL1  H16A 1798   3.989   4.807   9.425  0.0035  2.4010  0.4383
   25CHL1  H16B 1799   3.885   4.682   9.480  2.6922 -1.3100  2.2459
   25CHL1   C17 1800   3.797   4.894   9.507  0.0625  0.4900  0.1022
   25CHL1   H17 1801   3.698   4.850   9.533 -0.2437  0.0286 -1.7124
   25CHL1   C13 1802   3.835   4.996   9.613  0.0325  0.2771 -0.3004
   25CHL1   C18 1803   3.944   5.090   9.557 -0.1957  0.3202 -0.2587
   25CHL1  H18A 1804   3.892   5.173   9.504 -1.3233  0.1652  0.5720
   25CHL1  H18B 1805   4.005   5.141   9.635  1.0116 -0.1539 -0.8683
   25CHL1  H18C 1806   4.012   5.039   9.485 -1.6026 -0.1036 -1.3299
   25CHL1   C12 1807   3.713   5.072   9.677  0.2381 -0.5985 -0.0647
   25CHL1  H12A 1808   3.657   5.141   9.611  1.4463  0.4635 -0.0162
   25CHL1  H12B 1809   3.639   4.995   9.706  0.6226 -0.2359  2.0338
   25CHL1   C11 1810   3.752   5.140   9.807  0.0198 -0.1379 -0.2460
   25CHL1  H11A 1811   3.838   5.207   9.782  0.3920 -0.9013 -1.0671
   25CHL1  H11B 1812   3.666   5.192   9.854 -1.5965 -3.6226  0.9500
   25CHL1    C9 1813   3.819   5.037   9.912  0.4107  0.0291  0.9044
   25CHL1    H9 1814   3.744   4.967   9.954  1.0724 -0.4734  1.2626
   25CHL1   C10 1815   3.880   5.093  10.044 -0.1208 -0.0801  0.2843
   25CHL1   C19 1816   3.989   5.201  10.018 -0.0358  0.4515 -0.7419
   25CHL1  H19A 1817   4.072   5.167   9.951  1.1989  1.3660  0.2619
   25CHL1  H19B 1818   3.942   5.293   9.976 -1.6791  0.9137  1.8876
   25CHL1  H19C 1819   4.044   5.239  10.107 -1.8657  1.0389  0.1710
   25CHL1    C1 1820   3.762   5.156  10.119 -0.3373  0.4573  0.6073
   25CHL1   H1A 1821   3.720   5.242  10.063 -1.2332 -1.0658 -1.1900
   25CHL1   H1B 1822   3.680   5.081  10.124  0.2864 -0.1985  1.7836
   25CHL1    C2 1823   3.796   5.192  10.269 -0.1989  0.2976 -0.5411
   25CHL1   H2A 1824   3.708   5.243  10.315 -0.0100 -0.1901  0.3886
   25CHL1   H2B 1825   3.863   5.281  10.268 -1.0890  1.1959  2.8350
   25CHL1   C20 1826   3.762   4.940   9.356 -0.4918 -0.1498  0.1805
   25CHL1   H20 1827   3.854   4.989   9.319  1.5893 -2.0403  2.5469
   25CHL1   C21 1828   3.647   5.044   9.358  0.1120 -0.0666 -0.3280
   25CHL1  H21A 1829   3.667   5.145   9.400 -1.1864  0.0142  0.1519
   25CHL1  H21B 1830   3.551   5.007   9.400  0.2409  2.5513  2.6337
   25CHL1  H21C 1831   3.633   5.068   9.250  1.3328  0.8846 -0.2981
   25CHL1   C22 1832   3.732   4.823   9.260 -0.2423  0.1381  0.7102
   25CHL1  H22A 1833   3.806   4.742   9.275 -0.7317 -0.5074 -0.2480
   25CHL1  H22B 1834   3.630   4.787   9.282 -0.9093  1.6832  0.3239
   25CHL1   C23 1835   3.743   4.863   9.107  0.0760  1.1157  0.0678
   25CHL1  H23A 1836   3.655   4.925   9.078 -1.1672 -1.3286 -1.7428
   25CHL1  H23B 1837   3.832   4.924   9.079 -0.3700  1.3535 -0.8907
   25CHL1   C24 1838   3.752   4.735   9.009 -0.4103 -0.8517 -0.2389
   25CHL1  H24A 1839   3.827   4.675   9.066  1.4310  2.1659  0.7198
   25CHL1  H24B 1840   3.654   4.683   9.004 -1.0072  0.0950  1.2426
   25CHL1   C25 1841   3.803   4.768   8.875  0.4410 -0.3441  0.0233
   25CHL1   H25 1842   3.901   4.822   8.881  0.6573 -0.6844 -0.4329
   25CHL1   C26 1843   3.834   4.638   8.805 -0.1431  0.4465 -0.0649
   25CHL1  H26A 1844   3.747   4.569   8.810  1.2617 -1.5413 -1.4328
   25CHL1  H26B 1845   3.862   4.650   8.698  1.0818  2.1635  0.4028
   25CHL1  H26C 1846   3.919   4.588   8.856 -1.1172 -0.8025  0.3785
   25CHL1   C27 1847   3.709   4.848   8.796  0.4154 -0.0071 -0.9593
   25CHL1  H27A 1848   3.752   4.882   8.700 -2.6292  2.5928 -1.5913
   25CHL1  H27B 1849   3.617   4.792   8.769 -1.3772  2.3813 -0.1538
   25CHL1  H27C 1850   3.682   4.936   8.859  1.9045 -1.2015  1.5074
   26CHL1    C3 1851   0.410   6.533  10.056 -0.1844 -0.1079 -0.2003
   26CHL1    H3 1852   0.322   6.565   9.996  1.3956  2.0743 -1.5465
   26CHL1    O3 1853   0.396   6.565  10.200  0.1191 -0.7924  0.0321
   26CHL1   H3' 1854   0.486   6.561  10.232  0.9789  2.0576 -1.6875
   26CHL1    C4 1855   0.438   6.389  10.037  0.1661  0.6382 -0.3342
   26CHL1   H4A 1856   0.527   6.349  10.090 -2.6991 -1.5519  3.2914
   26CHL1   H4B 1857   0.355   6.324  10.072 -0.2795  1.3542 -0.0542
   26CHL1    C5 1858   0.460   6.364   9.888  0.2926 -0.3754 -0.3571
   26CHL1    C6 1859   0.370   6.286   9.823 -0.2662 -0.4175 -0.3413
   26CHL1    H6 1860   0.286   6.244   9.881 -1.1424  0.5391 -0.8916
   26CHL1    C7 1861   0.381   6.253   9.675 -0.5750 -0.4161  0.5350
   26CHL1   H7A 1862   0.375   6.146   9.645  0.7326  0.2690 -2.5683
   26CHL1   H7B 1863   0.298   6.292   9.612  0.6771  0.5502 -0.5583
   26CHL1    C8 1864   0.513   6.303   9.606  0.1305  0.7149 -0.1035
   26CHL1    H8 1865   0.597   6.237   9.637 -1.1876  0.8807  4.6318
   26CHL1   C14 1866   0.508   6.307   9.449  0.3491 -0.2468  0.1906
   26CHL1   H14 1867   0.424   6.369   9.411  1.6627  0.9953 -0.7751
   26CHL1   C15 1868   0.478   6.171   9.384 -0.1368 -0.3811 -1.0314
   26CHL1  H15A 1869   0.560   6.103   9.416 -0.4045  0.4748  1.7127
   26CHL1  H15B 1870   0.380   6.123   9.406  1.0070 -2.3756  0.0541
   26CHL1   C16 1871   0.502   6.201   9.236  0.5981 -0.3249  0.1344
   26CHL1  H16A 1872   0.566   6.127   9.182 -0.6678 -0.7514 -0.8406
   26CHL1  H16B 1873   0.409   6.215   9.177  1.0372  0.2173 -0.4454
   26CHL1   C17 1874   0.578   6.345   9.231  0.3823  0.0413 -0.5806
   26CHL1   H17 1875   0.499   6.421   9.212  0.8114  0.5716 -0.2648
   26CHL1   C13 1876   0.633   6.362   9.372  0.0193  0.1922 -0.2746
   26CHL1   C18 1877   0.763   6.276   9.380  0.5168 -0.1720  0.4427
   26CHL1  H18A 1878   0.849   6.341   9.354 -1.0935  1.3600 -1.2978
   26CHL1  H18B 1879   0.775   6.239   9.484  2.8663 -3.3037 -0.7928
   26CHL1  H18C 1880   0.768   6.189   9.311  2.2008  0.9194 -0.9190
   26CHL1   C12 1881   0.649   6.503   9.427  0.0146 -0.5706  0.1048
   26CHL1  H12A 1882   0.725   6.568   9.378  0.2454  0.2763  1.5376
   26CHL1  H12B 1883   0.550   6.552   9.415  0.2793 -0.2584 -0.9279
   26CHL1   C11 1884   0.674   6.509   9.580 -0.0503 -0.3087  0.9529
   26CHL1  H11A 1885   0.770   6.455   9.596 -0.9093 -1.4270  2.6718
   26CHL1  H11B 1886   0.675   6.617   9.604 -0.3230 -0.0533 -0.1142
   26CHL1    C9 1887   0.559   6.439   9.661 -0.3183 -0.0244 -0.0007
   26CHL1    H9 1888   0.473   6.506   9.640 -0.0196  0.4567  0.3172
   26CHL1   C10 1889   0.569   6.443   9.814  0.5079 -0.0360  0.2182
   26CHL1   C19 1890   0.716   6.395   9.840  0.1690 -0.2865  0.1299
   26CHL1  H19A 1891   0.724   6.377   9.949 -1.9084 -2.1444  0.0471
   26CHL1  H19B 1892   0.741   6.302   9.784 -0.0026 -0.3717  0.1922
   26CHL1  H19C 1893   0.786   6.475   9.810 -2.0314  1.7993  0.2467
   26CHL1    C1 1894   0.558   6.588   9.850 -0.7694 -0.2589 -0.1805
   26CHL1   H1A 1895   0.652   6.643   9.827 -1.2059  1.1873  1.2859
   26CHL1   H1B 1896   0.471   6.639   9.801 -1.1179 -1.2624 -0.6256
   26CHL1    C2 1897   0.525   6.621   9.998 -0.8249  0.7389  0.5423
   26CHL1   H2A 1898   0.507   6.729  10.016  1.5229  1.0638  1.1923
   26CHL1   H2B 1899   0.607   6.582  10.062  0.1925  1.4683 -0.2890
   26CHL1   C20 1900   0.674   6.369   9.110 -0.2648 -0.4622  0.1130
   26CHL1   H20 1901   0.766   6.311   9.132  0.9056  1.1127 -0.4243
   26CHL1   C21 1902   0.712   6.513   9.098 -0.3979 -0.0843 -0.2758
   26CHL1  H21A 1903   0.764   6.534   9.002 -1.6033  1.9851 -0.5309
   26CHL1  H21B 1904   0.776   6.541   9.184 -0.5442 -2.3123  0.6346
   26CHL1  H21C 1905   0.621   6.577   9.096 -1.0071 -0.8365  1.4319
   26CHL1   C22 1906   0.613   6.321   8.972  0.0899  0.0772 -1.5212
   26CHL1  H22A 1907   0.581   6.217   8.993 -0.9227  0.3696 -1.5567
   26CHL1  H22B 1908   0.526   6.389   8.962  0.2345  0.6034  0.3938
   26CHL1   C23 1909   0.700   6.314   8.849 -0.0391  0.4166 -0.7052
   26CHL1  H23A 1910   0.755   6.408   8.827 -0.3395  0.7104 -0.2194
   26CHL1  H23B 1911   0.789   6.251   8.868  0.1806  1.3014  1.4162
   26CHL1   C24 1912   0.634   6.281   8.715 -0.1967 -0.0305  0.8582
   26CHL1  H24A 1913   0.556   6.358   8.698  2.6083  2.6310 -1.0505
   26CHL1  H24B 1914   0.707   6.286   8.631 -0.5739  1.5902  0.6027
   26CHL1   C25 1915   0.560   6.137   8.716 -0.2125  0.2254 -0.4355
   26CHL1   H25 1916   0.497   6.140   8.807 -1.0335  2.5229 -1.0127
   26CHL1   C26 1917   0.468   6.128   8.594 -0.0823 -0.5094 -0.3875
   26CHL1  H26A 1918   0.404   6.037   8.590 -0.1717 -0.4834  0.3258
   26CHL1  H26B 1919   0.411   6.223   8.587  0.7072  0.0186  0.0905
   26CHL1  H26C 1920   0.528   6.130   8.501  0.4825 -1.8573 -0.0778
   26CHL1   C27 1921   0.652   6.017   8.720 -0.5048 -0.6829  0.6907
   26CHL1  H27A 1922   0.711   6.016   8.815 -0.3801 -1.3915  0.6158
   26CHL1  H27B 1923   0.585   5.929   8.703 -0.9777 -0.2114  0.0779
   26CHL1  H27C 1924   0.722   6.024   8.635 -1.9429 -0.7121 -0.5357
   27CHL1    C3 1925   4.324   4.763  10.291 -0.5783  0.3650  0.1212
   27CHL1    H3 1926   4.222   4.747  10.252 -0.9325  1.5472  0.5282
   27CHL1    O3 1927   4.315   4.739  10.430  0.8613  0.6300 -0.1197
   27CHL1   H3' 1928   4.404   4.742  10.466  0.4480 -0.4859  1.1188
   27CHL1    C4 1929   4.422   4.667  10.224 -0.4196  0.4414  0.6070
   27CHL1   H4A 1930   4.523   4.693  10.261 -1.1502  3.0125  1.0342
   27CHL1   H4B 1931   4.400   4.565  10.261  0.0505  0.7645  1.8229
   27CHL1    C5 1932   4.406   4.676  10.072  0.3750 -0.3346 -0.3669
   27CHL1    C6 1933   4.370   4.566   9.998 -0.4298 -0.0078  0.7161
   27CHL1    H6 1934   4.351   4.477  10.060  0.6694  1.6220  3.5484
   27CHL1    C7 1935   4.349   4.570   9.847  0.2919  0.4023 -0.1431
   27CHL1   H7A 1936   4.401   4.484   9.799 -0.9903 -0.7596  0.4673
   27CHL1   H7B 1937   4.243   4.558   9.817  0.6430 -1.7282 -0.6853
   27CHL1    C8 1938   4.408   4.698   9.780 -0.1690  0.0786 -0.0888
   27CHL1    H8 1939   4.517   4.686   9.765 -0.1826 -1.8372  1.1100
   27CHL1   C14 1940   4.346   4.712   9.644 -0.0361  0.8929 -0.3325
   27CHL1   H14 1941   4.235   4.719   9.651 -0.3640 -0.8846 -2.5997
   27CHL1   C15 1942   4.360   4.586   9.549 -0.3544 -0.6508 -0.2950
   27CHL1  H15A 1943   4.458   4.536   9.556 -0.7368 -1.2479  0.9877
   27CHL1  H15B 1944   4.280   4.511   9.569 -0.6272 -0.6219 -1.2172
   27CHL1   C16 1945   4.346   4.642   9.414  0.1443  0.4527 -0.0816
   27CHL1  H16A 1946   4.435   4.624   9.350  0.8407 -0.0885  0.9963
   27CHL1  H16B 1947   4.263   4.594   9.358 -1.4558 -0.7122  3.0608
   27CHL1   C17 1948   4.322   4.799   9.419 -0.1821 -0.3736 -0.1200
   27CHL1   H17 1949   4.216   4.810   9.447  0.4668  1.0557  2.0497
   27CHL1   C13 1950   4.385   4.835   9.563 -0.4679 -0.5526 -0.4936
   27CHL1   C18 1951   4.541   4.842   9.531  0.4628 -0.2790 -0.4412
   27CHL1  H18A 1952   4.573   4.922   9.460  0.5769  0.3510  0.3077
   27CHL1  H18B 1953   4.605   4.850   9.621  1.4422  1.0113 -1.2189
   27CHL1  H18C 1954   4.578   4.750   9.481  0.5166 -0.3681 -0.2365
   27CHL1   C12 1955   4.346   4.958   9.649  0.5105  0.3625 -0.8913
   27CHL1  H12A 1956   4.375   5.055   9.604 -2.1255  1.3158 -0.7066
   27CHL1  H12B 1957   4.235   4.968   9.655  0.6029  2.0019 -1.5979
   27CHL1   C11 1958   4.413   4.958   9.797  1.1223  0.0872  0.6892
   27CHL1  H11A 1959   4.522   4.979   9.785  1.2025  0.0385  1.3041
   27CHL1  H11B 1960   4.360   5.033   9.859 -0.1972 -0.8086  0.6699
   27CHL1    C9 1961   4.378   4.818   9.867  0.0373 -0.2649 -0.6288
   27CHL1    H9 1962   4.269   4.824   9.885  0.0529  0.3058 -0.7222
   27CHL1   C10 1963   4.436   4.812  10.015 -0.5909 -0.5321  0.3101
   27CHL1   C19 1964   4.594   4.834  10.016  0.3973 -0.7698  0.3383
   27CHL1  H19A 1965   4.639   4.734   9.998 -0.8263 -1.2942  0.0773
   27CHL1  H19B 1966   4.622   4.923   9.955 -1.2929 -1.6343 -1.8447
   27CHL1  H19C 1967   4.622   4.851  10.122 -0.4060  2.5239  0.1372
   27CHL1    C1 1968   4.373   4.925  10.102  0.2421 -0.4336 -0.5640
   27CHL1   H1A 1969   4.428   5.019  10.083 -2.4032  1.0947 -1.1764
   27CHL1   H1B 1970   4.267   4.940  10.074 -0.5610 -3.2978  0.5022
   27CHL1    C2 1971   4.372   4.904  10.256 -0.6001  0.0818  0.0080
   27CHL1   H2A 1972   4.292   4.967  10.300 -1.4854  1.1106 -2.8228
   27CHL1   H2B 1973   4.467   4.932  10.305  0.8367 -0.7926 -2.1109
   27CHL1   C20 1974   4.360   4.881   9.294  1.3018  0.5596 -0.3995
   27CHL1   H20 1975   4.465   4.868   9.262  0.9306 -0.7429 -1.1859
   27CHL1   C21 1976   4.335   5.030   9.315 -0.3780  0.5020 -0.5287
   27CHL1  H21A 1977   4.422   5.063   9.375  1.5170 -0.6203 -2.4805
   27CHL1  H21B 1978   4.238   5.055   9.363  0.4365  2.2853  0.2610
   27CHL1  H21C 1979   4.335   5.100   9.229  0.7143  0.7321 -0.3504
   27CHL1   C22 1980   4.269   4.834   9.172 -0.3494 -0.3761  0.8198
   27CHL1  H22A 1981   4.269   4.723   9.160 -1.2371 -0.1776 -1.7167
   27CHL1  H22B 1982   4.163   4.854   9.198 -0.2298 -0.2284  1.2062
   27CHL1   C23 1983   4.296   4.901   9.039  0.0268 -0.3809 -0.3801
   27CHL1  H23A 1984   4.271   5.009   9.053  0.9653 -0.3006  0.8618
   27CHL1  H23B 1985   4.405   4.895   9.023 -0.0744 -1.7378 -0.6876
   27CHL1   C24 1986   4.223   4.835   8.926 -0.3688  0.1503  0.3918
   27CHL1  H24A 1987   4.246   4.727   8.934  0.4779  0.3494  0.8009
   27CHL1  H24B 1988   4.114   4.843   8.941 -0.6492  3.1825 -2.1727
   27CHL1   C25 1989   4.244   4.892   8.785  0.4943 -0.6431  0.6155
   27CHL1   H25 1990   4.228   5.001   8.798  1.5017 -0.5911  1.4786
   27CHL1   C26 1991   4.375   4.849   8.738 -0.3100  0.2353  0.3517
   27CHL1  H26A 1992   4.407   4.887   8.639  0.7412  0.3431  0.7185
   27CHL1  H26B 1993   4.461   4.848   8.809 -0.1346 -2.2346  0.1989
   27CHL1  H26C 1994   4.356   4.741   8.725 -2.8618  0.7885 -1.1714
   27CHL1   C27 1995   4.134   4.839   8.684 -0.0789 -0.0210 -0.0027
   27CHL1  H27A 1996   4.158   4.870   8.580 -0.9672 -0.7913 -0.4526
   27CHL1  H27B 1997   4.134   4.728   8.694  1.4471  0.0496  1.0492
   27CHL1  H27C 1998   4.034   4.883   8.704 -0.1028 -0.0400 -0.0814
   28CHL1    C3 1999   5.393   3.502   9.817 -0.4363  0.0661  0.2874
   28CHL1    H3 2000   5.285   3.526   9.830 -0.3407  1.7962 -1.6683
   28CHL1    O3 2001   5.438   3.445   9.937  0.3434  0.2313  0.3131
   28CHL1   H3' 2002   5.483   3.522   9.973 -1.2609  2.7100 -2.5030
   28CHL1    C4 2003   5.404   3.389   9.713  0.1333 -0.1317 -0.5766
   28CHL1   H4A 2004   5.510   3.356   9.708  0.0590 -0.3981 -0.3568
   28CHL1   H4B 2005   5.340   3.304   9.742 -0.0427  0.7634  1.8523
   28CHL1    C5 2006   5.365   3.434   9.576 -0.6944 -0.3257 -0.5259
   28CHL1    C6 2007   5.278   3.359   9.502 -0.5055 -0.0836 -0.2410
   28CHL1    H6 2008   5.224   3.271   9.541  0.2909 -1.1682 -1.4561
   28CHL1    C7 2009   5.233   3.395   9.362 -0.3879 -0.0070 -0.0797
   28CHL1   H7A 2010   5.218   3.303   9.301  0.3330 -0.9673  1.1484
   28CHL1   H7B 2011   5.134   3.444   9.380  0.2425  1.4206 -0.3604
   28CHL1    C8 2012   5.322   3.513   9.304 -0.0901  0.3704  0.0974
   28CHL1    H8 2013   5.415   3.462   9.270 -0.1528  1.6688 -2.2437
   28CHL1   C14 2014   5.252   3.573   9.182  0.0867 -0.0042 -0.2237
   28CHL1   H14 2015   5.162   3.628   9.216  0.5682 -0.4275  1.8717
   28CHL1   C15 2016   5.187   3.492   9.073  0.7336 -0.1427 -0.3106
   28CHL1  H15A 2017   5.249   3.406   9.041 -2.4362 -2.7242 -0.0568
   28CHL1  H15B 2018   5.092   3.454   9.116  0.1999  2.2802  0.8548
   28CHL1   C16 2019   5.164   3.590   8.961 -0.3005 -0.4894 -0.0348
   28CHL1  H16A 2020   5.206   3.555   8.865 -1.5514  0.2300 -0.8694
   28CHL1  H16B 2021   5.058   3.618   8.944  0.4607  2.3203 -0.6674
   28CHL1   C17 2022   5.232   3.722   8.995 -0.0354  0.1406  0.4482
   28CHL1   H17 2023   5.163   3.792   9.047 -0.9992 -0.2447 -0.2897
   28CHL1   C13 2024   5.334   3.683   9.111 -0.2351 -0.2552  0.5502
   28CHL1   C18 2025   5.465   3.616   9.042  0.2463  0.9050 -0.0216
   28CHL1  H18A 2026   5.445   3.513   9.005 -0.7618  0.5002  1.5480
   28CHL1  H18B 2027   5.501   3.679   8.958 -1.8082  1.4163 -0.5637
   28CHL1  H18C 2028   5.548   3.596   9.113 -0.7806  0.5221  1.0966
   28CHL1   C12 2029   5.359   3.788   9.218 -0.1547  0.1422 -0.2497
   28CHL1  H12A 2030   5.413   3.872   9.170 -0.2027 -0.0538 -0.6521
   28CHL1  H12B 2031   5.265   3.826   9.263  1.7695  2.1117  2.3546
   28CHL1   C11 2032   5.449   3.737   9.327 -0.2019  0.5539  0.0442
   28CHL1  H11A 2033   5.549   3.705   9.291 -1.1389 -0.8442 -1.4553
   28CHL1  H11B 2034   5.442   3.827   9.391 -0.9406  1.5784 -1.4254
   28CHL1    C9 2035   5.368   3.620   9.400 -0.6210 -0.3219 -0.2999
   28CHL1    H9 2036   5.274   3.667   9.435 -0.3785 -0.1873  0.1723
   28CHL1   C10 2037   5.438   3.562   9.535  0.3572  0.5412  0.1776
   28CHL1   C19 2038   5.591   3.537   9.495  0.3786  0.0751 -0.1397
   28CHL1  H19A 2039   5.601   3.489   9.395 -0.3052 -0.6309  0.1216
   28CHL1  H19B 2040   5.648   3.633   9.491  1.3164 -0.4946 -1.0526
   28CHL1  H19C 2041   5.637   3.475   9.574  0.9025  0.9899  0.2934
   28CHL1    C1 2042   5.426   3.680   9.643  0.4733  0.3206 -0.0469
   28CHL1   H1A 2043   5.481   3.772   9.615  0.0004  0.8703  0.7931
   28CHL1   H1B 2044   5.317   3.701   9.647  0.3834  0.5050 -2.1182
   28CHL1    C2 2045   5.469   3.624   9.780 -0.6041 -0.4019 -0.5641
   28CHL1   H2A 2046   5.463   3.697   9.864 -0.9474 -1.3350  0.2438
   28CHL1   H2B 2047   5.577   3.599   9.771 -0.0863  0.9254  1.2988
   28CHL1   C20 2048   5.281   3.803   8.871  0.2080  0.6941  0.0135
   28CHL1   H20 2049   5.353   3.735   8.820  1.5716  0.2130  2.3985
   28CHL1   C21 2050   5.357   3.929   8.919  0.8204 -0.5346 -0.4991
   28CHL1  H21A 2051   5.388   3.982   8.827  0.5117  1.2388  0.3712
   28CHL1  H21B 2052   5.450   3.906   8.974  2.2870  2.5489 -1.4893
   28CHL1  H21C 2053   5.294   3.993   8.985 -1.1362 -2.1099 -0.7370
   28CHL1   C22 2054   5.168   3.844   8.768 -1.0077 -0.5139 -0.3559
   28CHL1  H22A 2055   5.105   3.753   8.767  0.6087 -1.8196  2.8757
   28CHL1  H22B 2056   5.113   3.930   8.812 -0.8566  0.5310 -2.1414
   28CHL1   C23 2057   5.226   3.875   8.634  0.5907 -0.7894  0.1963
   28CHL1  H23A 2058   5.325   3.925   8.643 -0.9289  2.2314  1.5924
   28CHL1  H23B 2059   5.247   3.785   8.572  1.2312 -0.5817  0.1033
   28CHL1   C24 2060   5.130   3.972   8.549  0.3026 -0.4620 -0.5919
   28CHL1  H24A 2061   5.030   3.925   8.552  0.1425 -0.1384 -0.8267
   28CHL1  H24B 2062   5.120   4.068   8.603 -0.9925 -0.0327 -1.5482
   28CHL1   C25 2063   5.165   4.003   8.402 -0.2185  0.1822  0.0548
   28CHL1   H25 2064   5.196   3.904   8.363  2.0649 -1.1778  4.6894
   28CHL1   C26 2065   5.043   4.059   8.334  0.2056  0.0468  0.0023
   28CHL1  H26A 2066   4.998   4.145   8.388 -1.9245 -2.9826  3.5631
   28CHL1  H26B 2067   5.066   4.075   8.226 -1.2165  0.4588 -0.2652
   28CHL1  H26C 2068   4.956   3.989   8.329 -0.0132  0.3881 -1.9208
   28CHL1   C27 2069   5.287   4.100   8.400 -0.7791 -0.1841  0.1541
   28CHL1  H27A 2070   5.267   4.179   8.476 -1.6299  0.8096 -1.0510
   28CHL1  H27B 2071   5.382   4.048   8.425 -0.6717  0.6397  1.5694
   28CHL1  H27C 2072   5.293   4.157   8.305  1.4004  0.1122  0.4150
   29CHL1    C3 2073   0.451   0.531   6.602 -0.6410  0.6005 -0.0140
   29CHL1    H3 2074   0.363   0.492   6.657 -0.5044 -0.5903 -0.6148
   29CHL1    O3 2075   0.436   0.507   6.459 -0.1165 -0.5166  0.2850
   29CHL1   H3' 2076   0.510   0.555   6.424 -1.1626  1.2284  0.3619
   29CHL1    C4 2077   0.464   0.679   6.617 -0.0512 -0.1639  0.2379
   29CHL1   H4A 2078   0.546   0.709   6.548 -1.2260 -0.7039 -1.4779
   29CHL1   H4B 2079   0.368   0.714   6.573 -0.5454 -0.1297  1.3332
   29CHL1    C5 2080   0.487   0.726   6.760 -0.2716  0.4754 -0.2905
   29CHL1    C6 2081   0.405   0.821   6.823  0.3552 -0.2238 -0.3639
   29CHL1    H6 2082   0.320   0.859   6.764 -1.2762 -1.7250  0.8982
   29CHL1    C7 2083   0.426   0.871   6.963  0.3297  0.2787 -0.7830
   29CHL1   H7A 2084   0.429   0.982   6.958 -1.8344  0.4405  0.5197
   29CHL1   H7B 2085   0.346   0.843   7.035  2.2267 -1.3222  0.8385
   29CHL1    C8 2086   0.561   0.820   7.027  0.9379  0.2118  0.1728
   29CHL1    H8 2087   0.640   0.891   6.995  1.6053 -0.9573 -0.8603
   29CHL1   C14 2088   0.543   0.820   7.183 -0.7645  0.4377  0.5899
   29CHL1   H14 2089   0.474   0.735   7.201  1.3243 -1.1982  1.2403
   29CHL1   C15 2090   0.494   0.944   7.250 -0.4902  0.8940  0.3638
   29CHL1  H15A 2091   0.548   1.029   7.205 -0.7579  0.1826 -1.4095
   29CHL1  H15B 2092   0.385   0.944   7.227 -0.2094  0.1591 -1.1048
   29CHL1   C16 2093   0.544   0.935   7.394  0.8703 -0.3599  0.5481
   29CHL1  H16A 2094   0.600   1.027   7.421  0.1764 -0.4403  2.4152
   29CHL1  H16B 2095   0.463   0.909   7.466  1.0177 -1.1000  0.4540
   29CHL1   C17 2096   0.639   0.805   7.397 -0.2170  0.0894 -0.2881
   29CHL1   H17 2097   0.577   0.720   7.432  0.3793  0.7046  2.5189
   29CHL1   C13 2098   0.679   0.779   7.256  0.0552 -0.5085  0.6997
   29CHL1   C18 2099   0.787   0.880   7.221  0.0751 -0.1571 -0.5854
   29CHL1  H18A 2100   0.764   0.981   7.261 -0.1290  0.1043 -1.3501
   29CHL1  H18B 2101   0.890   0.848   7.250 -0.4806 -1.5791 -0.1297
   29CHL1  H18C 2102   0.804   0.887   7.111  0.9778 -0.1533 -0.4537
   29CHL1   C12 2103   0.726   0.640   7.207  0.1723 -0.0221  0.0631
   29CHL1  H12A 2104   0.823   0.602   7.245  1.4627  2.1451 -0.9228
   29CHL1  H12B 2105   0.648   0.572   7.247  0.0027  0.0633 -0.1187
   29CHL1   C11 2106   0.730   0.628   7.051  0.1095 -0.2213 -0.3489
   29CHL1  H11A 2107   0.820   0.685   7.020  1.4918 -1.7920  0.6130
   29CHL1  H11B 2108   0.753   0.522   7.030  1.7258  0.1443 -0.5614
   29CHL1    C9 2109   0.598   0.678   6.983 -0.0203 -0.6943 -0.8275
   29CHL1    H9 2110   0.518   0.613   7.024  0.0281 -1.7500 -2.3440
   29CHL1   C10 2111   0.608   0.654   6.823  0.0063  0.6351 -0.7291
   29CHL1   C19 2112   0.730   0.732   6.780  0.0609  0.2357 -0.0984
   29CHL1  H19A 2113   0.823   0.701   6.832  0.8846  1.8459 -0.5732
   29CHL1  H19B 2114   0.767   0.710   6.678  1.6930 -1.0983  0.7330
   29CHL1  H19C 2115   0.730   0.840   6.802  1.7961 -0.0425  1.5301
   29CHL1    C1 2116   0.620   0.503   6.791 -0.2078 -0.3873  0.6195
   29CHL1   H1A 2117   0.725   0.470   6.803  0.4080 -0.1232 -2.9076
   29CHL1   H1B 2118   0.552   0.452   6.862  0.4075 -1.1102  0.7035
   29CHL1    C2 2119   0.591   0.474   6.639  0.5727 -0.1742 -0.8703
   29CHL1   H2A 2120   0.606   0.367   6.613 -0.2062 -1.2890  2.7503
   29CHL1   H2B 2121   0.663   0.529   6.574  0.0867 -0.2840 -1.5194
   29CHL1   C20 2122   0.744   0.817   7.504 -0.2043  0.4405 -0.6513
   29CHL1   H20 2123   0.809   0.903   7.478  0.2333  0.1076 -0.6637
   29CHL1   C21 2124   0.820   0.681   7.520 -0.6142  0.7851  0.4035
   29CHL1  H21A 2125   0.887   0.651   7.438  2.0154 -0.0506  2.7042
   29CHL1  H21B 2126   0.747   0.597   7.528  0.8733 -0.5343  0.7311
   29CHL1  H21C 2127   0.875   0.677   7.616 -0.0209 -0.2474  0.0321
   29CHL1   C22 2128   0.688   0.857   7.642 -0.2892 -1.2296 -0.4411
   29CHL1  H22A 2129   0.627   0.948   7.623 -0.5860 -0.9753  1.4739
   29CHL1  H22B 2130   0.633   0.773   7.690 -0.9596 -0.8618 -0.5509
   29CHL1   C23 2131   0.794   0.901   7.755  0.3536  0.6417  0.3383
   29CHL1  H23A 2132   0.841   0.809   7.796 -2.3161 -0.4919  1.1095
   29CHL1  H23B 2133   0.874   0.955   7.701  1.5585 -1.9331 -0.5814
   29CHL1   C24 2134   0.719   0.977   7.864 -0.1107 -0.2533  0.2115
   29CHL1  H24A 2135   0.701   1.080   7.826 -0.5876  0.0017  1.1014
   29CHL1  H24B 2136   0.621   0.926   7.872 -0.7844  0.7178 -1.3121
   29CHL1   C25 2137   0.796   0.990   7.995 -0.7904  0.0662  0.2256
   29CHL1   H25 2138   0.828   0.890   8.033  0.8393 -0.2166 -1.7097
   29CHL1   C26 2139   0.931   1.054   7.961  0.2718 -0.0982  0.0403
   29CHL1  H26A 2140   0.990   0.996   7.887  0.1949 -1.1514  0.7828
   29CHL1  H26B 2141   0.908   1.158   7.929  0.4209  0.6548  2.2327
   29CHL1  H26C 2142   0.989   1.061   8.055 -1.9095  0.7672  1.3970
   29CHL1   C27 2143   0.725   1.074   8.106  0.2426  0.1605  0.1569
   29CHL1  H27A 2144   0.724   1.175   8.059  1.4734 -0.9536 -2.5152
   29CHL1  H27B 2145   0.619   1.041   8.117 -0.3559  0.9076 -2.5893
   29CHL1  H27C 2146   0.782   1.076   8.201  1.4813 -1.0102 -0.5288
   30CHL1    C3 2147   5.393   6.236   7.221  0.8518 -0.3148 -0.3722
   30CHL1    H3 2148   5.498   6.219   7.252  0.4356 -0.5770  0.9225
   30CHL1    O3 2149   5.361   6.159   7.110  0.1693  0.0421 -0.0183
   30CHL1   H3' 2150   5.416   6.181   7.035 -2.2954 -0.4002 -2.0957
   30CHL1    C4 2151   5.298   6.209   7.338  0.4853 -0.4934  0.5164
   30CHL1   H4A 2152   5.190   6.222   7.315  0.5151  2.0936  1.4371
   30CHL1   H4B 2153   5.317   6.101   7.355 -0.0536 -1.1029 -2.2449
   30CHL1    C5 2154   5.342   6.288   7.453  0.4988 -0.5209 -0.2184
   30CHL1    C6 2155   5.381   6.232   7.566 -0.3654  0.1576 -0.1435
   30CHL1    H6 2156   5.397   6.123   7.565  1.7176  0.4399 -0.7776
   30CHL1    C7 2157   5.394   6.305   7.697 -0.7425  0.1725  1.0748
   30CHL1   H7A 2158   5.332   6.267   7.781  0.0501  0.8808  1.9990
   30CHL1   H7B 2159   5.500   6.300   7.731 -1.2086  0.5866  2.6540
   30CHL1    C8 2160   5.349   6.452   7.684 -0.0664 -0.2004  0.1722
   30CHL1    H8 2161   5.239   6.457   7.697 -0.1695  0.1847 -0.8157
   30CHL1   C14 2162   5.409   6.541   7.800 -0.3612 -0.2983  0.5349
   30CHL1   H14 2163   5.513   6.532   7.763 -0.9249  0.8111 -1.4765
   30CHL1   C15 2164   5.404   6.477   7.939 -0.3985 -0.1681  0.5644
   30CHL1  H15A 2165   5.303   6.435   7.957  0.4224 -2.9757 -0.8313
   30CHL1  H15B 2166   5.468   6.388   7.951 -0.3088 -0.7009 -2.9664
   30CHL1   C16 2167   5.452   6.592   8.026 -0.0365  0.8106  0.2369
   30CHL1  H16A 2168   5.385   6.609   8.112  0.2169 -1.4690  0.9391
   30CHL1  H16B 2169   5.555   6.573   8.063  0.4398  0.7582 -1.0650
   30CHL1   C17 2170   5.460   6.719   7.934  0.4509  0.6498 -0.4328
   30CHL1   H17 2171   5.566   6.724   7.900 -0.0627 -0.0066 -2.2071
   30CHL1   C13 2172   5.375   6.686   7.815 -0.2569  1.0866  0.5074
   30CHL1   C18 2173   5.226   6.694   7.839 -0.1523  1.1297 -0.5167
   30CHL1  H18A 2174   5.190   6.798   7.848  1.9940  1.7076  2.5514
   30CHL1  H18B 2175   5.172   6.643   7.756  1.5488 -2.3897  0.3211
   30CHL1  H18C 2176   5.199   6.646   7.935  0.5100  3.0775  0.6818
   30CHL1   C12 2177   5.421   6.744   7.680  0.0952 -0.5900 -0.9034
   30CHL1  H12A 2178   5.387   6.850   7.677 -0.9206 -0.9198 -1.0229
   30CHL1  H12B 2179   5.532   6.740   7.682  0.3405  3.0527  0.1541
   30CHL1   C11 2180   5.365   6.676   7.553 -0.6743 -0.6264  0.2092
   30CHL1  H11A 2181   5.258   6.700   7.538 -0.9100 -1.2461  0.8398
   30CHL1  H11B 2182   5.407   6.723   7.461  0.3660 -0.3756  0.7982
   30CHL1    C9 2183   5.386   6.519   7.553 -0.0810  0.4492  0.0484
   30CHL1    H9 2184   5.496   6.511   7.537 -0.0534  0.8286  0.0408
   30CHL1   C10 2185   5.325   6.443   7.435  0.3543 -0.0505 -0.3675
   30CHL1   C19 2186   5.175   6.477   7.417  0.3752  0.1810 -0.0913
   30CHL1  H19A 2187   5.123   6.485   7.515 -1.8239  1.1939 -1.2805
   30CHL1  H19B 2188   5.169   6.579   7.373 -2.6517 -0.4359 -1.2985
   30CHL1  H19C 2189   5.112   6.414   7.350 -1.6204  1.3135  0.6466
   30CHL1    C1 2190   5.399   6.480   7.306  0.3779  0.2670  0.3032
   30CHL1   H1A 2191   5.364   6.583   7.286 -0.3750 -0.1850 -0.7960
   30CHL1   H1B 2192   5.510   6.470   7.312  0.4729 -0.8824 -2.0759
   30CHL1    C2 2193   5.362   6.387   7.186 -0.6982  0.7800  0.2237
   30CHL1   H2A 2194   5.420   6.415   7.096 -0.9537 -0.4034 -0.3324
   30CHL1   H2B 2195   5.259   6.391   7.144 -0.6412 -2.0414 -0.4209
   30CHL1   C20 2196   5.423   6.852   8.012 -0.5954  0.5818  0.4354
   30CHL1   H20 2197   5.319   6.832   8.046 -0.8411 -1.0182 -1.1068
   30CHL1   C21 2198   5.431   6.969   7.920  0.3876  0.6655  0.2522
   30CHL1  H21A 2199   5.348   6.971   7.847 -0.7703  1.3619  1.5266
   30CHL1  H21B 2200   5.520   6.961   7.854  0.5467  0.6263  0.4670
   30CHL1  H21C 2201   5.443   7.067   7.971  0.5455  1.5147 -1.3477
   30CHL1   C22 2202   5.519   6.876   8.129  0.4113  0.7852 -0.1364
   30CHL1  H22A 2203   5.493   6.969   8.184  3.1018  2.0610 -0.8473
   30CHL1  H22B 2204   5.520   6.797   8.208 -0.4226  0.3315 -0.5659
   30CHL1   C23 2205   5.665   6.898   8.085 -0.6865  0.1739  0.1272
   30CHL1  H23A 2206   5.688   6.831   8.000 -1.1981 -0.9919  0.8834
   30CHL1  H23B 2207   5.680   7.004   8.055  1.4002  0.4253  1.7973
   30CHL1   C24 2208   5.762   6.877   8.203 -0.5102 -0.7637 -0.5664
   30CHL1  H24A 2209   5.733   6.958   8.273  0.1976 -0.1376 -0.9882
   30CHL1  H24B 2210   5.748   6.778   8.251  0.8971 -1.0394 -0.6784
   30CHL1   C25 2211   5.914   6.886   8.167 -0.1806 -0.3013 -0.0708
   30CHL1   H25 2212   5.929   6.953   8.080  0.6359 -0.3829 -0.0007
   30CHL1   C26 2213   5.990   6.923   8.299  0.1061  0.3820  0.0919
   30CHL1  H26A 2214   6.099   6.931   8.283  0.0208  0.0089 -0.6895
   30CHL1  H26B 2215   5.949   7.024   8.322 -1.7214 -0.2265 -0.3174
   30CHL1  H26C 2216   5.966   6.845   8.374 -0.1281  0.5902  0.2376
   30CHL1   C27 2217   5.949   6.739   8.120 -0.6024  0.3801 -0.1083
   30CHL1  H27A 2218   5.989   6.679   8.205 -1.4056  1.8114  1.3258
   30CHL1  H27B 2219   5.862   6.687   8.075 -0.5997 -0.3019  0.6550
   30CHL1  H27C 2220   6.025   6.740   8.038 -0.0759 -1.5249  0.2951
   31CHL1    C3 2221   3.596   1.564   6.719  0.0780  0.2209 -0.6497
   31CHL1    H3 2222   3.594   1.675   6.730 -0.5292  0.0765  1.1136
   31CHL1    O3 2223   3.546   1.529   6.595  0.4302  0.4959 -0.7082
   31CHL1   H3' 2224   3.453   1.548   6.582  0.7374  1.2276 -2.0200
   31CHL1    C4 2225   3.746   1.516   6.730  0.2414  0.1348 -0.1015
   31CHL1   H4A 2226   3.768   1.409   6.709  2.6814  0.8090 -1.3280
   31CHL1   H4B 2227   3.795   1.560   6.641 -1.7155  0.9725 -0.8202
   31CHL1    C5 2228   3.794   1.560   6.871  0.3552  0.4760  0.3508
   31CHL1    C6 2229   3.896   1.641   6.879  0.2983 -0.3582 -0.1707
   31CHL1    H6 2230   3.952   1.677   6.791 -1.1027 -1.2042 -1.4630
   31CHL1    C7 2231   3.933   1.697   7.014  0.3048 -0.4758 -0.6143
   31CHL1   H7A 2232   4.043   1.708   7.027 -0.0245  0.0394  2.8107
   31CHL1   H7B 2233   3.885   1.795   7.034  0.3369 -0.6926  0.6592
   31CHL1    C8 2234   3.886   1.610   7.133 -0.7346  0.0478  0.1384
   31CHL1    H8 2235   3.948   1.518   7.134 -0.7523 -0.0158 -1.7193
   31CHL1   C14 2236   3.912   1.683   7.262  0.0751 -0.4675 -0.5844
   31CHL1   H14 2237   3.853   1.778   7.256 -1.1064 -1.1763 -0.4287
   31CHL1   C15 2238   4.051   1.739   7.293 -0.3140  0.0683  0.1142
   31CHL1  H15A 2239   4.117   1.651   7.277 -0.7831  0.1043 -2.5760
   31CHL1  H15B 2240   4.077   1.828   7.231  0.5214  1.5397  2.4414
   31CHL1   C16 2241   4.044   1.783   7.441  0.8874 -0.2738  0.1233
   31CHL1  H16A 2242   4.138   1.754   7.494  1.3529 -2.9821 -1.9969
   31CHL1  H16B 2243   4.027   1.893   7.437 -2.6735 -0.7013  0.4278
   31CHL1   C17 2244   3.911   1.712   7.505  0.1388 -0.2006 -0.0707
   31CHL1   H17 2245   3.836   1.791   7.527  0.3840 -0.4931  1.9579
   31CHL1   C13 2246   3.871   1.620   7.396  0.1712 -0.0515  0.5783
   31CHL1   C18 2247   3.944   1.478   7.404 -0.2549  0.0018 -0.2542
   31CHL1  H18A 2248   3.921   1.410   7.320 -0.7984 -1.0183  0.6871
   31CHL1  H18B 2249   4.053   1.488   7.423 -0.4654  1.4086  0.3273
   31CHL1  H18C 2250   3.899   1.425   7.491  0.0817 -0.4678 -0.3614
   31CHL1   C12 2251   3.719   1.604   7.384  0.2761  0.0756 -0.1037
   31CHL1  H12A 2252   3.683   1.544   7.470  0.0244 -0.5415 -0.6347
   31CHL1  H12B 2253   3.666   1.702   7.374 -2.1960 -0.6549  3.8376
   31CHL1   C11 2254   3.682   1.524   7.256 -0.3836 -0.2041 -0.3178
   31CHL1  H11A 2255   3.712   1.418   7.269 -1.8293 -0.4037  1.8416
   31CHL1  H11B 2256   3.571   1.525   7.260 -0.3642  0.4781  0.0952
   31CHL1    C9 2257   3.739   1.586   7.123  0.1558 -0.1661 -0.3193
   31CHL1    H9 2258   3.693   1.687   7.117 -0.3390 -0.4183 -0.9382
   31CHL1   C10 2259   3.704   1.513   6.990  0.0058  0.1276 -0.4141
   31CHL1   C19 2260   3.723   1.363   7.002 -0.0673 -0.0843  0.2911
   31CHL1  H19A 2261   3.648   1.323   7.073 -0.8091  1.0080  0.1467
   31CHL1  H19B 2262   3.696   1.327   6.901  1.7069 -0.1403 -0.1983
   31CHL1  H19C 2263   3.828   1.334   7.026  1.3409  3.5886 -0.7165
   31CHL1    C1 2264   3.553   1.547   6.963  0.2584 -0.0434 -0.4361
   31CHL1   H1A 2265   3.498   1.496   7.045  2.2185  1.0930  1.7166
   31CHL1   H1B 2266   3.524   1.653   6.975  0.1518  0.0506 -1.4958
   31CHL1    C2 2267   3.500   1.505   6.826 -0.2750 -0.4288 -0.0364
   31CHL1   H2A 2268   3.399   1.548   6.810  0.2576  2.0565  2.4167
   31CHL1   H2B 2269   3.488   1.396   6.808  3.0112 -0.6649 -1.4787
   31CHL1   C20 2270   3.945   1.647   7.639 -0.6006 -0.6767 -0.0184
   31CHL1   H20 2271   4.016   1.566   7.609  0.6016 -0.3345  1.7606
   31CHL1   C21 2272   3.828   1.587   7.700  0.4171  0.5609 -0.1112
   31CHL1  H21A 2273   3.755   1.666   7.725 -0.6203  0.2776 -2.0010
   31CHL1  H21B 2274   3.855   1.529   7.790  2.6064 -0.0168 -1.0737
   31CHL1  H21C 2275   3.780   1.510   7.635 -2.2812  2.0061  0.0414
   31CHL1   C22 2276   4.012   1.742   7.741  0.2995 -0.6256 -0.1246
   31CHL1  H22A 2277   4.110   1.782   7.707  1.6973 -4.5964 -1.3129
   31CHL1  H22B 2278   3.949   1.829   7.771  2.6110  0.8735  0.6953
   31CHL1   C23 2279   4.055   1.660   7.872  0.2180 -0.1049  0.0017
   31CHL1  H23A 2280   3.973   1.625   7.938 -0.1275  0.4967 -0.0988
   31CHL1  H23B 2281   4.113   1.574   7.832  0.7136 -0.1697  0.8422
   31CHL1   C24 2282   4.137   1.746   7.968  0.2979 -0.3593  0.1697
   31CHL1  H24A 2283   4.225   1.783   7.912  0.0431 -0.1599 -0.1062
   31CHL1  H24B 2284   4.076   1.840   7.974 -0.0270 -0.6557  2.3664
   31CHL1   C25 2285   4.176   1.684   8.095 -0.1758  0.0463  0.2402
   31CHL1   H25 2286   4.079   1.663   8.147  0.0198 -0.7427  0.3001
   31CHL1   C26 2287   4.261   1.556   8.078  0.0378 -0.1561  0.1323
   31CHL1  H26A 2288   4.294   1.518   8.177  1.3395  2.5451  0.8477
   31CHL1  H26B 2289   4.199   1.480   8.027  0.0206 -0.6650  0.8970
   31CHL1  H26C 2290   4.349   1.590   8.018 -0.1912 -0.5826 -0.4477
   31CHL1   C27 2291   4.263   1.782   8.182 -0.6987  0.4255  0.6796
   31CHL1  H27A 2292   4.219   1.881   8.207  0.1081  1.3810 -1.4438
   31CHL1  H27B 2293   4.354   1.800   8.122  1.0493 -0.3831  2.9597
   31CHL1  H27C 2294   4.288   1.737   8.280  0.6239  0.7388  0.5016
   32CHL1    C3 2295   5.738   5.765   6.956  0.3154 -0.6768  0.0321
   32CHL1    H3 2296   5.849   5.769   6.957  0.2708  2.5279 -0.0485
   32CHL1    O3 2297   5.708   5.766   6.816  0.0967 -0.5888 -0.6490
   32CHL1   H3' 2298   5.772   5.831   6.787  0.4685 -0.5577  0.2221
   32CHL1    C4 2299   5.684   5.637   7.034 -0.3261 -0.1978  0.0160
   32CHL1   H4A 2300   5.586   5.605   6.992  2.2874 -2.4112 -5.3036
   32CHL1   H4B 2301   5.753   5.557   7.001  0.5100  0.5294 -0.0239
   32CHL1    C5 2302   5.688   5.655   7.186  0.1764  0.1450  0.1538
   32CHL1    C6 2303   5.739   5.559   7.259  0.2838  0.2109 -0.0472
   32CHL1    H6 2304   5.773   5.464   7.215  2.4493  0.8201  0.2239
   32CHL1    C7 2305   5.745   5.561   7.410  0.2312 -0.0534  0.5643
   32CHL1   H7A 2306   5.707   5.466   7.454 -0.5759  0.6711  1.4657
   32CHL1   H7B 2307   5.851   5.587   7.429 -0.4106  1.7620  2.0120
   32CHL1    C8 2308   5.650   5.678   7.469 -0.1098  0.0936 -0.1987
   32CHL1    H8 2309   5.543   5.651   7.467  0.1745 -1.0925 -0.1657
   32CHL1   C14 2310   5.697   5.703   7.616 -0.1532 -0.1453 -0.0446
   32CHL1   H14 2311   5.797   5.750   7.609  0.5198 -1.5248  0.0525
   32CHL1   C15 2312   5.710   5.585   7.715 -0.0016 -0.4557  0.3753
   32CHL1  H15A 2313   5.611   5.535   7.718 -1.6319  2.5639  2.1751
   32CHL1  H15B 2314   5.798   5.520   7.698 -0.5885 -1.1163 -0.1826
   32CHL1   C16 2315   5.723   5.660   7.850  0.3505  0.2204  0.1077
   32CHL1  H16A 2316   5.683   5.593   7.929  1.0689  1.5253  1.6482
   32CHL1  H16B 2317   5.832   5.659   7.873  0.6406  1.0157 -1.1379
   32CHL1   C17 2318   5.674   5.804   7.832 -0.0644 -0.4168 -0.3573
   32CHL1   H17 2319   5.766   5.865   7.817 -0.4464 -0.0665 -1.4326
   32CHL1   C13 2320   5.610   5.809   7.694  0.0673  0.5202  0.3064
   32CHL1   C18 2321   5.464   5.767   7.713 -0.3615 -0.6370 -0.0313
   32CHL1  H18A 2322   5.414   5.744   7.616 -2.5251  0.9056  0.6341
   32CHL1  H18B 2323   5.461   5.677   7.778  1.3866 -0.4055  0.4234
   32CHL1  H18C 2324   5.398   5.838   7.768  2.2979 -1.2457  4.4306
   32CHL1   C12 2325   5.607   5.936   7.611 -0.3004 -1.0285  0.5648
   32CHL1  H12A 2326   5.533   6.007   7.653 -0.9084 -0.8591 -0.7240
   32CHL1  H12B 2327   5.707   5.983   7.628 -1.6635  1.4586  2.2096
   32CHL1   C11 2328   5.579   5.915   7.460  0.0585 -0.2993 -0.2381
   32CHL1  H11A 2329   5.475   5.876   7.449 -0.0191 -0.0448 -0.4032
   32CHL1  H11B 2330   5.568   6.008   7.400 -0.0164 -1.6097 -2.3545
   32CHL1    C9 2331   5.666   5.808   7.393 -0.3225 -0.4625  0.1143
   32CHL1    H9 2332   5.770   5.845   7.401  0.1493 -1.7858  0.2173
   32CHL1   C10 2333   5.636   5.791   7.238 -0.1551 -0.1471 -0.2502
   32CHL1   C19 2334   5.486   5.780   7.214 -0.0503 -0.1283 -0.5014
   32CHL1  H19A 2335   5.443   5.702   7.280  2.1980 -0.0222  1.2259
   32CHL1  H19B 2336   5.437   5.877   7.233  0.2720 -0.0566 -0.0060
   32CHL1  H19C 2337   5.471   5.765   7.105  1.2598  1.2353 -0.8970
   32CHL1    C1 2338   5.708   5.903   7.164 -0.3352 -0.2535  0.3314
   32CHL1   H1A 2339   5.671   6.002   7.198  0.1302 -0.0074  0.1310
   32CHL1   H1B 2340   5.816   5.912   7.187 -0.6404  1.8277  1.0850
   32CHL1    C2 2341   5.681   5.894   7.011 -0.5634 -0.2660 -0.5768
   32CHL1   H2A 2342   5.733   5.984   6.974  1.9409  1.1479  5.2055
   32CHL1   H2B 2343   5.575   5.919   6.986  0.1108  1.3998 -1.9017
   32CHL1   C20 2344   5.606   5.882   7.954  0.0242  0.3971  0.1916
   32CHL1   H20 2345   5.498   5.861   7.970  0.0999  1.7090  2.9743
   32CHL1   C21 2346   5.606   6.033   7.925  0.2304  0.5458 -0.1984
   32CHL1  H21A 2347   5.560   6.092   8.007 -1.3004 -1.5389  0.5406
   32CHL1  H21B 2348   5.547   6.067   7.837  1.9148  2.5860 -0.6027
   32CHL1  H21C 2349   5.711   6.063   7.908  0.8707 -1.4329 -0.0650
   32CHL1   C22 2350   5.678   5.852   8.091  0.6299  0.1089 -0.0368
   32CHL1  H22A 2351   5.691   5.742   8.101 -0.8480  0.1099  3.1258
   32CHL1  H22B 2352   5.776   5.903   8.089  0.1380  1.1016  0.6037
   32CHL1   C23 2353   5.602   5.898   8.220  0.1820 -0.5614 -0.1038
   32CHL1  H23A 2354   5.593   6.009   8.221  0.5654 -0.5240  1.7759
   32CHL1  H23B 2355   5.496   5.864   8.226  0.5876 -2.0482 -0.7720
   32CHL1   C24 2356   5.679   5.860   8.350  0.0669  0.8594  0.2571
   32CHL1  H24A 2357   5.678   5.750   8.370  1.2597  0.9552  0.9701
   32CHL1  H24B 2358   5.787   5.881   8.335  0.5379 -1.9493 -0.9425
   32CHL1   C25 2359   5.629   5.930   8.472 -0.3188  0.6182  0.5679
   32CHL1   H25 2360   5.634   6.040   8.455 -1.0081  0.3845 -1.3591
   32CHL1   C26 2361   5.490   5.892   8.499 -0.2743  0.3761  0.9160
   32CHL1  H26A 2362   5.456   5.926   8.599  1.3569 -0.1554  1.6986
   32CHL1  H26B 2363   5.417   5.934   8.427 -1.3656  0.7154  2.1936
   32CHL1  H26C 2364   5.483   5.781   8.501  1.3446  0.1900 -0.8043
   32CHL1   C27 2365   5.713   5.891   8.603  0.1283  0.0397 -0.2930
   32CHL1  H27A 2366   5.803   5.957   8.593  0.7858 -0.9248 -0.9550
   32CHL1  H27B 2367   5.648   5.917   8.689  0.0457 -1.1077  0.0129
   32CHL1  H27C 2368   5.742   5.784   8.595 -1.0983 -0.5205  2.0195
   33CHL1    C3 2369   5.851   6.580   6.866  0.2594 -0.6359  0.0161
   33CHL1    H3 2370   5.936   6.514   6.838  1.4247  0.5764  0.5794
   33CHL1    O3 2371   5.801   6.637   6.747  0.2117  0.0519 -0.1512
   33CHL1   H3' 2372   5.878   6.683   6.713  2.3894 -2.8498  0.4590
   33CHL1    C4 2373   5.729   6.514   6.934 -0.7997 -0.5477 -0.8326
   33CHL1   H4A 2374   5.649   6.589   6.951  1.2207  1.6262 -0.3520
   33CHL1   H4B 2375   5.682   6.440   6.866  0.9078 -0.4642 -2.1527
   33CHL1    C5 2376   5.770   6.456   7.075  0.8749 -0.5568  0.3049
   33CHL1    C6 2377   5.749   6.323   7.107  0.0961 -0.3617 -0.3887
   33CHL1    H6 2378   5.691   6.258   7.040  0.5445  0.7904 -1.9443
   33CHL1    C7 2379   5.789   6.256   7.235  0.2577 -0.1474 -0.3156
   33CHL1   H7A 2380   5.712   6.189   7.278  0.6958 -1.2508 -1.1805
   33CHL1   H7B 2381   5.882   6.196   7.226 -1.0011 -1.9514 -2.1783
   33CHL1    C8 2382   5.822   6.366   7.344  0.6810 -0.4043  0.6036
   33CHL1    H8 2383   5.721   6.409   7.362  1.0681 -0.2142  2.4902
   33CHL1   C14 2384   5.883   6.311   7.471 -0.3599  0.1629  0.4317
   33CHL1   H14 2385   5.991   6.290   7.453 -0.3286 -0.4191  1.2518
   33CHL1   C15 2386   5.823   6.184   7.525  0.1652  0.1964 -0.1997
   33CHL1  H15A 2387   5.714   6.204   7.524 -0.0244  0.2964  4.1208
   33CHL1  H15B 2388   5.851   6.101   7.456 -0.6831  0.7867 -1.2890
   33CHL1   C16 2389   5.873   6.166   7.664  0.2781  0.1556  0.1982
   33CHL1  H16A 2390   5.780   6.158   7.724 -1.8762  2.8653 -2.4202
   33CHL1  H16B 2391   5.936   6.081   7.694 -1.1024 -0.7929  0.5181
   33CHL1   C17 2392   5.946   6.301   7.696  0.6848 -0.2206  0.4928
   33CHL1   H17 2393   6.052   6.267   7.686 -0.6104 -4.7898  0.0247
   33CHL1   C13 2394   5.900   6.404   7.587 -0.3866 -0.4122 -0.4451
   33CHL1   C18 2395   5.753   6.448   7.617 -0.3535 -0.5335  0.0150
   33CHL1  H18A 2396   5.695   6.361   7.654 -0.7170  0.1541  1.1071
   33CHL1  H18B 2397   5.742   6.522   7.699  2.3474  0.3344 -0.3053
   33CHL1  H18C 2398   5.709   6.499   7.528  0.8887  0.6447  0.0460
   33CHL1   C12 2399   5.994   6.511   7.535  0.5791 -1.0466  0.1439
   33CHL1  H12A 2400   6.026   6.585   7.611 -0.5151 -0.6323  0.2201
   33CHL1  H12B 2401   6.092   6.464   7.510  1.1553  0.3313 -0.2520
   33CHL1   C11 2402   5.941   6.583   7.403  0.3708  0.9495 -0.5737
   33CHL1  H11A 2403   5.857   6.649   7.433  0.6187  1.3290 -0.6981
   33CHL1  H11B 2404   6.012   6.657   7.359 -1.4800  2.8032 -0.5599
   33CHL1    C9 2405   5.905   6.482   7.287  0.5033 -0.0335  0.0466
   33CHL1    H9 2406   5.997   6.427   7.258 -0.2605 -1.3454  0.0373
   33CHL1   C10 2407   5.841   6.556   7.163  0.2444 -0.5145 -0.7705
   33CHL1   C19 2408   5.732   6.665   7.214  0.4311 -0.4552 -0.1372
   33CHL1  H19A 2409   5.651   6.622   7.277 -0.6783  0.7476 -0.6953
   33CHL1  H19B 2410   5.777   6.743   7.280  0.6370 -1.2853  0.7129
   33CHL1  H19C 2411   5.685   6.716   7.126 -1.1977  0.1809  1.0582
   33CHL1    C1 2412   5.949   6.647   7.085  0.2911  0.4104 -0.6175
   33CHL1   H1A 2413   5.958   6.736   7.152  0.6272  0.2731 -0.4831
   33CHL1   H1B 2414   6.044   6.591   7.091 -0.4028 -0.8466 -0.9691
   33CHL1    C2 2415   5.904   6.694   6.948  0.6718 -0.1603 -0.2543
   33CHL1   H2A 2416   5.988   6.746   6.897  0.7511  0.3865  0.4247
   33CHL1   H2B 2417   5.823   6.769   6.964 -0.3947 -0.5684 -3.1573
   33CHL1   C20 2418   5.921   6.333   7.845 -0.3461 -0.0541 -0.9576
   33CHL1   H20 2419   5.813   6.355   7.862 -0.1580  0.1564  0.0191
   33CHL1   C21 2420   5.999   6.456   7.875 -0.3608  0.2705  0.1869
   33CHL1  H21A 2421   5.953   6.548   7.834 -0.5698  0.6140  1.1685
   33CHL1  H21B 2422   6.108   6.455   7.853 -0.0841  0.1368  1.4583
   33CHL1  H21C 2423   6.000   6.478   7.984  0.1366 -1.6570  0.6120
   33CHL1   C22 2424   5.973   6.217   7.939 -0.4552  0.3855  0.2032
   33CHL1  H22A 2425   5.920   6.119   7.933  2.0958 -1.1148  0.5706
   33CHL1  H22B 2426   6.081   6.204   7.915 -0.3635 -0.5731  1.0503
   33CHL1   C23 2427   5.978   6.253   8.089  0.2093 -0.0409  0.2458
   33CHL1  H23A 2428   6.040   6.175   8.140  1.6708  1.0623  0.2331
   33CHL1  H23B 2429   6.020   6.349   8.127 -1.1995 -0.5222  3.3774
   33CHL1   C24 2430   5.839   6.255   8.160 -0.3224 -0.7553 -0.5134
   33CHL1  H24A 2431   5.774   6.317   8.095  1.2012  0.9823 -0.4663
   33CHL1  H24B 2432   5.782   6.159   8.155 -0.2132 -0.7623 -2.5537
   33CHL1   C25 2433   5.841   6.328   8.300  0.5346  0.1402 -0.3160
   33CHL1   H25 2434   5.866   6.435   8.282  0.5040  0.4670  1.3799
   33CHL1   C26 2435   5.694   6.335   8.349  0.4077  0.0468 -1.1306
   33CHL1  H26A 2436   5.657   6.232   8.369  0.4685  0.0109 -1.2006
   33CHL1  H26B 2437   5.685   6.387   8.446 -0.0746 -1.5227 -0.2982
   33CHL1  H26C 2438   5.624   6.383   8.277 -2.2439  1.4574  2.1300
   33CHL1   C27 2439   5.919   6.259   8.409  0.4751 -0.4001  0.2107
   33CHL1  H27A 2440   5.878   6.156   8.407 -1.8990  0.4601 -3.0786
   33CHL1  H27B 2441   6.029   6.247   8.402  0.7366 -0.1791  2.8918
   33CHL1  H27C 2442   5.896   6.300   8.510  1.2704 -0.8207  0.5709
   34CHL1    C3 2443   0.915   3.277   7.068  0.2363 -0.9473  0.2543
   34CHL1    H3 2444   0.961   3.176   7.074  0.8553 -0.6112  2.2720
   34CHL1    O3 2445   0.883   3.306   6.934 -0.2483  0.3911 -0.6379
   34CHL1   H3' 2446   0.825   3.382   6.925 -3.0442 -1.4940  0.0876
   34CHL1    C4 2447   0.792   3.277   7.163 -0.1484  0.1607  0.7260
   34CHL1   H4A 2448   0.743   3.376   7.153 -1.5265 -0.6092 -0.4802
   34CHL1   H4B 2449   0.722   3.197   7.129  0.0044  0.3916 -0.1535
   34CHL1    C5 2450   0.821   3.253   7.309 -0.3781  0.7179  0.7031
   34CHL1    C6 2451   0.764   3.158   7.388  0.1987 -0.2141  0.0006
   34CHL1    H6 2452   0.698   3.092   7.330  0.4912  0.7451 -1.4923
   34CHL1    C7 2453   0.787   3.125   7.534  0.1004  0.2403 -0.1897
   34CHL1   H7A 2454   0.693   3.110   7.592  0.0301 -0.8880 -0.5650
   34CHL1   H7B 2455   0.841   3.028   7.546  0.5811  0.6207  0.8848
   34CHL1    C8 2456   0.865   3.237   7.603  0.1662 -0.7085  0.4113
   34CHL1    H8 2457   0.793   3.320   7.617  2.0492  1.0763 -0.0370
   34CHL1   C14 2458   0.917   3.185   7.732 -0.1478 -0.1858  0.5491
   34CHL1   H14 2459   0.993   3.113   7.696 -0.6418  0.0014 -0.9288
   34CHL1   C15 2460   0.823   3.111   7.833  0.3492  0.8367  0.0648
   34CHL1  H15A 2461   0.739   3.183   7.840  0.1545  1.0847 -3.1667
   34CHL1  H15B 2462   0.779   3.013   7.807  2.3570 -0.2472  0.5007
   34CHL1   C16 2463   0.910   3.107   7.962 -0.6825 -0.6514  1.4225
   34CHL1  H16A 2464   0.855   3.157   8.045 -1.8025 -1.8915  1.4750
   34CHL1  H16B 2465   0.929   3.001   7.989  1.6741 -0.8975 -0.8075
   34CHL1   C17 2466   1.040   3.189   7.935 -0.2040  0.5445 -0.2612
   34CHL1   H17 2467   1.107   3.112   7.892  0.1904 -0.2812  1.7251
   34CHL1   C13 2468   1.007   3.281   7.813  0.0657  0.0455 -0.7585
   34CHL1   C18 2469   0.928   3.405   7.863  0.2705 -0.6894 -0.1839
   34CHL1  H18A 2470   0.986   3.473   7.929 -3.1834  2.3836 -0.0222
   34CHL1  H18B 2471   0.879   3.463   7.782 -0.6021 -1.6842 -0.3960
   34CHL1  H18C 2472   0.849   3.373   7.934 -0.0172 -0.7824 -0.5444
   34CHL1   C12 2473   1.125   3.322   7.719 -0.8553 -0.4644 -0.2335
   34CHL1  H12A 2474   1.182   3.408   7.760 -1.4883  0.2506 -0.8249
   34CHL1  H12B 2475   1.194   3.237   7.706  2.3946  2.0884 -0.8798
   34CHL1   C11 2476   1.082   3.380   7.586 -0.4299  0.1342 -0.2335
   34CHL1  H11A 2477   1.045   3.484   7.599 -1.4649 -0.2720  0.1989
   34CHL1  H11B 2478   1.176   3.387   7.527 -1.5363 -1.8761 -2.4313
   34CHL1    C9 2479   0.981   3.287   7.512  0.3140  0.3100  0.1770
   34CHL1    H9 2480   1.045   3.199   7.488  0.6597  0.2826  1.1532
   34CHL1   C10 2481   0.928   3.343   7.374  0.4455 -0.0972  0.5948
   34CHL1   C19 2482   0.863   3.484   7.401  0.3261  0.7644  0.3333
   34CHL1  H19A 2483   0.918   3.552   7.469  1.9658  0.2120 -0.3856
   34CHL1  H19B 2484   0.866   3.531   7.301  0.6223 -0.3543 -0.1992
   34CHL1  H19C 2485   0.753   3.477   7.412  0.1036 -1.5459 -2.1997
   34CHL1    C1 2486   1.046   3.359   7.273  0.0498 -0.4551  0.3120
   34CHL1   H1A 2487   1.095   3.452   7.310  1.5879 -1.2378  0.3229
   34CHL1   H1B 2488   1.103   3.266   7.291 -0.2090 -0.5618  0.5840
   34CHL1    C2 2489   1.011   3.389   7.123 -0.3253 -0.1196 -0.0985
   34CHL1   H2A 2490   1.108   3.379   7.070  1.3139 -1.3827  2.9013
   34CHL1   H2B 2491   0.969   3.491   7.109 -0.5483 -0.0719  0.8440
   34CHL1   C20 2492   1.102   3.243   8.060  0.3659 -0.5736  0.5033
   34CHL1   H20 2493   1.023   3.311   8.099  0.6117 -0.3341  0.5907
   34CHL1   C21 2494   1.229   3.319   8.022 -0.1219 -0.0730 -0.1048
   34CHL1  H21A 2495   1.307   3.261   7.969  1.4288  2.8542 -1.2046
   34CHL1  H21B 2496   1.271   3.368   8.112 -0.2334  0.2412 -0.2229
   34CHL1  H21C 2497   1.195   3.405   7.960  2.0338  0.2448 -0.9203
   34CHL1   C22 2498   1.140   3.143   8.165 -0.4290 -0.1659  0.1182
   34CHL1  H22A 2499   1.145   3.048   8.107  0.1099  1.5118 -2.7585
   34CHL1  H22B 2500   1.234   3.172   8.217 -1.2910  2.1328  0.4815
   34CHL1   C23 2501   1.041   3.119   8.282 -0.4464  0.0317  0.0478
   34CHL1  H23A 2502   1.043   3.198   8.361  0.4318  0.1837 -0.1144
   34CHL1  H23B 2503   0.937   3.114   8.246 -0.1350  1.3379 -1.1258
   34CHL1   C24 2504   1.071   2.985   8.346  0.8658 -0.3953 -0.4290
   34CHL1  H24A 2505   1.052   2.898   8.279  1.3846  0.7166 -2.0674
   34CHL1  H24B 2506   1.173   2.990   8.389 -0.2366  2.3350  2.1674
   34CHL1   C25 2507   0.988   2.969   8.480  0.6645  0.3813 -0.2882
   34CHL1   H25 2508   1.009   3.063   8.537 -0.3266  1.6308 -1.8975
   34CHL1   C26 2509   0.840   2.954   8.462 -0.4842 -0.6947 -0.8897
   34CHL1  H26A 2510   0.790   2.981   8.557 -1.1315  1.6479 -1.8235
   34CHL1  H26B 2511   0.806   3.035   8.393  1.5208  1.3970  0.4266
   34CHL1  H26C 2512   0.805   2.854   8.429  1.4272 -1.9506  0.6706
   34CHL1   C27 2513   1.044   2.853   8.562 -0.6555  0.4894  0.1060
   34CHL1  H27A 2514   1.056   2.768   8.491  2.0322 -1.1672  2.3210
   34CHL1  H27B 2515   1.147   2.872   8.600 -0.4408  1.2905 -0.8324
   34CHL1  H27C 2516   0.980   2.820   8.646 -0.6055  0.6854  0.2193
   35CHL1    C3 2517   3.784   6.577   7.245  0.6443  0.2830 -0.1099
   35CHL1    H3 2518   3.749   6.682   7.257 -0.7659 -0.2952  1.1788
   35CHL1    O3 2519   3.837   6.578   7.118 -0.0521  0.6249  0.9528
   35CHL1   H3' 2520   3.901   6.507   7.123 -0.4398  0.2818  1.1565
   35CHL1    C4 2521   3.896   6.543   7.348 -0.1246 -0.5196 -0.0424
   35CHL1   H4A 2522   3.933   6.443   7.316  0.3250 -0.7981  1.2928
   35CHL1   H4B 2523   3.973   6.623   7.338  2.0217 -2.6274 -1.5210
   35CHL1    C5 2524   3.835   6.538   7.486 -1.0144 -0.3380 -0.0853
   35CHL1    C6 2525   3.882   6.623   7.578 -0.7420 -0.2133  0.0334
   35CHL1    H6 2526   3.967   6.690   7.560 -0.3986 -0.4255  0.8355
   35CHL1    C7 2527   3.831   6.613   7.714 -0.4043  0.2662 -0.0335
   35CHL1   H7A 2528   3.911   6.633   7.788  0.1732 -0.1409 -0.5356
   35CHL1   H7B 2529   3.760   6.697   7.729 -0.5673  0.0145  0.6502
   35CHL1    C8 2530   3.762   6.486   7.751  0.1560  0.8152 -0.6045
   35CHL1    H8 2531   3.835   6.403   7.760  1.9614  2.5075  1.2973
   35CHL1   C14 2532   3.698   6.497   7.886 -0.3132 -0.3110  0.0193
   35CHL1   H14 2533   3.620   6.575   7.868  1.1875  2.0028  2.8008
   35CHL1   C15 2534   3.789   6.563   7.990 -0.4838 -0.4638  0.2396
   35CHL1  H15A 2535   3.886   6.512   7.977 -0.1954  0.4985 -1.8766
   35CHL1  H15B 2536   3.797   6.671   7.967 -0.9688 -0.8036 -1.7032
   35CHL1   C16 2537   3.725   6.528   8.120  0.3127  0.1138  0.4208
   35CHL1  H16A 2538   3.783   6.473   8.197 -1.9133  0.7367  2.6636
   35CHL1  H16B 2539   3.692   6.624   8.163 -0.3589  0.4660 -0.8189
   35CHL1   C17 2540   3.592   6.446   8.084 -0.5941 -0.3351 -0.2564
   35CHL1   H17 2541   3.508   6.517   8.075 -0.9898 -0.2311  2.9725
   35CHL1   C13 2542   3.623   6.381   7.947 -0.2920  0.5042 -0.2907
   35CHL1   C18 2543   3.713   6.258   7.974 -0.1550 -0.2041 -0.4521
   35CHL1  H18A 2544   3.804   6.285   8.031 -0.7711  1.0115 -0.0125
   35CHL1  H18B 2545   3.658   6.172   8.019  0.4225 -0.0367  0.5850
   35CHL1  H18C 2546   3.746   6.216   7.876  0.3447  0.3260 -0.5164
   35CHL1   C12 2547   3.509   6.356   7.842 -1.0097 -1.0225  0.5527
   35CHL1  H12A 2548   3.456   6.261   7.864 -0.4006 -0.9376  2.5427
   35CHL1  H12B 2549   3.440   6.443   7.833  1.3937  1.0362  0.9713
   35CHL1   C11 2550   3.569   6.336   7.695  0.5698  0.2401  0.4725
   35CHL1  H11A 2551   3.637   6.249   7.709  1.2784  0.5638 -0.7580
   35CHL1  H11B 2552   3.488   6.299   7.628  0.8161  0.1875  0.1986
   35CHL1    C9 2553   3.657   6.459   7.645 -0.4835 -0.0949 -0.8344
   35CHL1    H9 2554   3.592   6.550   7.645 -0.2443  0.0745 -1.0424
   35CHL1   C10 2555   3.721   6.441   7.509 -0.3110  0.3492 -0.1558
   35CHL1   C19 2556   3.772   6.293   7.502  0.0428  0.1620  0.5629
   35CHL1  H19A 2557   3.685   6.233   7.471 -0.3577  0.9891  0.0472
   35CHL1  H19B 2558   3.848   6.276   7.423 -1.1131 -2.2779 -0.1085
   35CHL1  H19C 2559   3.801   6.252   7.601 -1.4684  1.1603  1.4558
   35CHL1    C1 2560   3.617   6.476   7.397  0.5784 -0.6635 -0.8772
   35CHL1   H1A 2561   3.544   6.394   7.414  0.1612 -1.1337 -4.2131
   35CHL1   H1B 2562   3.555   6.567   7.410  0.8317 -0.5996 -0.0897
   35CHL1    C2 2563   3.663   6.480   7.251 -0.0063  0.0212 -0.1445
   35CHL1   H2A 2564   3.580   6.510   7.184  0.1901 -0.2318 -0.5009
   35CHL1   H2B 2565   3.691   6.380   7.213 -3.7065 -0.7224 -1.2669
   35CHL1   C20 2566   3.555   6.352   8.203 -0.9157  0.5397 -0.2478
   35CHL1   H20 2567   3.633   6.273   8.203 -0.4542  0.9715  0.7725
   35CHL1   C21 2568   3.424   6.273   8.163  0.1979 -0.1384  0.3095
   35CHL1  H21A 2569   3.331   6.332   8.166  0.8525  0.8803  2.1056
   35CHL1  H21B 2570   3.413   6.182   8.226 -0.5992 -0.7679 -0.7142
   35CHL1  H21C 2571   3.435   6.240   8.058 -0.8683 -0.1790  0.2020
   35CHL1   C22 2572   3.567   6.400   8.348 -0.1132  0.6557 -0.0108
   35CHL1  H22A 2573   3.665   6.448   8.370 -0.0328 -0.3913  2.2419
   35CHL1  H22B 2574   3.491   6.480   8.364 -0.7233 -0.1329  1.1767
   35CHL1   C23 2575   3.552   6.299   8.464 -0.3243  0.5947 -0.2281
   35CHL1  H23A 2576   3.570   6.352   8.561  0.1414 -1.5770  0.9387
   35CHL1  H23B 2577   3.442   6.283   8.471 -0.8386  3.9387  1.8509
   35CHL1   C24 2578   3.635   6.167   8.467  0.8195 -0.8179  0.4117
   35CHL1  H24A 2579   3.581   6.099   8.399  2.0317 -0.4320 -0.9683
   35CHL1  H24B 2580   3.739   6.171   8.430  0.9519 -2.4205  0.5434
   35CHL1   C25 2581   3.638   6.096   8.606 -0.3130  0.0578  0.5398
   35CHL1   H25 2582   3.686   6.165   8.679  0.3717  1.5256 -1.2257
   35CHL1   C26 2583   3.494   6.055   8.647 -0.0241 -0.3639 -0.3137
   35CHL1  H26A 2584   3.425   6.135   8.680 -2.3181 -1.3223 -2.5285
   35CHL1  H26B 2585   3.449   5.992   8.568  1.1072 -1.7224  0.0745
   35CHL1  H26C 2586   3.513   5.990   8.735  0.0078  0.5970  0.4105
   35CHL1   C27 2587   3.720   5.959   8.590 -0.3246 -1.1564 -0.3360
   35CHL1  H27A 2588   3.728   5.907   8.688 -0.4352  1.6313  1.2517
   35CHL1  H27B 2589   3.824   5.979   8.557 -0.8236 -0.1316 -1.3260
   35CHL1  H27C 2590   3.676   5.883   8.521  0.6536 -0.6411 -1.5704
   36CHL1    C3 2591   4.688   5.956   7.052  0.3218 -0.2920  0.2884
   36CHL1    H3 2592   4.765   5.878   7.070 -0.0020 -1.1152 -1.6361
   36CHL1    O3 2593   4.636   5.938   6.925  0.1828  0.6801 -0.6657
   36CHL1   H3' 2594   4.552   5.983   6.916 -0.0766  0.3401 -0.0222
   36CHL1    C4 2595   4.574   5.918   7.155 -0.7281  0.1588 -0.4639
   36CHL1   H4A 2596   4.482   5.965   7.114 -0.1631  0.6293 -1.2279
   36CHL1   H4B 2597   4.559   5.808   7.145 -1.2340  0.4155 -3.4390
   36CHL1    C5 2598   4.602   5.963   7.299 -0.2413  0.7033  0.0461
   36CHL1    C6 2599   4.587   5.881   7.404 -0.5985 -0.2411 -0.0081
   36CHL1    H6 2600   4.537   5.786   7.380 -0.4617 -0.0258 -1.1759
   36CHL1    C7 2601   4.626   5.904   7.549 -0.5558  0.4660 -0.1331
   36CHL1   H7A 2602   4.543   5.874   7.617  0.5000 -1.6339  0.3323
   36CHL1   H7B 2603   4.718   5.848   7.577 -0.2715  1.3898  0.8471
   36CHL1    C8 2604   4.662   6.054   7.574 -0.0862  0.0017  0.9203
   36CHL1    H8 2605   4.566   6.109   7.567 -0.5957 -0.8072  1.5021
   36CHL1   C14 2606   4.729   6.076   7.699 -0.1067  0.3003 -0.3244
   36CHL1   H14 2607   4.827   6.025   7.690 -0.1635  0.4339 -2.2610
   36CHL1   C15 2608   4.661   6.012   7.818 -0.1090  0.1580  0.0009
   36CHL1  H15A 2609   4.550   6.016   7.820 -0.2552 -2.0580 -0.7358
   36CHL1  H15B 2610   4.681   5.903   7.822 -0.3895  0.1122  0.1716
   36CHL1   C16 2611   4.726   6.093   7.939  0.8240 -0.0279  0.5004
   36CHL1  H16A 2612   4.635   6.140   7.981  0.8173  0.1607  0.2783
   36CHL1  H16B 2613   4.778   6.025   8.010 -1.7084 -0.2130  2.2801
   36CHL1   C17 2614   4.809   6.209   7.878  0.4464  0.2742 -0.1899
   36CHL1   H17 2615   4.906   6.157   7.863 -1.0908 -2.3895 -1.8724
   36CHL1   C13 2616   4.760   6.222   7.733 -0.3582  0.5627  0.4106
   36CHL1   C18 2617   4.632   6.315   7.727 -0.0799 -0.1409 -0.4001
   36CHL1  H18A 2618   4.647   6.419   7.765  2.9327 -1.0577  1.2418
   36CHL1  H18B 2619   4.592   6.324   7.624 -1.7048 -3.8608 -0.2172
   36CHL1  H18C 2620   4.543   6.273   7.778 -1.1497  1.1553 -1.1183
   36CHL1   C12 2621   4.861   6.267   7.634  0.8395  0.2215  0.3483
   36CHL1  H12A 2622   4.894   6.373   7.646  2.4526  0.2847 -3.1695
   36CHL1  H12B 2623   4.947   6.203   7.664 -0.3157 -1.8012 -0.4639
   36CHL1   C11 2624   4.811   6.244   7.485 -0.2293 -0.1971  0.7362
   36CHL1  H11A 2625   4.741   6.329   7.471  1.1666  0.8185 -0.4847
   36CHL1  H11B 2626   4.897   6.262   7.417 -0.2667  3.1857  1.3917
   36CHL1    C9 2627   4.751   6.103   7.457 -0.3231  0.0133 -0.3469
   36CHL1    H9 2628   4.829   6.025   7.444  0.2347  0.2823  1.1804
   36CHL1   C10 2629   4.680   6.094   7.320 -0.7140 -0.0957 -0.4717
   36CHL1   C19 2630   4.583   6.209   7.298  1.0025 -0.3731 -0.4183
   36CHL1  H19A 2631   4.519   6.226   7.387 -1.0460 -0.6815 -1.7599
   36CHL1  H19B 2632   4.628   6.305   7.265  1.9248 -0.4554  0.5447
   36CHL1  H19C 2633   4.512   6.195   7.213  1.3043  1.3379 -0.9904
   36CHL1    C1 2634   4.787   6.116   7.213 -0.2527 -0.0903  0.6692
   36CHL1   H1A 2635   4.823   6.220   7.204 -1.5601  0.1961 -2.2339
   36CHL1   H1B 2636   4.876   6.052   7.231 -0.5955 -0.2179  2.0363
   36CHL1    C2 2637   4.735   6.094   7.067 -0.9501 -0.7547  0.7945
   36CHL1   H2A 2638   4.814   6.115   6.992 -1.6851  1.3199  0.5253
   36CHL1   H2B 2639   4.653   6.167   7.048  0.7772  1.3826  1.1908
   36CHL1   C20 2640   4.804   6.337   7.973 -0.2099 -0.1875 -0.2978
   36CHL1   H20 2641   4.725   6.412   7.950  1.4392  1.5450 -0.5364
   36CHL1   C21 2642   4.943   6.404   7.948  0.1378  0.5062 -0.0645
   36CHL1  H21A 2643   4.963   6.413   7.840 -0.4389 -1.2297 -0.3433
   36CHL1  H21B 2644   5.015   6.327   7.984 -0.5778 -0.1890 -0.0828
   36CHL1  H21C 2645   4.955   6.504   7.995 -1.6319  0.1499  1.2701
   36CHL1   C22 2646   4.790   6.304   8.125  0.7811  0.8309  1.0132
   36CHL1  H22A 2647   4.690   6.263   8.149  1.1220 -1.8597 -1.5686
   36CHL1  H22B 2648   4.872   6.233   8.151 -0.4634 -0.6483  1.0374
   36CHL1   C23 2649   4.799   6.437   8.206  0.5557  0.6048  0.3784
   36CHL1  H23A 2650   4.906   6.468   8.207  0.3508  1.3627 -0.4490
   36CHL1  H23B 2651   4.739   6.512   8.151  1.8041  1.2377 -0.1638
   36CHL1   C24 2652   4.755   6.421   8.356  0.1300  0.3576  0.2754
   36CHL1  H24A 2653   4.677   6.342   8.369  1.8473 -1.3671  0.4824
   36CHL1  H24B 2654   4.840   6.377   8.411  0.2156  0.2477  0.0548
   36CHL1   C25 2655   4.739   6.549   8.433 -0.0167 -0.8169  0.1999
   36CHL1   H25 2656   4.819   6.616   8.395  0.5406 -2.7030 -2.2576
   36CHL1   C26 2657   4.603   6.621   8.405 -0.0135  0.1288  0.2025
   36CHL1  H26A 2658   4.588   6.719   8.455 -0.9506  0.7294 -1.1821
   36CHL1  H26B 2659   4.582   6.633   8.296  0.8934  1.2139  0.1340
   36CHL1  H26C 2660   4.519   6.563   8.450  0.4570 -0.5272  0.2512
   36CHL1   C27 2661   4.767   6.526   8.584 -0.0021  0.0838  0.4861
   36CHL1  H27A 2662   4.746   6.617   8.644 -0.6656  1.5353 -1.8126
   36CHL1  H27B 2663   4.707   6.439   8.617 -0.0499 -0.4850 -1.0380
   36CHL1  H27C 2664   4.871   6.486   8.580 -1.1564 -3.3241  1.4240
   37CHL1    C3 2665   1.278   1.390   6.840 -0.6253 -0.0384  0.3942
   37CHL1    H3 2666   1.170   1.391   6.866 -0.9413  0.1237 -0.8351
   37CHL1    O3 2667   1.296   1.384   6.700  0.3977 -0.2698  0.6787
   37CHL1   H3' 2668   1.392   1.383   6.691  0.3318 -1.7127 -0.2355
   37CHL1    C4 2669   1.337   1.515   6.885 -0.4651  0.3936  0.4270
   37CHL1   H4A 2670   1.441   1.522   6.846 -0.3243  0.7405  0.8530
   37CHL1   H4B 2671   1.295   1.610   6.849  2.7641  1.7269 -0.1782
   37CHL1    C5 2672   1.339   1.515   7.036 -0.5202  0.0817 -0.1951
   37CHL1    C6 2673   1.271   1.607   7.107 -0.1832 -0.1720  0.5496
   37CHL1    H6 2674   1.219   1.686   7.051 -1.0862 -1.0154  0.1672
   37CHL1    C7 2675   1.253   1.612   7.258  0.7542 -0.2986  0.3064
   37CHL1   H7A 2676   1.262   1.713   7.305 -2.8222  0.1124  0.3969
   37CHL1   H7B 2677   1.145   1.593   7.277  0.6254  0.9441  0.9588
   37CHL1    C8 2678   1.347   1.514   7.328  0.2301 -0.0871 -0.5335
   37CHL1    H8 2679   1.453   1.547   7.325  0.9207 -1.9527  1.2670
   37CHL1   C14 2680   1.305   1.491   7.477 -0.2065 -0.2285  0.8384
   37CHL1   H14 2681   1.212   1.434   7.458 -0.4705  0.7026 -0.8619
   37CHL1   C15 2682   1.266   1.613   7.569  0.1187 -0.0576 -0.0691
   37CHL1  H15A 2683   1.350   1.685   7.554 -0.7167  0.7985 -0.8184
   37CHL1  H15B 2684   1.165   1.655   7.545  0.9013  1.8094 -0.3002
   37CHL1   C16 2685   1.252   1.551   7.709  0.2766  0.6177 -0.3449
   37CHL1  H16A 2686   1.300   1.624   7.778  0.1831 -0.2220  0.6363
   37CHL1  H16B 2687   1.151   1.539   7.754  1.1984 -1.0756  1.4251
   37CHL1   C17 2688   1.317   1.412   7.687 -0.2379  0.1760 -0.5193
   37CHL1   H17 2689   1.230   1.349   7.660 -0.1021 -0.6015  0.7599
   37CHL1   C13 2690   1.396   1.405   7.558 -0.6216  0.2476 -0.3796
   37CHL1   C18 2691   1.532   1.485   7.577 -0.4029  0.0550  0.3530
   37CHL1  H18A 2692   1.584   1.483   7.478  0.2487 -0.1689  0.6948
   37CHL1  H18B 2693   1.514   1.591   7.601 -2.5145  0.2640 -1.7385
   37CHL1  H18C 2694   1.605   1.438   7.646  2.3779 -0.4039 -2.6218
   37CHL1   C12 2695   1.409   1.263   7.494 -0.1856 -0.4315 -0.3045
   37CHL1  H12A 2696   1.479   1.198   7.551  0.1000  0.7326  0.7112
   37CHL1  H12B 2697   1.305   1.224   7.493 -0.3792 -0.0223  1.5094
   37CHL1   C11 2698   1.456   1.282   7.342  0.3746  0.1529  0.2946
   37CHL1  H11A 2699   1.564   1.307   7.344  0.4817 -0.2352 -0.2021
   37CHL1  H11B 2700   1.446   1.177   7.305 -1.8326 -1.4916  4.7382
   37CHL1    C9 2701   1.361   1.376   7.263  0.4236 -0.2810  0.3247
   37CHL1    H9 2702   1.256   1.339   7.263  0.2182  0.2918 -0.3386
   37CHL1   C10 2703   1.395   1.386   7.108  0.2667 -0.4232  0.1250
   37CHL1   C19 2704   1.545   1.393   7.096 -0.1359  0.0104  0.9367
   37CHL1  H19A 2705   1.574   1.485   7.151  0.7393  1.1913 -1.3984
   37CHL1  H19B 2706   1.592   1.298   7.130  1.3051  0.3889  0.0719
   37CHL1  H19C 2707   1.576   1.398   6.990 -3.1008 -0.5434 -0.0661
   37CHL1    C1 2708   1.338   1.256   7.043  0.2568  0.1069 -0.3584
   37CHL1   H1A 2709   1.399   1.168   7.073  1.7285 -0.1684 -3.7527
   37CHL1   H1B 2710   1.232   1.244   7.075  0.1140  0.4303 -0.7015
   37CHL1    C2 2711   1.344   1.262   6.888 -0.1283  0.2321  0.1880
   37CHL1   H2A 2712   1.297   1.177   6.835  0.8839  0.1420 -0.6110
   37CHL1   H2B 2713   1.449   1.272   6.851  0.5759  0.4697  2.1246
   37CHL1   C20 2714   1.393   1.350   7.813 -0.4433 -0.2153  0.8231
   37CHL1   H20 2715   1.464   1.279   7.766 -1.2263  0.0010 -0.7417
   37CHL1   C21 2716   1.272   1.284   7.897  0.4801 -0.1826  0.8071
   37CHL1  H21A 2717   1.211   1.213   7.837 -0.2519  1.4843 -0.4894
   37CHL1  H21B 2718   1.210   1.374   7.914 -1.9696 -1.1538 -2.0364
   37CHL1  H21C 2719   1.304   1.233   7.991 -2.9018  0.2624  2.3714
   37CHL1   C22 2720   1.460   1.459   7.900 -0.1353  0.1006 -0.4437
   37CHL1  H22A 2721   1.509   1.531   7.831  2.8026 -1.8133 -0.5178
   37CHL1  H22B 2722   1.382   1.512   7.958 -2.0857  0.8967 -3.5377
   37CHL1   C23 2723   1.575   1.397   7.986  0.7501  0.4313 -0.1044
   37CHL1  H23A 2724   1.552   1.299   8.032 -0.1733 -0.2378 -1.8825
   37CHL1  H23B 2725   1.653   1.377   7.909 -0.9184 -1.3946 -1.4155
   37CHL1   C24 2726   1.637   1.491   8.085  0.4389 -0.4420 -0.3257
   37CHL1  H24A 2727   1.738   1.455   8.115 -1.0250 -1.8231  3.5291
   37CHL1  H24B 2728   1.642   1.586   8.027 -0.3132 -2.0307 -3.1885
   37CHL1   C25 2729   1.550   1.501   8.216  0.6419  0.5351  0.1380
   37CHL1   H25 2730   1.442   1.504   8.190  0.6733 -1.5217 -0.3961
   37CHL1   C26 2731   1.568   1.387   8.314  0.4877  0.6901 -0.0461
   37CHL1  H26A 2732   1.497   1.395   8.400  0.6202  0.1933  0.1131
   37CHL1  H26B 2733   1.571   1.283   8.275 -1.0368  0.9481 -0.9349
   37CHL1  H26C 2734   1.669   1.399   8.358  0.1551  1.2588  0.5748
   37CHL1   C27 2735   1.573   1.633   8.287  0.4607  0.1569  0.2697
   37CHL1  H27A 2736   1.503   1.643   8.372  0.4404  0.4824  0.2143
   37CHL1  H27B 2737   1.668   1.641   8.343 -0.6665 -3.2242  2.9773
   37CHL1  H27C 2738   1.574   1.727   8.228 -0.6416 -0.4882 -0.8450
   38CHL1    C3 2739   4.406   1.386   6.633  0.5450  0.4899  0.3693
   38CHL1    H3 2740   4.513   1.356   6.631  0.3839 -0.0664 -0.6500
   38CHL1    O3 2741   4.378   1.394   6.497 -0.5256 -0.2589 -0.0751
   38CHL1   H3' 2742   4.420   1.476   6.472  0.5475 -0.9411 -0.5789
   38CHL1    C4 2743   4.314   1.272   6.694  0.4824 -0.4287  0.1577
   38CHL1   H4A 2744   4.208   1.301   6.674  0.4448  0.9300  2.0886
   38CHL1   H4B 2745   4.344   1.178   6.644  4.2723  0.9239 -0.4782
   38CHL1    C5 2746   4.343   1.257   6.842 -0.0406 -0.7456  0.1788
   38CHL1    C6 2747   4.388   1.141   6.888  0.2049  0.5028 -0.2418
   38CHL1    H6 2748   4.402   1.057   6.819 -0.8457  0.0087  0.1216
   38CHL1    C7 2749   4.435   1.114   7.030  1.0219 -0.0865 -0.5448
   38CHL1   H7A 2750   4.398   1.013   7.057 -0.7987  0.6478 -0.1583
   38CHL1   H7B 2751   4.545   1.108   7.042  0.9156  0.0924  0.5639
   38CHL1    C8 2752   4.366   1.211   7.128  0.2398 -0.2425 -0.2297
   38CHL1    H8 2753   4.259   1.181   7.133  0.3493 -0.3835  2.1525
   38CHL1   C14 2754   4.438   1.212   7.262  0.1269 -0.0894  0.1128
   38CHL1   H14 2755   4.542   1.251   7.255  0.4428  0.2021  4.2888
   38CHL1   C15 2756   4.449   1.070   7.319  0.1427  0.6027 -0.1130
   38CHL1  H15A 2757   4.354   1.014   7.318 -0.3944  1.4888 -0.1958
   38CHL1  H15B 2758   4.535   1.017   7.273  0.3433  0.4886  0.3918
   38CHL1   C16 2759   4.468   1.098   7.473  0.2105 -0.7197 -0.2166
   38CHL1  H16A 2760   4.383   1.065   7.535 -0.7419  0.2514 -0.9511
   38CHL1  H16B 2761   4.571   1.067   7.501  0.9887 -1.6437 -3.5937
   38CHL1   C17 2762   4.458   1.252   7.491 -0.8743 -0.2931 -0.2711
   38CHL1   H17 2763   4.555   1.300   7.466  0.0139 -3.0185 -2.5639
   38CHL1   C13 2764   4.375   1.294   7.364 -0.1020 -0.2788  0.7553
   38CHL1   C18 2765   4.219   1.268   7.381 -1.1230  0.0333 -0.1286
   38CHL1  H18A 2766   4.171   1.321   7.467  1.1055 -0.2108  1.3495
   38CHL1  H18B 2767   4.170   1.307   7.290 -1.5254  0.1326  0.1264
   38CHL1  H18C 2768   4.190   1.162   7.395 -1.1438  0.2093  1.3445
   38CHL1   C12 2769   4.398   1.444   7.314 -0.2236  0.3474 -0.2182
   38CHL1  H12A 2770   4.332   1.503   7.382  1.1667  0.9611  0.6311
   38CHL1  H12B 2771   4.508   1.459   7.317 -0.1601  0.6505 -2.5061
   38CHL1   C11 2772   4.346   1.469   7.176 -0.1027 -0.0818  0.8957
   38CHL1  H11A 2773   4.235   1.477   7.173 -0.2323 -0.6508  2.7958
   38CHL1  H11B 2774   4.387   1.563   7.134 -0.6570  0.1222  0.8138
   38CHL1    C9 2775   4.381   1.360   7.071 -0.1047 -0.1582  0.1425
   38CHL1    H9 2776   4.490   1.363   7.054  0.0099  0.3385  0.9366
   38CHL1   C10 2777   4.324   1.384   6.924 -0.3730 -0.4070 -0.0471
   38CHL1   C19 2778   4.168   1.423   6.926  0.0276 -0.3052 -0.4976
   38CHL1  H19A 2779   4.159   1.503   7.002  1.6253  0.3009 -0.9009
   38CHL1  H19B 2780   4.129   1.473   6.835  0.2645  1.9754  0.5851
   38CHL1  H19C 2781   4.098   1.340   6.949  0.1119 -0.3358 -0.3522
   38CHL1    C1 2782   4.410   1.498   6.858 -0.4771 -0.6085 -0.3997
   38CHL1   H1A 2783   4.382   1.586   6.920  1.0160 -0.0924 -0.4035
   38CHL1   H1B 2784   4.517   1.467   6.868 -0.9932 -1.7083  2.8019
   38CHL1    C2 2785   4.378   1.518   6.702 -0.3005  0.2968  0.2468
   38CHL1   H2A 2786   4.444   1.601   6.668 -0.5222  1.0499  1.6136
   38CHL1   H2B 2787   4.273   1.549   6.684 -0.4735 -1.4762 -2.3628
   38CHL1   C20 2788   4.407   1.290   7.633 -0.0220 -0.0756  0.2292
   38CHL1   H20 2789   4.299   1.267   7.634 -0.4647  1.7816 -0.4630
   38CHL1   C21 2790   4.409   1.440   7.659  0.2299 -0.1068  0.1073
   38CHL1  H21A 2791   4.514   1.478   7.655 -0.3781  1.7217  0.4367
   38CHL1  H21B 2792   4.368   1.449   7.762  0.0050  1.6549 -0.1108
   38CHL1  H21C 2793   4.357   1.502   7.584  1.8394  0.5108 -0.5493
   38CHL1   C22 2794   4.469   1.203   7.744  0.0742 -0.3580  0.1160
   38CHL1  H22A 2795   4.433   1.099   7.725 -0.9140  0.3121 -2.1081
   38CHL1  H22B 2796   4.579   1.208   7.730  0.2458 -0.2540  1.3828
   38CHL1   C23 2797   4.431   1.233   7.895  0.2850 -0.1747  0.1676
   38CHL1  H23A 2798   4.468   1.336   7.917 -0.4963 -0.0009  0.7092
   38CHL1  H23B 2799   4.322   1.253   7.900  0.6336  2.1137 -0.4292
   38CHL1   C24 2800   4.468   1.127   7.997 -0.2871  0.5870 -0.2495
   38CHL1  H24A 2801   4.396   1.043   7.988  1.4931 -1.0528  0.0119
   38CHL1  H24B 2802   4.566   1.085   7.965 -0.5200 -0.9946  0.9663
   38CHL1   C25 2803   4.474   1.167   8.148  0.4708 -0.4768 -0.2842
   38CHL1   H25 2804   4.405   1.245   8.186 -0.6891 -0.3898 -2.3918
   38CHL1   C26 2805   4.443   1.046   8.240 -0.0312  0.4002  0.0297
   38CHL1  H26A 2806   4.524   0.973   8.220  2.2720  1.9241  3.0658
   38CHL1  H26B 2807   4.456   1.069   8.347 -2.3790 -2.4814  1.0717
   38CHL1  H26C 2808   4.342   1.000   8.229  0.3810 -0.7346  0.8561
   38CHL1   C27 2809   4.611   1.220   8.176  0.1213  0.0287  0.2124
   38CHL1  H27A 2810   4.647   1.291   8.098 -1.9919  0.5122 -0.3718
   38CHL1  H27B 2811   4.597   1.265   8.277 -0.3193 -0.7458  0.5034
   38CHL1  H27C 2812   4.682   1.137   8.193  0.3052  0.1744  0.1646
   39CHL1    C3 2813   3.245   2.008   6.857 -0.5145 -0.4459  0.1259
   39CHL1    H3 2814   3.138   2.006   6.887 -1.0315 -1.3711 -1.6398
   39CHL1    O3 2815   3.246   2.022   6.715  0.5300 -0.0225  0.4061
   39CHL1   H3' 2816   3.327   1.985   6.680 -0.6327 -1.0699 -1.3041
   39CHL1    C4 2817   3.315   2.127   6.926  0.4114  0.1650 -0.0228
   39CHL1   H4A 2818   3.415   2.138   6.879 -0.4048 -0.5373 -2.0174
   39CHL1   H4B 2819   3.254   2.215   6.897  1.1586  0.0949 -1.9218
   39CHL1    C5 2820   3.314   2.118   7.078 -0.6544  0.3101  0.0931
   39CHL1    C6 2821   3.256   2.210   7.156  0.1229  0.0588  0.6421
   39CHL1    H6 2822   3.213   2.300   7.111  0.6454 -0.6392 -1.3811
   39CHL1    C7 2823   3.273   2.196   7.303 -0.2355 -0.3511 -0.2667
   39CHL1   H7A 2824   3.310   2.291   7.346  0.1085 -0.0492 -1.2185
   39CHL1   H7B 2825   3.176   2.163   7.346 -1.7283  1.4643 -2.0700
   39CHL1    C8 2826   3.384   2.103   7.343 -0.6840  1.1474 -1.2908
   39CHL1    H8 2827   3.482   2.149   7.316 -0.5455  0.9174 -1.1779
   39CHL1   C14 2828   3.368   2.080   7.496 -0.1835 -0.2605  0.3851
   39CHL1   H14 2829   3.263   2.044   7.501 -0.4196  0.1610 -1.0540
   39CHL1   C15 2830   3.370   2.205   7.582 -0.5442 -0.0958  0.1575
   39CHL1  H15A 2831   3.442   2.281   7.545 -1.7237  0.4915 -0.9816
   39CHL1  H15B 2832   3.272   2.256   7.587 -1.0824 -1.0287 -0.7158
   39CHL1   C16 2833   3.405   2.161   7.723 -0.0811  0.1206 -0.2876
   39CHL1  H16A 2834   3.499   2.208   7.761  0.8581 -1.5952 -0.3964
   39CHL1  H16B 2835   3.322   2.185   7.793 -0.7368 -2.0008 -0.2860
   39CHL1   C17 2836   3.426   2.008   7.711  0.1185  0.2091  0.6194
   39CHL1   H17 2837   3.328   1.961   7.732  0.7219 -1.0634  0.6640
   39CHL1   C13 2838   3.459   1.982   7.559  0.0952 -0.7924 -0.5008
   39CHL1   C18 2839   3.598   2.030   7.530  0.2705  0.3736  0.1463
   39CHL1  H18A 2840   3.671   1.957   7.570  1.6669 -0.2129 -3.1139
   39CHL1  H18B 2841   3.622   2.045   7.423  1.2942 -1.7640  0.0124
   39CHL1  H18C 2842   3.624   2.125   7.581  0.0826  0.9154 -0.7486
   39CHL1   C12 2843   3.426   1.848   7.488  0.0063  0.6610 -0.4010
   39CHL1  H12A 2844   3.486   1.768   7.537  0.0859  0.4666 -0.8131
   39CHL1  H12B 2845   3.320   1.821   7.505  0.0371 -0.2857 -1.5468
   39CHL1   C11 2846   3.457   1.858   7.339  0.3721 -0.4004  0.5973
   39CHL1  H11A 2847   3.566   1.870   7.326  0.5268 -0.3681  1.8013
   39CHL1  H11B 2848   3.434   1.759   7.295  0.9665 -1.5132  2.6715
   39CHL1    C9 2849   3.368   1.972   7.273  0.4986  0.3059 -0.8668
   39CHL1    H9 2850   3.263   1.946   7.299 -0.1755  0.4015 -3.2109
   39CHL1   C10 2851   3.387   1.986   7.119  0.6580  0.0938 -0.4727
   39CHL1   C19 2852   3.539   1.980   7.088 -0.5326  0.1014 -0.2596
   39CHL1  H19A 2853   3.559   1.872   7.100 -1.1993  0.1135  1.1002
   39CHL1  H19B 2854   3.555   2.007   6.981  0.5956  1.0988  0.1361
   39CHL1  H19C 2855   3.598   2.049   7.153  0.4572 -0.8823 -0.0827
   39CHL1    C1 2856   3.317   1.861   7.057  0.4629 -0.0235  0.6203
   39CHL1   H1A 2857   3.378   1.772   7.085  0.5108 -0.5418 -1.0519
   39CHL1   H1B 2858   3.218   1.848   7.105 -0.4672 -1.8047 -1.6466
   39CHL1    C2 2859   3.310   1.878   6.899  0.2974 -0.0597  0.5970
   39CHL1   H2A 2860   3.251   1.799   6.848  1.4955  0.2817 -1.4465
   39CHL1   H2B 2861   3.410   1.879   6.849 -0.9363 -3.6067 -2.4425
   39CHL1   C20 2862   3.512   1.940   7.823  0.3217  0.2442 -0.0543
   39CHL1   H20 2863   3.619   1.946   7.794  0.7915 -0.7637  1.3874
   39CHL1   C21 2864   3.478   1.784   7.824 -0.1944  0.4729 -0.0279
   39CHL1  H21A 2865   3.506   1.727   7.915 -0.4087  1.3128  0.5785
   39CHL1  H21B 2866   3.508   1.739   7.727  2.0126  3.2933 -0.8175
   39CHL1  H21C 2867   3.367   1.780   7.823 -0.1676 -0.3307 -0.0559
   39CHL1   C22 2868   3.497   2.004   7.963 -0.0900  0.1353  1.1595
   39CHL1  H22A 2869   3.480   2.113   7.976  0.8522  0.2119  1.7529
   39CHL1  H22B 2870   3.396   1.971   7.995 -0.3706 -0.9994 -0.7447
   39CHL1   C23 2871   3.604   1.960   8.061  0.4427  0.4207 -0.5935
   39CHL1  H23A 2872   3.597   1.850   8.069  1.7829  0.3089 -0.7934
   39CHL1  H23B 2873   3.706   1.985   8.024 -0.6771  3.1359 -2.1209
   39CHL1   C24 2874   3.579   1.997   8.214 -0.1403 -0.7233  0.1076
   39CHL1  H24A 2875   3.600   2.106   8.221 -1.0672 -0.5511  0.3095
   39CHL1  H24B 2876   3.469   1.992   8.228 -0.3922 -1.0557 -1.6987
   39CHL1   C25 2877   3.662   1.905   8.300 -0.2465 -0.7986  0.1658
   39CHL1   H25 2878   3.621   1.803   8.281 -1.6645 -0.0985 -0.6936
   39CHL1   C26 2879   3.816   1.892   8.273  0.4107 -0.6923  0.4340
   39CHL1  H26A 2880   3.833   1.859   8.168 -1.6647  1.2978 -0.6458
   39CHL1  H26B 2881   3.866   1.992   8.275  1.8993 -1.4187  1.5664
   39CHL1  H26C 2882   3.865   1.825   8.347 -0.9163 -0.1847  1.8254
   39CHL1   C27 2883   3.642   1.932   8.444  0.3199 -0.5918  0.2211
   39CHL1  H27A 2884   3.675   2.035   8.472 -0.2681 -0.2357 -0.3514
   39CHL1  H27B 2885   3.532   1.936   8.455  0.3421  0.3770  0.2117
   39CHL1  H27C 2886   3.680   1.861   8.520 -0.1530 -0.4687  0.5771
   40CHL1    C3 2887   0.563   5.900   7.093  0.0544 -0.3900  0.4750
   40CHL1    H3 2888   0.658   5.946   7.129 -0.3754  2.7268 -1.9278
   40CHL1    O3 2889   0.588   5.892   6.953  0.3467  0.2717 -0.2361
   40CHL1   H3' 2890   0.608   5.982   6.925 -0.3042  0.9365  1.3193
   40CHL1    C4 2891   0.542   5.754   7.140 -0.0339 -0.6920 -0.0422
   40CHL1   H4A 2892   0.461   5.715   7.074  0.0671  0.7369 -1.0501
   40CHL1   H4B 2893   0.637   5.705   7.112  0.4970  0.6144 -0.5643
   40CHL1    C5 2894   0.509   5.738   7.289 -0.0449 -0.4673 -0.0589
   40CHL1    C6 2895   0.574   5.649   7.362  0.5344 -0.2642 -0.9935
   40CHL1    H6 2896   0.644   5.581   7.310  1.9104 -0.4705  1.0116
   40CHL1    C7 2897   0.561   5.631   7.509 -0.2713  0.2090 -0.6876
   40CHL1   H7A 2898   0.539   5.527   7.541 -1.0030  0.1663 -1.2835
   40CHL1   H7B 2899   0.644   5.666   7.573 -3.0317  1.2594  2.5884
   40CHL1    C8 2900   0.445   5.716   7.568 -0.0207 -0.1098 -0.1192
   40CHL1    H8 2901   0.357   5.650   7.560  0.9812 -1.4257 -0.7485
   40CHL1   C14 2902   0.459   5.739   7.722  0.1679  0.3610 -0.3047
   40CHL1   H14 2903   0.551   5.800   7.733  1.0124 -0.6163 -1.6396
   40CHL1   C15 2904   0.459   5.616   7.810 -0.1695  0.0388 -0.5337
   40CHL1  H15A 2905   0.369   5.557   7.784  0.1296 -0.8503  0.3979
   40CHL1  H15B 2906   0.542   5.544   7.799  0.1135  0.2714  0.0307
   40CHL1   C16 2907   0.464   5.673   7.955  0.5927  0.1295  0.6990
   40CHL1  H16A 2908   0.407   5.602   8.019 -0.2331 -1.1940 -1.4015
   40CHL1  H16B 2909   0.572   5.680   7.981  0.8823  1.0190 -0.6141
   40CHL1   C17 2910   0.405   5.817   7.940  0.1803 -0.2605  0.0846
   40CHL1   H17 2911   0.496   5.878   7.956  1.5262 -2.3175  0.6453
   40CHL1   C13 2912   0.357   5.827   7.791  0.1097  0.2891 -0.0196
   40CHL1   C18 2913   0.214   5.769   7.796 -0.1509  0.2621  0.6352
   40CHL1  H18A 2914   0.133   5.838   7.828 -1.4174 -0.6381 -0.4628
   40CHL1  H18B 2915   0.187   5.740   7.692 -2.5195  0.9546  0.9991
   40CHL1  H18C 2916   0.206   5.681   7.863  0.8473  0.0102  0.4336
   40CHL1   C12 2917   0.367   5.968   7.721 -0.1843  0.8213 -0.1032
   40CHL1  H12A 2918   0.297   6.039   7.771  0.4265  0.9105  0.6342
   40CHL1  H12B 2919   0.472   6.001   7.734 -0.7732  1.7237  3.0491
   40CHL1   C11 2920   0.332   5.954   7.570  0.1505  0.4621  0.8225
   40CHL1  H11A 2921   0.225   5.938   7.547 -0.0359  1.7522  0.7259
   40CHL1  H11B 2922   0.351   6.056   7.529  1.1622 -0.0708 -0.0782
   40CHL1    C9 2923   0.427   5.848   7.500 -0.1938 -0.0684  0.4598
   40CHL1    H9 2924   0.527   5.896   7.499 -2.0154  4.2534 -2.0689
   40CHL1   C10 2925   0.403   5.833   7.342  0.0189 -0.2947 -1.1410
   40CHL1   C19 2926   0.268   5.785   7.313  0.4254 -0.6438 -0.5525
   40CHL1  H19A 2927   0.233   5.690   7.360 -1.9525  0.8792  0.9593
   40CHL1  H19B 2928   0.190   5.859   7.342  0.8325 -0.2196 -0.5434
   40CHL1  H19C 2929   0.256   5.772   7.204 -0.7770  1.0843 -0.6619
   40CHL1    C1 2930   0.418   5.974   7.273 -0.3184  1.2510  0.0417
   40CHL1   H1A 2931   0.321   6.024   7.296 -1.1505 -1.4237  3.1565
   40CHL1   H1B 2932   0.500   6.030   7.321  1.2772  0.6368 -1.8394
   40CHL1    C2 2933   0.446   5.983   7.122  0.4944 -0.2265  0.1555
   40CHL1   H2A 2934   0.445   6.088   7.086 -1.4908 -1.2697 -3.3031
   40CHL1   H2B 2935   0.353   5.950   7.072 -2.3997  3.4038  2.6439
   40CHL1   C20 2936   0.320   5.871   8.052  0.1983 -0.0671 -0.2977
   40CHL1   H20 2937   0.219   5.824   8.053 -0.2036  0.7124 -1.5727
   40CHL1   C21 2938   0.299   6.029   8.047  0.3512  0.4862  0.1163
   40CHL1  H21A 2939   0.302   6.073   8.149  4.2731  1.3984 -0.2479
   40CHL1  H21B 2940   0.202   6.055   7.998  0.4288  0.9563  0.2125
   40CHL1  H21C 2941   0.383   6.069   7.987 -0.5054  0.1277 -1.3776
   40CHL1   C22 2942   0.376   5.825   8.195 -0.2198  0.1616  0.1350
   40CHL1  H22A 2943   0.309   5.866   8.274 -1.9566  0.3968 -1.4109
   40CHL1  H22B 2944   0.377   5.715   8.206 -1.9685  0.0129 -0.8549
   40CHL1   C23 2945   0.521   5.868   8.234  0.2542 -0.5646 -0.2567
   40CHL1  H23A 2946   0.583   5.854   8.143  1.0943  2.5038 -0.2768
   40CHL1  H23B 2947   0.518   5.978   8.249  2.9246 -0.1616 -1.9572
   40CHL1   C24 2948   0.566   5.785   8.356 -0.1917  0.3253 -0.3378
   40CHL1  H24A 2949   0.519   5.807   8.454 -1.1402  0.6305 -0.8441
   40CHL1  H24B 2950   0.549   5.676   8.347  2.3615 -0.0552 -1.1902
   40CHL1   C25 2951   0.720   5.803   8.375  0.2546  0.2724 -0.3365
   40CHL1   H25 2952   0.737   5.911   8.359  0.4355  0.0361 -1.9022
   40CHL1   C26 2953   0.774   5.757   8.514 -0.3153 -0.3989 -0.6769
   40CHL1  H26A 2954   0.781   5.646   8.517  0.8069 -0.4191  4.3505
   40CHL1  H26B 2955   0.875   5.797   8.535 -0.4315  0.2034 -1.2187
   40CHL1  H26C 2956   0.707   5.790   8.596  0.4960  0.4566 -0.3424
   40CHL1   C27 2957   0.795   5.733   8.256  0.0747 -0.0971 -0.2111
   40CHL1  H27A 2958   0.792   5.622   8.256  2.0765 -0.2416 -2.7020
   40CHL1  H27B 2959   0.771   5.766   8.153  1.8970 -3.5453 -1.9356
   40CHL1  H27C 2960   0.905   5.741   8.272 -0.0169 -2.7155  2.6813
   41CHL1    C3 2961   6.629   0.105   6.992  0.6344  0.5702 -0.7020
   41CHL1    H3 2962   6.739   0.116   6.980  1.0040 -2.3045 -0.6884
   41CHL1    O3 2963   6.589   0.054   6.863 -0.2674  0.0265 -0.9666
   41CHL1   H3' 2964   6.493   0.054   6.861 -0.2814 -0.1395 -0.4711
   41CHL1    C4 2965   6.591   0.017   7.114  0.3169  0.1535  0.3692
   41CHL1   H4A 2966   6.481   0.006   7.113  0.0204  1.3484  4.1331
   41CHL1   H4B 2967   6.636  -0.083   7.099 -0.3329  0.0864 -1.2385
   41CHL1    C5 2968   6.635   0.080   7.238  0.5270 -0.7293 -0.1323
   41CHL1    C6 2969   6.706   0.021   7.332  0.6544 -0.2439  0.0899
   41CHL1    H6 2970   6.731  -0.086   7.321  2.2534  0.0802  0.3927
   41CHL1    C7 2971   6.740   0.071   7.466  0.5186  0.3277  0.4574
   41CHL1   H7A 2972   6.726  -0.011   7.540 -1.6412  1.2458  1.1300
   41CHL1   H7B 2973   6.847   0.098   7.453  0.4516  1.7303  2.3659
   41CHL1    C8 2974   6.664   0.193   7.513  1.2899  0.1527 -0.9801
   41CHL1    H8 2975   6.563   0.160   7.547  0.2605  1.6304 -2.4631
   41CHL1   C14 2976   6.741   0.269   7.625 -0.3012  0.2949  0.0171
   41CHL1   H14 2977   6.826   0.316   7.570 -0.6248  1.7475  0.6936
   41CHL1   C15 2978   6.800   0.198   7.749  0.8221  0.1614 -0.3880
   41CHL1  H15A 2979   6.723   0.125   7.782  2.0936 -0.9907  0.1187
   41CHL1  H15B 2980   6.898   0.147   7.738  2.0703  1.9923  1.4324
   41CHL1   C16 2981   6.816   0.305   7.856  0.0799 -0.3479  0.1648
   41CHL1  H16A 2982   6.764   0.271   7.948  0.3883 -2.4085 -0.3783
   41CHL1  H16B 2983   6.924   0.322   7.874  0.2860 -0.4181 -0.9666
   41CHL1   C17 2984   6.754   0.433   7.792 -0.2297  0.0609  0.6102
   41CHL1   H17 2985   6.837   0.488   7.744  0.0481 -1.0252 -0.1838
   41CHL1   C13 2986   6.660   0.388   7.676  0.1181 -0.0735  0.0647
   41CHL1   C18 2987   6.521   0.349   7.745 -0.1714 -0.5981  0.7747
   41CHL1  H18A 2988   6.538   0.288   7.836 -1.2211 -2.2506 -0.0881
   41CHL1  H18B 2989   6.460   0.437   7.775  0.7252 -1.0223  4.3827
   41CHL1  H18C 2990   6.459   0.291   7.674 -0.5390  1.6935 -0.9075
   41CHL1   C12 2991   6.630   0.481   7.558 -0.0328  0.2272 -0.4929
   41CHL1  H12A 2992   6.565   0.567   7.585  0.1216  0.5007 -0.9654
   41CHL1  H12B 2993   6.726   0.527   7.526  1.1856 -2.2714 -0.6428
   41CHL1   C11 2994   6.563   0.411   7.438 -0.8472  0.3615  0.0449
   41CHL1  H11A 2995   6.459   0.390   7.469 -0.5286 -2.5904 -0.5591
   41CHL1  H11B 2996   6.552   0.479   7.351 -0.7306 -2.2221 -2.1494
   41CHL1    C9 2997   6.639   0.283   7.398  0.3904 -0.3015 -0.3166
   41CHL1    H9 2998   6.740   0.317   7.364  0.1038  1.2580  0.2996
   41CHL1   C10 2999   6.570   0.214   7.274 -0.1269  0.3069 -0.2844
   41CHL1   C19 3000   6.416   0.187   7.292 -0.1164  0.3218  0.7640
   41CHL1  H19A 3001   6.360   0.283   7.287 -2.2791 -0.9024  0.0062
   41CHL1  H19B 3002   6.379   0.105   7.227  0.9514 -0.0680  0.6226
   41CHL1  H19C 3003   6.401   0.142   7.392 -3.5599  0.3875  0.3947
   41CHL1    C1 3004   6.602   0.305   7.153 -0.0246  0.0290  0.8416
   41CHL1   H1A 3005   6.548   0.402   7.160 -1.6598 -0.6472 -1.1203
   41CHL1   H1B 3006   6.711   0.324   7.149  0.1168 -0.3554  2.2158
   41CHL1    C2 3007   6.564   0.243   7.015 -0.2068  0.3538  0.8432
   41CHL1   H2A 3008   6.589   0.306   6.927 -0.5535 -0.0056  0.4788
   41CHL1   H2B 3009   6.453   0.242   7.004 -0.0427 -1.0492 -1.0431
   41CHL1   C20 3010   6.700   0.521   7.903 -0.5299 -0.5309 -0.2486
   41CHL1   H20 3011   6.615   0.471   7.953 -1.8193  1.7107 -0.0759
   41CHL1   C21 3012   6.659   0.658   7.842  0.3829  0.5606  0.1125
   41CHL1  H21A 3013   6.596   0.638   7.753 -1.0042  0.1703  1.1493
   41CHL1  H21B 3014   6.749   0.720   7.824  0.7999  0.8100  2.6414
   41CHL1  H21C 3015   6.593   0.707   7.917 -1.1056 -0.7637 -0.2695
   41CHL1   C22 3016   6.796   0.545   8.027 -0.5116 -0.2372  0.2992
   41CHL1  H22A 3017   6.821   0.456   8.090  0.0175 -0.3829 -0.1049
   41CHL1  H22B 3018   6.895   0.577   7.987 -0.8500  2.4992  1.4789
   41CHL1   C23 3019   6.746   0.656   8.125 -0.0635  0.5523  0.5893
   41CHL1  H23A 3020   6.747   0.753   8.071  1.8920 -0.3612 -1.1546
   41CHL1  H23B 3021   6.639   0.634   8.147  0.1612 -1.4078 -0.1049
   41CHL1   C24 3022   6.835   0.685   8.249 -0.3140  0.0158  0.7567
   41CHL1  H24A 3023   6.822   0.591   8.306  0.5539  0.7243  2.1693
   41CHL1  H24B 3024   6.939   0.703   8.216 -0.7087  0.8834 -0.0817
   41CHL1   C25 3025   6.795   0.806   8.324 -0.3899  0.2853 -0.2901
   41CHL1   H25 3026   6.799   0.891   8.253 -0.9137 -0.9732 -1.8704
   41CHL1   C26 3027   6.649   0.802   8.373  0.2845  0.4065  0.0557
   41CHL1  H26A 3028   6.637   0.740   8.464 -1.2869  1.3925  0.5583
   41CHL1  H26B 3029   6.622   0.910   8.383  1.6688  1.2191 -3.5152
   41CHL1  H26C 3030   6.573   0.771   8.298 -0.0463  1.7181 -0.1878
   41CHL1   C27 3031   6.888   0.844   8.441  0.0662 -0.1724 -0.8425
   41CHL1  H27A 3032   6.997   0.857   8.421  0.4464 -1.0489  0.4895
   41CHL1  H27B 3033   6.848   0.925   8.506 -3.8671 -0.7518 -2.2725
   41CHL1  H27C 3034   6.883   0.749   8.498 -1.6008  0.7077  0.5549
   42CHL1    C3 3035   0.857   2.905   6.839  0.3957 -0.3617  0.7001
   42CHL1    H3 3036   0.845   3.015   6.854 -0.4855 -0.6127  2.0655
   42CHL1    O3 3037   0.796   2.867   6.719 -0.0278 -0.1926  0.5006
   42CHL1   H3' 3038   0.703   2.850   6.734 -0.2462 -1.9222 -2.1520
   42CHL1    C4 3039   1.002   2.871   6.833  0.3260 -0.0851 -0.0452
   42CHL1   H4A 3040   1.006   2.764   6.802  0.7599 -0.2733  0.6297
   42CHL1   H4B 3041   1.043   2.928   6.747  0.4351 -0.7296 -0.4258
   42CHL1    C5 3042   1.072   2.896   6.969 -0.2539  0.6475 -0.2710
   42CHL1    C6 3043   1.189   2.962   6.982 -0.0671  0.3349 -0.2840
   42CHL1    H6 3044   1.239   2.994   6.890 -0.0155 -1.5160 -0.9323
   42CHL1    C7 3045   1.263   2.996   7.109 -0.4225 -0.1818 -0.3685
   42CHL1   H7A 3046   1.367   2.970   7.078 -0.9750 -0.4610 -2.0841
   42CHL1   H7B 3047   1.253   3.103   7.136 -0.3486  0.6492 -3.3275
   42CHL1    C8 3048   1.218   2.893   7.228 -0.8154 -0.0856  0.0416
   42CHL1    H8 3049   1.264   2.794   7.207  0.0395  0.4264 -0.5853
   42CHL1   C14 3050   1.269   2.940   7.363  0.0086  0.1679 -0.1904
   42CHL1   H14 3051   1.212   3.033   7.384 -0.3125 -0.3537  1.3841
   42CHL1   C15 3052   1.421   2.962   7.395  0.4295  0.4713  0.0973
   42CHL1  H15A 3053   1.472   2.866   7.370 -0.3548  0.2611 -0.7956
   42CHL1  H15B 3054   1.485   3.040   7.349  2.6208 -0.3330  1.6160
   42CHL1   C16 3055   1.421   2.985   7.549  0.5482  0.5465 -0.4366
   42CHL1  H16A 3056   1.515   2.951   7.597  0.6488 -0.0448 -1.0345
   42CHL1  H16B 3057   1.403   3.095   7.554 -0.7242  0.3723 -0.7123
   42CHL1   C17 3058   1.290   2.925   7.604 -0.1186 -0.3950 -0.0811
   42CHL1   H17 3059   1.228   3.014   7.629  2.1602  0.6320  2.3497
   42CHL1   C13 3060   1.222   2.854   7.485 -0.5524 -0.9304  0.4320
   42CHL1   C18 3061   1.272   2.709   7.474  0.5055  0.6371 -0.2579
   42CHL1  H18A 3062   1.209   2.646   7.541 -0.0166  0.1722 -1.1636
   42CHL1  H18B 3063   1.272   2.659   7.375  1.1128  1.7502 -0.8397
   42CHL1  H18C 3064   1.378   2.724   7.504 -0.1384  2.4791  1.3334
   42CHL1   C12 3065   1.068   2.856   7.483  0.3053 -0.3715 -0.5854
   42CHL1  H12A 3066   1.028   2.782   7.556  0.3169  0.6582  0.5011
   42CHL1  H12B 3067   1.028   2.953   7.516 -0.8367 -1.3783  1.1525
   42CHL1   C11 3068   1.009   2.807   7.342 -0.9721 -0.6436 -0.0228
   42CHL1  H11A 3069   1.051   2.704   7.332 -0.2485 -0.3830  0.2302
   42CHL1  H11B 3070   0.899   2.802   7.335 -0.8454 -1.7014 -1.6811
   42CHL1    C9 3071   1.060   2.888   7.225 -1.1496 -0.2980  0.4482
   42CHL1    H9 3072   1.028   2.993   7.243 -3.5313 -0.4564 -2.0901
   42CHL1   C10 3073   0.998   2.843   7.095 -0.5514  0.0600  0.7020
   42CHL1   C19 3074   1.025   2.689   7.082 -0.1226  0.1655 -0.4176
   42CHL1  H19A 3075   1.133   2.677   7.106 -0.9304 -0.3736  3.6192
   42CHL1  H19B 3076   0.972   2.634   7.163  1.7505 -2.6862 -1.0069
   42CHL1  H19C 3077   1.016   2.645   6.981  1.5927 -0.4237 -0.3496
   42CHL1    C1 3078   0.850   2.877   7.093 -0.4642 -0.0922  0.0416
   42CHL1   H1A 3079   0.780   2.822   7.160  0.0686 -1.1971 -0.2965
   42CHL1   H1B 3080   0.840   2.988   7.102  0.0131  0.2704 -2.9449
   42CHL1    C2 3081   0.785   2.848   6.959 -0.2482 -0.3328 -0.4399
   42CHL1   H2A 3082   0.679   2.882   6.960 -0.7731 -1.7939 -1.4397
   42CHL1   H2B 3083   0.782   2.737   6.951  0.3275 -0.5807  2.1556
   42CHL1   C20 3084   1.326   2.849   7.738 -0.5631 -0.0461  0.2855
   42CHL1   H20 3085   1.388   2.759   7.717  2.6873  1.5930  2.1296
   42CHL1   C21 3086   1.202   2.794   7.810  0.8361  0.6564 -0.1773
   42CHL1  H21A 3087   1.230   2.748   7.907 -2.4792 -1.0779  0.1220
   42CHL1  H21B 3088   1.151   2.715   7.751 -1.6778  1.3518  0.9052
   42CHL1  H21C 3089   1.126   2.874   7.825 -1.2072 -1.1538 -0.4149
   42CHL1   C22 3090   1.403   2.947   7.840  0.1123 -0.1519  0.3455
   42CHL1  H22A 3091   1.461   3.026   7.789 -0.1199  0.3252  0.8111
   42CHL1  H22B 3092   1.331   3.018   7.886 -0.3663 -0.3188 -0.1240
   42CHL1   C23 3093   1.485   2.870   7.947 -0.3825 -0.3322 -0.0167
   42CHL1  H23A 3094   1.418   2.800   8.002 -0.6766  1.7295  2.4184
   42CHL1  H23B 3095   1.566   2.814   7.896  1.4493  2.1885 -0.0809
   42CHL1   C24 3096   1.541   2.958   8.059 -0.5790  0.7424 -0.2190
   42CHL1  H24A 3097   1.608   3.033   8.011  2.2864 -2.0940 -1.0260
   42CHL1  H24B 3098   1.449   3.001   8.103 -2.3970 -2.2786 -0.7540
   42CHL1   C25 3099   1.619   2.893   8.169 -0.1473  0.0829 -0.0783
   42CHL1   H25 3100   1.557   2.812   8.212 -1.6680  0.8659 -0.7082
   42CHL1   C26 3101   1.751   2.817   8.131  0.2360 -0.2608 -0.8118
   42CHL1  H26A 3102   1.779   2.765   8.225  1.6252  3.0073  0.7364
   42CHL1  H26B 3103   1.745   2.736   8.055  1.1285 -0.4959 -0.6469
   42CHL1  H26C 3104   1.829   2.894   8.113  0.0795  0.5221  1.4905
   42CHL1   C27 3105   1.651   2.986   8.289 -0.0663 -0.0844  0.4353
   42CHL1  H27A 3106   1.710   2.941   8.372 -2.2258 -0.6511  1.7493
   42CHL1  H27B 3107   1.553   3.011   8.337 -0.8232 -1.9072 -0.0999
   42CHL1  H27C 3108   1.701   3.080   8.256  0.6478 -0.2627  0.9726
   43CHL1    C3 3109   1.289   0.701   6.790 -0.2830 -0.1861 -0.6122
   43CHL1    H3 3110   1.366   0.629   6.827  0.6092  1.5681  1.1357
   43CHL1    O3 3111   1.285   0.690   6.647 -0.1418  0.3724 -0.6839
   43CHL1   H3' 3112   1.270   0.782   6.623  0.3190  1.2028  1.8808
   43CHL1    C4 3113   1.151   0.683   6.855 -0.1634 -0.0524  0.4337
   43CHL1   H4A 3114   1.089   0.769   6.824  1.0899  0.7550  0.0566
   43CHL1   H4B 3115   1.105   0.590   6.818  0.4428 -1.0716  2.1144
   43CHL1    C5 3116   1.182   0.667   7.009  1.2922 -0.1372 -0.3323
   43CHL1    C6 3117   1.145   0.553   7.074 -0.4100 -0.2079 -0.9271
   43CHL1    H6 3118   1.084   0.487   7.010  0.0572  0.9910 -2.7061
   43CHL1    C7 3119   1.160   0.551   7.220 -0.1980 -0.4247 -0.1264
   43CHL1   H7A 3120   1.072   0.500   7.264  0.6931 -1.5050  0.4400
   43CHL1   H7B 3121   1.248   0.486   7.238  0.6731  0.2916 -1.5141
   43CHL1    C8 3122   1.194   0.681   7.299  0.2854  0.0261 -0.2927
   43CHL1    H8 3123   1.101   0.742   7.303  0.1779 -0.1204 -0.5400
   43CHL1   C14 3124   1.264   0.665   7.441 -0.6760  0.1970 -0.3210
   43CHL1   H14 3125   1.363   0.618   7.424 -1.1650 -1.3118  0.7914
   43CHL1   C15 3126   1.196   0.566   7.536 -0.3242  0.3024 -0.0051
   43CHL1  H15A 3127   1.087   0.585   7.539 -0.7649 -1.9870  0.2737
   43CHL1  H15B 3128   1.217   0.461   7.506 -0.7999 -0.0177  0.7552
   43CHL1   C16 3129   1.257   0.609   7.674 -0.3264 -0.0385  0.1050
   43CHL1  H16A 3130   1.171   0.615   7.743  0.9713  0.5558  1.7218
   43CHL1  H16B 3131   1.327   0.535   7.719  1.9096  1.7704 -0.2382
   43CHL1   C17 3132   1.335   0.742   7.657  0.5287 -0.2409 -0.3033
   43CHL1   H17 3133   1.441   0.713   7.639  1.2687  1.2679  1.3457
   43CHL1   C13 3134   1.282   0.791   7.520 -0.3656  0.3459 -0.2880
   43CHL1   C18 3135   1.143   0.866   7.540  0.3897  0.3904 -0.0718
   43CHL1  H18A 3136   1.148   0.948   7.615 -0.4643  0.9190 -0.5706
   43CHL1  H18B 3137   1.105   0.924   7.454 -2.6144  1.2996  1.7050
   43CHL1  H18C 3138   1.063   0.792   7.562  1.3962 -1.7324 -2.9654
   43CHL1   C12 3139   1.382   0.867   7.441 -0.4768  0.4768 -0.0864
   43CHL1  H12A 3140   1.415   0.961   7.490 -1.8979  0.3798  1.1537
   43CHL1  H12B 3141   1.474   0.806   7.430 -1.1132 -0.6506  0.6072
   43CHL1   C11 3142   1.325   0.896   7.299  1.2577  0.2510  0.0660
   43CHL1  H11A 3143   1.241   0.968   7.299 -0.4514 -1.6133  1.0395
   43CHL1  H11B 3144   1.408   0.944   7.243  1.7490 -0.4220  0.2056
   43CHL1    C9 3145   1.287   0.773   7.218  0.2945  0.4479  0.2662
   43CHL1    H9 3146   1.380   0.713   7.207 -0.0641 -0.5845  2.2972
   43CHL1   C10 3147   1.242   0.799   7.073  0.5999 -0.7877  0.2465
   43CHL1   C19 3148   1.141   0.914   7.066 -0.0953  0.8592 -0.0043
   43CHL1  H19A 3149   1.120   0.939   6.959  1.4179  2.0979 -0.0423
   43CHL1  H19B 3150   1.040   0.880   7.097 -0.5066  0.8215 -1.2965
   43CHL1  H19C 3151   1.165   1.008   7.120 -1.1093  1.4466 -0.5461
   43CHL1    C1 3152   1.368   0.828   6.993 -0.0750 -0.1478 -0.4668
   43CHL1   H1A 3153   1.393   0.929   7.031 -3.8228  0.2155  1.5661
   43CHL1   H1B 3154   1.449   0.754   7.014  1.3202  0.6751 -2.5755
   43CHL1    C2 3155   1.344   0.833   6.847  0.4191  0.1032 -0.2250
   43CHL1   H2A 3156   1.444   0.855   6.803  0.2786 -0.1133 -0.6615
   43CHL1   H2B 3157   1.282   0.923   6.827  0.3697  0.0236 -0.4343
   43CHL1   C20 3158   1.326   0.833   7.780 -0.2742  0.8320  0.0491
   43CHL1   H20 3159   1.223   0.868   7.800 -0.1704  1.2845 -0.1909
   43CHL1   C21 3160   1.428   0.943   7.760 -0.0376 -0.1259  0.2234
   43CHL1  H21A 3161   1.534   0.910   7.752  0.8094  2.1028  1.3033
   43CHL1  H21B 3162   1.430   1.008   7.851  2.5003  1.8191 -1.0583
   43CHL1  H21C 3163   1.413   1.021   7.682 -0.4153 -0.2431  0.1821
   43CHL1   C22 3164   1.366   0.761   7.913  0.0045  0.0656  0.2914
   43CHL1  H22A 3165   1.304   0.668   7.917 -0.7104  0.4800 -0.9203
   43CHL1  H22B 3166   1.471   0.726   7.923  0.4719  1.2587 -0.2523
   43CHL1   C23 3167   1.330   0.837   8.046  0.0896  0.3296  0.6974
   43CHL1  H23A 3168   1.381   0.935   8.053  0.7133 -0.0451  1.6334
   43CHL1  H23B 3169   1.226   0.874   8.033  1.4153  3.9439 -0.8161
   43CHL1   C24 3170   1.371   0.764   8.176  0.4161  0.5535  0.2151
   43CHL1  H24A 3171   1.293   0.689   8.203 -0.4187  1.3121 -0.0448
   43CHL1  H24B 3172   1.472   0.722   8.157  0.1651  0.6359 -1.4149
   43CHL1   C25 3173   1.376   0.873   8.290 -0.5340  0.1678 -0.4035
   43CHL1   H25 3174   1.461   0.943   8.273  1.2955 -2.0610 -1.0376
   43CHL1   C26 3175   1.243   0.945   8.316  0.2534 -0.6602 -0.1822
   43CHL1  H26A 3176   1.241   1.006   8.409 -0.9492  1.3601 -1.4721
   43CHL1  H26B 3177   1.211   1.018   8.239 -0.3936  0.8425  1.4609
   43CHL1  H26C 3178   1.161   0.870   8.322 -0.2885 -0.0324  0.3250
   43CHL1   C27 3179   1.430   0.802   8.417 -0.3566 -0.1035  0.1267
   43CHL1  H27A 3180   1.350   0.735   8.456  0.9596 -1.3114  0.8132
   43CHL1  H27B 3181   1.522   0.746   8.391  0.5811  1.3368  0.2382
   43CHL1  H27C 3182   1.460   0.879   8.491 -1.7343 -0.4756  1.1128
   44CHL1    C3 3183   1.573   0.244   6.619 -0.4254 -0.9100 -0.1539
   44CHL1    H3 3184   1.683   0.255   6.616 -0.5841  0.9345 -2.4834
   44CHL1    O3 3185   1.527   0.268   6.483 -0.3007  0.9077 -0.6321
   44CHL1   H3' 3186   1.523   0.363   6.471  0.2192  1.0271  0.1167
   44CHL1    C4 3187   1.506   0.120   6.669 -0.2866  0.5077 -0.2659
   44CHL1   H4A 3188   1.398   0.107   6.648 -0.5298 -0.0491  1.2069
   44CHL1   H4B 3189   1.551   0.041   6.605  0.4088 -1.3517  2.3155
   44CHL1    C5 3190   1.519   0.107   6.822 -0.3424 -0.1761 -0.5875
   44CHL1    C6 3191   1.550  -0.019   6.881  0.2614 -0.2098  0.4785
   44CHL1    H6 3192   1.557  -0.101   6.808  1.4542 -0.0958  0.4498
   44CHL1    C7 3193   1.549  -0.049   7.029  0.4423  0.0313 -0.0202
   44CHL1   H7A 3194   1.472  -0.125   7.053  0.0616  0.6902  0.9072
   44CHL1   H7B 3195   1.644  -0.100   7.058 -0.2515 -2.2582 -1.4932
   44CHL1    C8 3196   1.499   0.074   7.110  0.1407  0.3825  0.3326
   44CHL1    H8 3197   1.388   0.071   7.097  0.2441 -1.1430 -0.4661
   44CHL1   C14 3198   1.543   0.058   7.251  0.1988 -0.0552 -0.2822
   44CHL1   H14 3199   1.652   0.076   7.250  0.1927 -0.0255 -0.5634
   44CHL1   C15 3200   1.516  -0.075   7.321  0.2123  0.5793 -0.7198
   44CHL1  H15A 3201   1.412  -0.102   7.293 -0.3739 -1.2690  2.6550
   44CHL1  H15B 3202   1.588  -0.156   7.297  1.0993  0.9585  0.5618
   44CHL1   C16 3203   1.527  -0.044   7.470 -0.6429  0.1426 -0.0113
   44CHL1  H16A 3204   1.438  -0.084   7.523 -0.0093  2.5148  3.1171
   44CHL1  H16B 3205   1.614  -0.086   7.525  1.0884  1.9891 -1.1874
   44CHL1   C17 3206   1.543   0.113   7.481 -0.3891  0.0168 -0.9448
   44CHL1   H17 3207   1.652   0.132   7.464 -0.6517  0.3804 -2.3905
   44CHL1   C13 3208   1.487   0.166   7.348 -0.2616  0.0334 -0.1417
   44CHL1   C18 3209   1.332   0.162   7.361 -0.3520  0.4417  0.7378
   44CHL1  H18A 3210   1.303   0.061   7.397  0.0097 -0.7319 -1.9623
   44CHL1  H18B 3211   1.304   0.245   7.428 -2.9028 -0.2369  0.6287
   44CHL1  H18C 3212   1.271   0.167   7.268  1.0559 -1.0722 -0.3284
   44CHL1   C12 3213   1.539   0.303   7.298  0.3847  0.0597  0.5935
   44CHL1  H12A 3214   1.506   0.387   7.362  2.3321  1.0990  0.3093
   44CHL1  H12B 3215   1.650   0.305   7.300  0.3704  1.2378  0.8051
   44CHL1   C11 3216   1.495   0.327   7.156 -0.4696 -0.2082  0.2605
   44CHL1  H11A 3217   1.385   0.346   7.155 -0.0384  2.9512 -1.3356
   44CHL1  H11B 3218   1.541   0.424   7.128  1.0838 -1.4226 -1.7027
   44CHL1    C9 3219   1.542   0.213   7.059 -0.3957 -0.5340 -0.2102
   44CHL1    H9 3220   1.653   0.204   7.053 -0.3799  0.5343 -2.4502
   44CHL1   C10 3221   1.491   0.230   6.913  0.4514 -0.6947 -0.6664
   44CHL1   C19 3222   1.338   0.262   6.902  0.1817  0.1356  0.4564
   44CHL1  H19A 3223   1.305   0.267   6.796  0.5020  1.2563  0.3880
   44CHL1  H19B 3224   1.278   0.184   6.953  2.1600 -0.7395  1.6008
   44CHL1  H19C 3225   1.318   0.363   6.944 -0.6933  0.4012 -0.5656
   44CHL1    C1 3226   1.572   0.354   6.851  0.2139 -0.8210 -0.0484
   44CHL1   H1A 3227   1.571   0.443   6.919  0.3719  0.5635 -1.7779
   44CHL1   H1B 3228   1.676   0.315   6.848  0.1466 -1.1316  1.2107
   44CHL1    C2 3229   1.539   0.370   6.708  0.5421 -0.3019  0.5394
   44CHL1   H2A 3230   1.608   0.446   6.666  1.7697 -1.6799 -0.0156
   44CHL1   H2B 3231   1.431   0.384   6.684 -0.4100 -4.0940  1.8956
   44CHL1   C20 3232   1.497   0.170   7.620  0.4658 -0.7957  0.1439
   44CHL1   H20 3233   1.389   0.152   7.641 -0.3409 -0.7768 -3.3920
   44CHL1   C21 3234   1.514   0.326   7.615  0.7065 -0.8389  0.3486
   44CHL1  H21A 3235   1.435   0.372   7.553  1.3076 -0.6857 -0.3101
   44CHL1  H21B 3236   1.612   0.367   7.582 -0.6704  0.5572 -2.2568
   44CHL1  H21C 3237   1.495   0.364   7.718 -1.5453 -1.0427  0.0513
   44CHL1   C22 3238   1.562   0.111   7.743 -0.7975  0.0206 -0.0344
   44CHL1  H22A 3239   1.534   0.004   7.753 -0.1028 -0.4105 -2.2040
   44CHL1  H22B 3240   1.673   0.117   7.731 -0.7171 -2.2010 -0.7772
   44CHL1   C23 3241   1.533   0.162   7.888 -0.3767 -0.4068  0.5070
   44CHL1  H23A 3242   1.606   0.124   7.963  0.0151 -1.2975 -0.2925
   44CHL1  H23B 3243   1.539   0.272   7.893 -0.9182 -0.1043 -2.9246
   44CHL1   C24 3244   1.391   0.125   7.937  0.5704  0.1405 -0.6490
   44CHL1  H24A 3245   1.319   0.200   7.899  0.2722 -0.1358 -0.6359
   44CHL1  H24B 3246   1.349   0.035   7.888 -1.8463  0.7323  0.1655
   44CHL1   C25 3247   1.374   0.107   8.086 -0.0291 -0.1117 -0.4736
   44CHL1   H25 3248   1.422   0.009   8.109  0.9162  0.5096  0.2947
   44CHL1   C26 3249   1.439   0.230   8.155  0.4571  0.0889  0.9443
   44CHL1  H26A 3250   1.550   0.231   8.142  0.3751 -1.3175 -0.1697
   44CHL1  H26B 3251   1.394   0.324   8.115 -0.4283 -0.0467  1.6001
   44CHL1  H26C 3252   1.416   0.233   8.263 -2.3178 -1.4366  0.4754
   44CHL1   C27 3253   1.231   0.095   8.127  0.0507  0.7430  0.6702
   44CHL1  H27A 3254   1.221   0.092   8.237  0.3493  1.4782  0.7301
   44CHL1  H27B 3255   1.174   0.183   8.090  0.5669  0.4563 -0.8703
   44CHL1  H27C 3256   1.189  -0.002   8.096 -1.1052  0.7536  2.0982
   45CHL1    C3 3257   2.577   5.242   6.730  0.8538  0.1132  0.0868
   45CHL1    H3 3258   2.604   5.344   6.766  2.6187 -1.2968  3.1348
   45CHL1    O3 3259   2.569   5.236   6.587  0.6169 -0.0297  0.6849
   45CHL1   H3' 3260   2.626   5.163   6.561  0.7724  0.4468 -0.3531
   45CHL1    C4 3261   2.687   5.155   6.780 -0.2920 -0.4186 -0.4731
   45CHL1   H4A 3262   2.682   5.052   6.739 -1.6480 -1.1049  1.3024
   45CHL1   H4B 3263   2.778   5.203   6.737  0.0649 -0.8321 -0.1843
   45CHL1    C5 3264   2.694   5.137   6.928 -0.3974  0.1580 -0.8214
   45CHL1    C6 3265   2.803   5.179   7.000  0.2582  0.3989  0.0684
   45CHL1    H6 3266   2.895   5.211   6.949  0.2344  0.8835  0.3326
   45CHL1    C7 3267   2.812   5.167   7.152  0.7536  1.0537  0.1648
   45CHL1   H7A 3268   2.913   5.124   7.169 -0.0963 -1.5922 -0.9465
   45CHL1   H7B 3269   2.798   5.272   7.184 -1.2429  0.4915  1.3001
   45CHL1    C8 3270   2.699   5.085   7.221  0.1110  0.0414 -0.1383
   45CHL1    H8 3271   2.722   4.977   7.218 -0.2690 -0.0268 -1.5083
   45CHL1   C14 3272   2.683   5.128   7.371 -0.1610 -0.0059 -0.1547
   45CHL1   H14 3273   2.656   5.236   7.366 -0.3684 -0.0125  0.7160
   45CHL1   C15 3274   2.804   5.122   7.464 -0.3410  0.5266 -0.4726
   45CHL1  H15A 3275   2.862   5.028   7.455 -0.7255  0.0294  1.6018
   45CHL1  H15B 3276   2.859   5.214   7.436 -0.0987  0.5733  0.1361
   45CHL1   C16 3277   2.746   5.132   7.608  0.0992  0.4155 -0.0095
   45CHL1  H16A 3278   2.767   5.041   7.668  0.8574  1.4264  1.3001
   45CHL1  H16B 3279   2.753   5.230   7.659 -0.9557  0.3117  0.3647
   45CHL1   C17 3280   2.588   5.123   7.583  0.1649 -0.8591 -0.1803
   45CHL1   H17 3281   2.559   5.229   7.568  0.8866 -0.3574  1.6698
   45CHL1   C13 3282   2.571   5.056   7.443 -0.0121 -0.6074  0.6192
   45CHL1   C18 3283   2.594   4.908   7.460 -0.2021  0.0872 -0.2044
   45CHL1  H18A 3284   2.670   4.897   7.541 -1.3956 -0.6774  0.8582
   45CHL1  H18B 3285   2.506   4.849   7.495 -0.3033  0.7389  0.6832
   45CHL1  H18C 3286   2.628   4.855   7.369 -0.8471 -1.4443  0.4037
   45CHL1   C12 3287   2.438   5.076   7.368 -0.0493  0.1557 -0.3488
   45CHL1  H12A 3288   2.346   5.022   7.401 -0.3666  1.2363  0.6165
   45CHL1  H12B 3289   2.414   5.184   7.377 -0.2697  0.0755  0.0526
   45CHL1   C11 3290   2.454   5.031   7.220 -0.2712 -0.3078 -0.7252
   45CHL1  H11A 3291   2.476   4.922   7.226 -2.6387 -0.7816  1.0515
   45CHL1  H11B 3292   2.358   5.051   7.166 -1.1388  0.9711  1.1613
   45CHL1    C9 3293   2.567   5.113   7.155  0.0829 -0.2728  0.1035
   45CHL1    H9 3294   2.542   5.219   7.178  0.8178 -0.1869  0.5645
   45CHL1   C10 3295   2.563   5.097   6.999  0.4707  0.2809  0.0621
   45CHL1   C19 3296   2.525   4.949   6.960  0.0664 -0.1806 -0.0406
   45CHL1  H19A 3297   2.603   4.885   7.006 -2.3822 -4.2502 -1.0259
   45CHL1  H19B 3298   2.426   4.920   7.001  0.6538 -1.0110  0.8296
   45CHL1  H19C 3299   2.522   4.938   6.849 -0.9685 -0.5707  0.0118
   45CHL1    C1 3300   2.451   5.188   6.945 -0.3696 -0.7871 -0.1794
   45CHL1   H1A 3301   2.357   5.153   6.994  1.2185 -2.6593  1.7764
   45CHL1   H1B 3302   2.457   5.291   6.987  0.2260 -0.7933 -0.2388
   45CHL1    C2 3303   2.439   5.194   6.793 -0.8253  0.1857  0.4812
   45CHL1   H2A 3304   2.364   5.265   6.752 -1.4784  0.1643  1.6151
   45CHL1   H2B 3305   2.415   5.094   6.750 -0.1215 -0.0974  0.7223
   45CHL1   C20 3306   2.507   5.060   7.696  0.1007  0.4420 -0.2803
   45CHL1   H20 3307   2.512   4.949   7.698  0.9622  0.4754 -0.1787
   45CHL1   C21 3308   2.356   5.093   7.667 -0.0485  0.2074  0.3262
   45CHL1  H21A 3309   2.319   5.036   7.579 -1.2530  2.1120 -0.4854
   45CHL1  H21B 3310   2.341   5.203   7.667  0.7972  0.3939  2.8806
   45CHL1  H21C 3311   2.282   5.065   7.744  0.9283  1.3274  1.7247
   45CHL1   C22 3312   2.539   5.111   7.837 -0.0292  0.4783 -0.1658
   45CHL1  H22A 3313   2.647   5.126   7.858  0.1824 -0.2536 -0.6654
   45CHL1  H22B 3314   2.494   5.212   7.847 -0.9735  0.0814 -0.2678
   45CHL1   C23 3315   2.476   5.017   7.945 -0.2705 -0.7506  0.0040
   45CHL1  H23A 3316   2.372   5.054   7.948 -0.1559  0.0271 -2.8141
   45CHL1  H23B 3317   2.475   4.907   7.927  1.4435 -0.8135  0.0515
   45CHL1   C24 3318   2.532   5.039   8.091 -0.3903  0.3805 -0.1122
   45CHL1  H24A 3319   2.481   4.959   8.148  0.2043 -0.5880 -0.8965
   45CHL1  H24B 3320   2.641   5.026   8.075 -0.5770 -0.4999 -0.7711
   45CHL1   C25 3321   2.514   5.182   8.153  0.5049  0.2869 -0.4206
   45CHL1   H25 3322   2.535   5.250   8.068  1.0081 -1.8068 -2.0688
   45CHL1   C26 3323   2.369   5.200   8.208  0.1007 -0.2255 -0.1332
   45CHL1  H26A 3324   2.293   5.195   8.127  1.8462  1.0686 -1.9771
   45CHL1  H26B 3325   2.360   5.124   8.288  0.1849  0.9436  1.0277
   45CHL1  H26C 3326   2.360   5.295   8.265 -0.1612  0.7042 -1.6589
   45CHL1   C27 3327   2.622   5.205   8.260  0.1722 -0.5577  0.6725
   45CHL1  H27A 3328   2.617   5.121   8.332 -1.6791  0.5137  1.8835
   45CHL1  H27B 3329   2.723   5.204   8.214 -1.4324 -1.6063 -3.1620
   45CHL1  H27C 3330   2.609   5.302   8.313 -1.3431 -0.9956  1.1363
   46CHL1    C3 3331   2.738   6.072   7.040 -0.1637 -0.8711 -0.7117
   46CHL1    H3 3332   2.627   6.073   7.048 -0.1233  1.5088  0.3312
   46CHL1    O3 3333   2.763   6.066   6.899  0.1502  0.1715 -0.5428
   46CHL1   H3' 3334   2.858   6.053   6.894  0.2039 -0.5771  1.5210
   46CHL1    C4 3335   2.796   6.200   7.096 -0.5182  0.2660  0.3693
   46CHL1   H4A 3336   2.904   6.206   7.068 -0.9530 -1.3549 -1.8342
   46CHL1   H4B 3337   2.757   6.286   7.038 -0.7639  0.3258  0.6218
   46CHL1    C5 3338   2.785   6.206   7.252  0.6062 -0.5184  0.6015
   46CHL1    C6 3339   2.721   6.308   7.314 -0.4377 -0.0066  0.4196
   46CHL1    H6 3340   2.697   6.391   7.246  0.8279 -1.8025 -2.4065
   46CHL1    C7 3341   2.707   6.321   7.463  0.0522 -0.2092 -0.3272
   46CHL1   H7A 3342   2.742   6.424   7.486  1.0144 -0.8623  1.2505
   46CHL1   H7B 3343   2.598   6.322   7.485  0.3761 -1.3149  1.5236
   46CHL1    C8 3344   2.798   6.225   7.541 -0.0838 -0.0518 -0.3723
   46CHL1    H8 3345   2.903   6.262   7.536  0.4856 -1.6560 -0.6258
   46CHL1   C14 3346   2.752   6.214   7.685  1.0740 -0.7963 -0.6749
   46CHL1   H14 3347   2.653   6.165   7.681  1.3954 -1.8409  2.0602
   46CHL1   C15 3348   2.741   6.348   7.768  0.8950 -0.0634  0.1319
   46CHL1  H15A 3349   2.820   6.426   7.768 -1.4900  2.5865  2.2757
   46CHL1  H15B 3350   2.656   6.407   7.729  1.9991  1.2319 -0.3861
   46CHL1   C16 3351   2.737   6.300   7.913 -0.3344 -0.1628 -0.2321
   46CHL1  H16A 3352   2.815   6.346   7.977  1.7718 -5.2019  1.2824
   46CHL1  H16B 3353   2.633   6.309   7.951 -0.0077  1.0693  0.4216
   46CHL1   C17 3354   2.768   6.147   7.921 -0.1834 -0.4456  0.5472
   46CHL1   H17 3355   2.665   6.104   7.921 -0.2677 -0.4491 -1.9765
   46CHL1   C13 3356   2.830   6.123   7.778 -0.6563  0.0563  0.2029
   46CHL1   C18 3357   2.980   6.173   7.782  0.3682 -0.5257  0.4790
   46CHL1  H18A 3358   3.031   6.174   7.683 -0.7485  2.9702 -0.2109
   46CHL1  H18B 3359   2.989   6.282   7.803 -1.1023  0.2833 -2.5072
   46CHL1  H18C 3360   3.043   6.119   7.855  1.4793 -0.1144 -0.1403
   46CHL1   C12 3361   2.822   5.985   7.721  0.0240 -0.1377  0.2757
   46CHL1  H12A 3362   2.872   5.905   7.780 -2.8155 -1.5676  0.9196
   46CHL1  H12B 3363   2.720   5.942   7.719  0.5319 -1.5243  1.6249
   46CHL1   C11 3364   2.865   5.977   7.574  0.1016 -0.5809 -0.0755
   46CHL1  H11A 3365   2.975   5.994   7.570  0.1314 -0.6478  0.3398
   46CHL1  H11B 3366   2.836   5.876   7.536 -0.3352 -0.2131 -0.7318
   46CHL1    C9 3367   2.796   6.082   7.473 -0.4794 -0.0652  0.2897
   46CHL1    H9 3368   2.689   6.052   7.477 -0.3250 -0.6160  0.3610
   46CHL1   C10 3369   2.841   6.084   7.327  0.1680  0.6015 -0.0642
   46CHL1   C19 3370   2.999   6.090   7.336  0.0586 -0.3836 -0.1558
   46CHL1  H19A 3371   3.032   5.987   7.358  0.4018 -0.3455 -0.4829
   46CHL1  H19B 3372   3.053   6.113   7.241 -2.2566  0.8081 -1.2720
   46CHL1  H19C 3373   3.044   6.159   7.411  0.6928 -0.9158 -0.0419
   46CHL1    C1 3374   2.796   5.945   7.260  0.2960 -0.6883  0.1468
   46CHL1   H1A 3375   2.846   5.858   7.306 -1.3862 -1.8178 -0.0625
   46CHL1   H1B 3376   2.689   5.931   7.286  0.2269  0.0440  0.2822
   46CHL1    C2 3377   2.810   5.950   7.109  0.7252  0.1950 -0.6089
   46CHL1   H2A 3378   2.764   5.859   7.064 -0.2066  0.5451 -0.3742
   46CHL1   H2B 3379   2.918   5.960   7.084  0.6105 -0.7266 -1.5904
   46CHL1   C20 3380   2.836   6.106   8.055 -0.6426  0.4978  0.4326
   46CHL1   H20 3381   2.921   6.177   8.067 -0.2943  0.3319 -0.9567
   46CHL1   C21 3382   2.876   5.952   8.053 -0.3504  0.6075  0.8292
   46CHL1  H21A 3383   2.947   5.935   7.970  1.0056 -0.2619  2.1067
   46CHL1  H21B 3384   2.792   5.880   8.038  0.0788  0.6180 -2.2873
   46CHL1  H21C 3385   2.933   5.927   8.145  0.8762  1.2038  0.2556
   46CHL1   C22 3386   2.749   6.119   8.181 -0.2244 -0.3560  0.0586
   46CHL1  H22A 3387   2.715   6.224   8.186  2.7418  0.7081  0.0723
   46CHL1  H22B 3388   2.662   6.051   8.171  0.9704 -2.1067  1.0717
   46CHL1   C23 3389   2.821   6.095   8.311  0.3759 -0.3100 -0.1550
   46CHL1  H23A 3390   2.819   5.986   8.330  2.0797 -0.6983 -1.8279
   46CHL1  H23B 3391   2.926   6.132   8.306  1.6146 -3.1681  2.0532
   46CHL1   C24 3392   2.750   6.150   8.442 -0.1681 -0.5586  0.0623
   46CHL1  H24A 3393   2.817   6.121   8.526 -2.3350 -2.2695  1.2896
   46CHL1  H24B 3394   2.748   6.261   8.434 -1.5149 -0.5059  0.8292
   46CHL1   C25 3395   2.614   6.091   8.486  0.1790  0.0533 -0.3086
   46CHL1   H25 3396   2.553   6.093   8.393 -1.0532 -0.0782  0.4732
   46CHL1   C26 3397   2.636   5.945   8.535  0.1135  0.2605  0.9537
   46CHL1  H26A 3398   2.543   5.907   8.581 -0.6885 -2.3328 -2.3676
   46CHL1  H26B 3399   2.654   5.881   8.445  0.7666  0.6695  0.7879
   46CHL1  H26C 3400   2.724   5.933   8.602 -0.2762 -1.2972  1.2382
   46CHL1   C27 3401   2.545   6.170   8.595  0.2462  0.7046  0.3885
   46CHL1  H27A 3402   2.439   6.138   8.597  0.2634 -0.2034  6.3723
   46CHL1  H27B 3403   2.592   6.161   8.696  3.7573  0.7985 -1.0758
   46CHL1  H27C 3404   2.555   6.279   8.573  1.2704  0.3021 -1.2760
   47CHL1    C3 3405   2.466   5.743   6.685  0.2661  0.2254 -0.7040
   47CHL1    H3 3406   2.533   5.829   6.702 -0.7905  0.9761 -0.2166
   47CHL1    O3 3407   2.426   5.713   6.550 -0.5446 -0.3828 -0.4566
   47CHL1   H3' 3408   2.331   5.720   6.560 -0.5213 -1.5896  1.0221
   47CHL1    C4 3409   2.529   5.613   6.739  0.0648  0.7208  0.2170
   47CHL1   H4A 3410   2.467   5.529   6.700 -3.7120  2.0223  2.8471
   47CHL1   H4B 3411   2.626   5.610   6.685 -1.6040 -1.4480 -3.0645
   47CHL1    C5 3412   2.540   5.606   6.886  0.7562  0.0509  0.0223
   47CHL1    C6 3413   2.654   5.561   6.940 -0.7918 -0.4848 -1.3759
   47CHL1    H6 3414   2.728   5.504   6.881  0.2315 -0.6788  0.0307
   47CHL1    C7 3415   2.674   5.550   7.087  0.1776 -0.1635  0.1436
   47CHL1   H7A 3416   2.707   5.448   7.117 -0.5927 -0.3213  0.4632
   47CHL1   H7B 3417   2.745   5.632   7.113 -1.4533  1.1678  0.5985
   47CHL1    C8 3418   2.544   5.585   7.170 -0.2555 -0.3718  0.2168
   47CHL1    H8 3419   2.485   5.492   7.157  0.6973 -0.9666  0.0016
   47CHL1   C14 3420   2.577   5.629   7.309 -0.3126 -0.1391 -0.1591
   47CHL1   H14 3421   2.619   5.732   7.301 -0.0755 -0.1627  0.7431
   47CHL1   C15 3422   2.680   5.537   7.381 -0.7483  0.1125  0.0389
   47CHL1  H15A 3423   2.674   5.427   7.363 -1.6029  0.1208  0.2289
   47CHL1  H15B 3424   2.786   5.561   7.360 -0.4051  0.6603  2.1735
   47CHL1   C16 3425   2.655   5.561   7.536  0.1028 -0.6454  0.6597
   47CHL1  H16A 3426   2.619   5.471   7.590  0.4366 -0.8732  0.5093
   47CHL1  H16B 3427   2.747   5.602   7.583  0.8760 -1.5781  0.0098
   47CHL1   C17 3428   2.543   5.670   7.539 -0.6584 -0.5768 -0.5089
   47CHL1   H17 3429   2.590   5.771   7.540  0.2210 -0.9789  0.1036
   47CHL1   C13 3430   2.469   5.648   7.409  0.1768 -0.0667 -0.1791
   47CHL1   C18 3431   2.377   5.524   7.418  0.3205  0.3858  0.5159
   47CHL1  H18A 3432   2.287   5.566   7.469 -0.9091  0.3911 -1.5527
   47CHL1  H18B 3433   2.346   5.491   7.317  0.9143  1.8536 -0.1704
   47CHL1  H18C 3434   2.410   5.429   7.466 -2.9656 -0.5647  1.1714
   47CHL1   C12 3435   2.392   5.768   7.348 -0.8941  0.0656  0.0309
   47CHL1  H12A 3436   2.310   5.810   7.410 -0.5659  1.4580 -0.4500
   47CHL1  H12B 3437   2.459   5.855   7.335 -0.3889 -0.4742 -1.1942
   47CHL1   C11 3438   2.346   5.741   7.197 -0.0885  0.4890  0.5053
   47CHL1  H11A 3439   2.263   5.667   7.199  0.2709  0.0660  0.0361
   47CHL1  H11B 3440   2.310   5.840   7.163 -0.5156  0.3900  0.6648
   47CHL1    C9 3441   2.457   5.688   7.103  0.5239  0.4567 -0.2847
   47CHL1    H9 3442   2.527   5.774   7.100  0.8296  0.1784 -2.0450
   47CHL1   C10 3443   2.417   5.670   6.958 -0.9541 -0.1994  0.6161
   47CHL1   C19 3444   2.304   5.565   6.957 -0.2764  0.2105 -0.4607
   47CHL1  H19A 3445   2.333   5.468   7.005  0.3475  0.9867  0.7876
   47CHL1  H19B 3446   2.210   5.606   7.002  0.8610  2.5817 -0.1188
   47CHL1  H19C 3447   2.284   5.527   6.855 -2.8174 -1.6415  0.5913
   47CHL1    C1 3448   2.358   5.802   6.904  0.3910 -0.1649 -0.5095
   47CHL1   H1A 3449   2.260   5.832   6.947 -0.7334  1.9338 -4.0715
   47CHL1   H1B 3450   2.432   5.883   6.923  0.2651 -0.1974  0.1129
   47CHL1    C2 3451   2.336   5.789   6.756  0.3298  0.2944 -0.6737
   47CHL1   H2A 3452   2.318   5.890   6.712  0.2391 -0.0163 -1.3674
   47CHL1   H2B 3453   2.246   5.727   6.735 -0.6085  0.9800  1.0890
   47CHL1   C20 3454   2.463   5.666   7.667  0.7292 -0.3909  0.1532
   47CHL1   H20 3455   2.410   5.568   7.677  0.1584  0.1471  4.0123
   47CHL1   C21 3456   2.356   5.771   7.664  0.7397 -0.6431  0.2008
   47CHL1  H21A 3457   2.400   5.868   7.634  2.5951 -1.0820  1.3050
   47CHL1  H21B 3458   2.305   5.795   7.760  1.6888  2.6646 -0.0007
   47CHL1  H21C 3459   2.275   5.741   7.594 -0.3576 -1.6947  1.8191
   47CHL1   C22 3460   2.545   5.675   7.797 -0.3891  0.2475  0.2250
   47CHL1  H22A 3461   2.631   5.607   7.785 -1.2175 -0.6376 -1.0320
   47CHL1  H22B 3462   2.586   5.778   7.799 -0.9646  0.5318 -1.0028
   47CHL1   C23 3463   2.472   5.612   7.916  0.0311 -0.4082 -0.1375
   47CHL1  H23A 3464   2.388   5.672   7.956  0.9780 -0.1232  1.5077
   47CHL1  H23B 3465   2.431   5.511   7.894 -2.9798  1.1323 -2.4535
   47CHL1   C24 3466   2.577   5.616   8.027 -0.0360  0.0589 -0.5448
   47CHL1  H24A 3467   2.652   5.538   8.003 -1.3862 -1.1943 -0.8169
   47CHL1  H24B 3468   2.622   5.717   8.031  0.1051 -0.0226  2.3084
   47CHL1   C25 3469   2.535   5.585   8.173  0.1323 -0.4088  0.6998
   47CHL1   H25 3470   2.506   5.478   8.185  2.0065 -1.0882 -0.5075
   47CHL1   C26 3471   2.650   5.599   8.269  0.2200 -0.3069  0.4947
   47CHL1  H26A 3472   2.725   5.517   8.260  0.9839  0.4175  0.1627
   47CHL1  H26B 3473   2.707   5.692   8.250  1.0318 -1.0424 -0.8682
   47CHL1  H26C 3474   2.612   5.605   8.373  0.1495  1.7667  0.3931
   47CHL1   C27 3475   2.431   5.686   8.213 -0.4832 -0.3068  0.2589
   47CHL1  H27A 3476   2.335   5.667   8.160 -0.5213  2.6912 -0.9221
   47CHL1  H27B 3477   2.421   5.686   8.323 -1.0895 -1.8442  0.2296
   47CHL1  H27C 3478   2.465   5.787   8.181  0.7801 -0.7709  0.1097
   48CHL1    C3 3479   4.375   2.987   6.308 -0.3411  0.5838  0.1533
   48CHL1    H3 3480   4.474   2.944   6.283 -0.3195  0.7403 -0.0333
   48CHL1    O3 3481   4.316   2.990   6.172  0.2278  0.1986 -0.2862
   48CHL1   H3' 3482   4.235   3.041   6.182  0.3045  0.3716 -0.5626
   48CHL1    C4 3483   4.294   2.898   6.399  0.1411 -0.4092  0.8320
   48CHL1   H4A 3484   4.188   2.932   6.397  0.5903  1.1025 -1.1902
   48CHL1   H4B 3485   4.289   2.794   6.360 -1.0455  0.0238 -0.2454
   48CHL1    C5 3486   4.360   2.895   6.531  0.0410 -0.0610  0.4649
   48CHL1    C6 3487   4.407   2.784   6.593  0.2186 -1.0309  0.3513
   48CHL1    H6 3488   4.393   2.686   6.546 -2.8847 -0.9586  0.8959
   48CHL1    C7 3489   4.454   2.787   6.733 -0.5377  0.0532  0.8305
   48CHL1   H7A 3490   4.415   2.700   6.791  0.6097 -0.7643  0.4081
   48CHL1   H7B 3491   4.563   2.769   6.722 -0.8325 -2.3807  1.3398
   48CHL1    C8 3492   4.434   2.920   6.807 -0.1345  0.1554 -0.2195
   48CHL1    H8 3493   4.324   2.918   6.815 -0.1145 -0.3538 -0.0300
   48CHL1   C14 3494   4.516   2.909   6.938  0.1597 -0.0119  0.1250
   48CHL1   H14 3495   4.622   2.901   6.904 -0.1596 -1.3482 -0.6027
   48CHL1   C15 3496   4.492   2.795   7.036 -0.1342 -0.0986  0.2453
   48CHL1  H15A 3497   4.382   2.781   7.048 -0.2487 -0.7069 -1.3769
   48CHL1  H15B 3498   4.537   2.701   7.000 -0.7199  0.0070 -0.7940
   48CHL1   C16 3499   4.538   2.855   7.166  0.5532  0.0511 -0.3658
   48CHL1  H16A 3500   4.454   2.828   7.234 -0.4635 -0.4534 -1.7635
   48CHL1  H16B 3501   4.624   2.802   7.212 -0.0722 -1.7455 -1.2025
   48CHL1   C17 3502   4.558   3.003   7.157  0.3737 -0.4871  0.4557
   48CHL1   H17 3503   4.666   3.026   7.149  0.3847 -0.1763  1.4418
   48CHL1   C13 3504   4.493   3.038   7.025  0.1753 -0.2201 -0.1216
   48CHL1   C18 3505   4.342   3.073   7.049  0.2973 -0.1110  0.1893
   48CHL1  H18A 3506   4.292   3.108   6.956  0.6853  0.1423  0.0693
   48CHL1  H18B 3507   4.284   2.984   7.080 -1.0859  0.9074  0.6080
   48CHL1  H18C 3508   4.330   3.157   7.121  0.9283  0.2278 -0.0846
   48CHL1   C12 3509   4.557   3.148   6.947 -0.2960 -0.5287 -0.8879
   48CHL1  H12A 3510   4.539   3.251   6.984 -0.1240 -0.6877 -0.3516
   48CHL1  H12B 3511   4.665   3.121   6.937 -0.0559 -0.7436  1.6273
   48CHL1   C11 3512   4.500   3.168   6.802  0.4847  0.0255 -0.3877
   48CHL1  H11A 3513   4.398   3.210   6.819 -0.2496 -0.9304 -2.1219
   48CHL1  H11B 3514   4.555   3.240   6.737 -2.3941  0.4800 -2.5727
   48CHL1    C9 3515   4.474   3.037   6.725  0.1651  0.0325  0.2733
   48CHL1    H9 3516   4.576   3.010   6.690 -0.9668 -2.2694 -1.4831
   48CHL1   C10 3517   4.384   3.044   6.592  0.7386  0.7349 -0.4805
   48CHL1   C19 3518   4.243   3.106   6.614  0.1593  0.5325 -0.5248
   48CHL1  H19A 3519   4.181   3.121   6.523  0.2115  0.4062 -0.5806
   48CHL1  H19B 3520   4.187   3.043   6.686 -2.3077  1.4534 -1.5058
   48CHL1  H19C 3521   4.253   3.202   6.669 -2.2331  0.2079  0.6103
   48CHL1    C1 3522   4.460   3.139   6.495 -0.1888  0.1498 -0.0840
   48CHL1   H1A 3523   4.460   3.243   6.533  0.0985  0.2600 -0.3844
   48CHL1   H1B 3524   4.558   3.087   6.485 -0.5173 -0.8898  1.6905
   48CHL1    C2 3525   4.392   3.127   6.359  0.3046  0.4370 -0.2031
   48CHL1   H2A 3526   4.456   3.179   6.286 -0.0272  0.9020 -0.1672
   48CHL1   H2B 3527   4.292   3.177   6.361  0.5093  0.8395 -0.0583
   48CHL1   C20 3528   4.513   3.068   7.288 -0.5796 -0.7005  0.4986
   48CHL1   H20 3529   4.403   3.057   7.303 -0.8491  0.5196 -0.3986
   48CHL1   C21 3530   4.546   3.220   7.270 -0.2360  0.3915 -0.0856
   48CHL1  H21A 3531   4.480   3.266   7.193  1.1340  0.2676 -1.3767
   48CHL1  H21B 3532   4.648   3.217   7.227  1.4259  0.4046  3.4980
   48CHL1  H21C 3533   4.538   3.291   7.356  0.7480 -0.8334  1.0507
   48CHL1   C22 3534   4.586   3.011   7.415  0.5960 -0.7844  0.6662
   48CHL1  H22A 3535   4.572   2.901   7.410  0.4086 -0.7084 -1.3697
   48CHL1  H22B 3536   4.696   3.023   7.403  0.4957 -0.1073  0.3323
   48CHL1   C23 3537   4.551   3.093   7.546  0.3686 -0.2636 -0.1427
   48CHL1  H23A 3538   4.592   3.195   7.538  0.1929 -0.2404 -0.7968
   48CHL1  H23B 3539   4.441   3.099   7.558  0.3805 -0.9281  0.3788
   48CHL1   C24 3540   4.609   3.029   7.674  0.1036 -0.0410  0.1984
   48CHL1  H24A 3541   4.587   2.920   7.677 -0.0948  0.0165  1.4619
   48CHL1  H24B 3542   4.717   3.051   7.657 -0.1264 -1.2056 -3.9303
   48CHL1   C25 3543   4.551   3.099   7.804 -0.1834 -0.2189  0.5244
   48CHL1   H25 3544   4.581   3.206   7.801  1.0903 -0.5758 -0.0518
   48CHL1   C26 3545   4.402   3.079   7.833 -0.3458  0.2408 -0.7797
   48CHL1  H26A 3546   4.366   3.126   7.927 -1.9848 -0.7297 -0.8859
   48CHL1  H26B 3547   4.338   3.136   7.762 -2.0024 -0.5114  0.0337
   48CHL1  H26C 3548   4.372   2.972   7.827  2.9520 -0.8207 -0.0646
   48CHL1   C27 3549   4.628   3.038   7.921 -0.0439 -0.1450  0.1771
   48CHL1  H27A 3550   4.582   2.938   7.936 -2.2605  0.8065  0.2292
   48CHL1  H27B 3551   4.738   3.037   7.908  0.2258  3.3903  1.2858
   48CHL1  H27C 3552   4.615   3.102   8.010 -0.4817  0.3157 -0.2054
   49CHL1    C3 3553   3.418   2.654   6.507 -0.8606  1.0798  0.4526
   49CHL1    H3 3554   3.342   2.735   6.510  0.5063  2.7962 -3.6848
   49CHL1    O3 3555   3.444   2.638   6.367  0.0482  0.2251 -0.6770
   49CHL1   H3' 3556   3.496   2.558   6.359 -0.7888 -0.2511 -1.4153
   49CHL1    C4 3557   3.552   2.689   6.572 -0.4398 -0.1627 -0.5094
   49CHL1   H4A 3558   3.630   2.613   6.549 -0.0769  0.0988 -0.1599
   49CHL1   H4B 3559   3.581   2.779   6.514 -2.1697  2.0648  1.8848
   49CHL1    C5 3560   3.538   2.711   6.722  0.0739  0.4267 -0.1522
   49CHL1    C6 3561   3.580   2.824   6.775  0.2453  0.4207 -0.6142
   49CHL1    H6 3562   3.628   2.905   6.717 -2.2397  4.6049  2.5895
   49CHL1    C7 3563   3.580   2.861   6.921 -0.9075 -0.0803  0.3978
   49CHL1   H7A 3564   3.682   2.899   6.945  0.0776 -0.8368 -2.2980
   49CHL1   H7B 3565   3.514   2.948   6.942  0.5897  0.7311  2.0689
   49CHL1    C8 3566   3.543   2.732   7.007  0.1177  0.3729 -0.1422
   49CHL1    H8 3567   3.643   2.685   7.021  0.5156  1.2544  0.0368
   49CHL1   C14 3568   3.499   2.779   7.133  0.2807 -0.1109 -0.0895
   49CHL1   H14 3569   3.399   2.821   7.107 -0.3123 -1.1382  0.4322
   49CHL1   C15 3570   3.571   2.894   7.207 -0.1737 -0.1562  0.6460
   49CHL1  H15A 3571   3.675   2.856   7.214 -0.1702 -0.4373 -0.7407
   49CHL1  H15B 3572   3.570   2.994   7.159 -1.3013  0.1043  1.1828
   49CHL1   C16 3573   3.522   2.890   7.348 -0.6443  0.2286  0.2879
   49CHL1  H16A 3574   3.597   2.896   7.430  1.4873  1.2332 -1.6184
   49CHL1  H16B 3575   3.453   2.975   7.368 -1.1151 -0.4969  1.9914
   49CHL1   C17 3576   3.439   2.754   7.362 -0.6124 -0.2832 -0.3133
   49CHL1   H17 3577   3.334   2.790   7.354 -1.7906 -1.9180  4.1664
   49CHL1   C13 3578   3.472   2.674   7.244 -0.0992  0.5914  0.4057
   49CHL1   C18 3579   3.601   2.595   7.271 -0.1162 -0.1905 -0.3246
   49CHL1  H18A 3580   3.679   2.665   7.306 -0.0605 -0.5533  0.3030
   49CHL1  H18B 3581   3.587   2.513   7.345  1.9835  0.1196  0.4854
   49CHL1  H18C 3582   3.637   2.545   7.179  1.5812 -1.0038  0.7310
   49CHL1   C12 3583   3.356   2.582   7.187 -0.1436  0.0563 -0.0660
   49CHL1  H12A 3584   3.353   2.491   7.251  0.6112 -0.0370 -0.1607
   49CHL1  H12B 3585   3.255   2.628   7.179 -0.2591 -0.4522 -1.7942
   49CHL1   C11 3586   3.406   2.530   7.046  0.2371 -0.3817 -0.5476
   49CHL1  H11A 3587   3.493   2.466   7.075  0.8438  0.7270  0.1338
   49CHL1  H11B 3588   3.322   2.471   7.003 -1.7839  1.9430  0.0403
   49CHL1    C9 3589   3.448   2.643   6.939  0.6169  0.3733  0.3313
   49CHL1    H9 3590   3.357   2.705   6.925  1.1928  0.7645 -2.1917
   49CHL1   C10 3591   3.484   2.594   6.797 -0.0077  0.1106 -0.2375
   49CHL1   C19 3592   3.601   2.492   6.803  0.2673 -0.2940 -0.0806
   49CHL1  H19A 3593   3.628   2.468   6.698  1.5465  0.1453  0.1273
   49CHL1  H19B 3594   3.691   2.542   6.846  0.3050 -0.8245  0.4717
   49CHL1  H19C 3595   3.572   2.402   6.861 -0.7811 -0.8131 -1.3695
   49CHL1    C1 3596   3.359   2.542   6.724 -0.2584 -0.2219  0.6358
   49CHL1   H1A 3597   3.329   2.446   6.770 -0.8829 -0.2030  0.2692
   49CHL1   H1B 3598   3.274   2.613   6.734  0.9180  1.2538  0.4944
   49CHL1    C2 3599   3.363   2.526   6.573 -0.6685 -0.0503  0.1261
   49CHL1   H2A 3600   3.261   2.506   6.533  0.0966 -0.6069 -1.6203
   49CHL1   H2B 3601   3.413   2.436   6.531 -1.0806 -1.0994  1.7597
   49CHL1   C20 3602   3.441   2.687   7.495  0.2567 -0.0160  0.0710
   49CHL1   H20 3603   3.541   2.652   7.529  0.7367  1.4128  0.2010
   49CHL1   C21 3604   3.351   2.564   7.517 -0.6158  0.2242  0.3117
   49CHL1  H21A 3605   3.359   2.527   7.621  1.7883 -0.3111  0.0168
   49CHL1  H21B 3606   3.397   2.487   7.451 -1.3639  1.0765 -1.2549
   49CHL1  H21C 3607   3.250   2.586   7.476  0.4086  0.1935 -2.4691
   49CHL1   C22 3608   3.400   2.796   7.607  0.7424  0.4925  0.6317
   49CHL1  H22A 3609   3.471   2.881   7.597 -0.0158  0.9793 -1.0700
   49CHL1  H22B 3610   3.299   2.830   7.577 -0.1486 -1.6274  1.0585
   49CHL1   C23 3611   3.413   2.766   7.752  0.5325  0.0261  0.3464
   49CHL1  H23A 3612   3.359   2.673   7.782  2.3898 -0.1822  3.4641
   49CHL1  H23B 3613   3.519   2.739   7.771  0.5274 -1.2523 -1.2167
   49CHL1   C24 3614   3.365   2.872   7.852 -0.2057 -0.1440 -0.0151
   49CHL1  H24A 3615   3.402   2.971   7.816  0.5196 -0.4779 -0.2171
   49CHL1  H24B 3616   3.255   2.885   7.848 -0.1874 -0.0273 -0.1617
   49CHL1   C25 3617   3.402   2.840   8.000 -0.5534 -0.0472  0.8929
   49CHL1   H25 3618   3.361   2.738   8.016 -1.0184 -0.3205 -1.6185
   49CHL1   C26 3619   3.550   2.840   8.028  0.1028 -0.1460 -0.4235
   49CHL1  H26A 3620   3.574   2.841   8.137  3.2156 -0.8883 -1.0196
   49CHL1  H26B 3621   3.601   2.749   7.990  0.9230  0.5035 -0.8964
   49CHL1  H26C 3622   3.604   2.923   7.978 -1.6716  0.7312 -0.9706
   49CHL1   C27 3623   3.321   2.942   8.080 -0.0535 -0.5603  0.1069
   49CHL1  H27A 3624   3.327   2.928   8.190  1.7563  1.6063  0.3412
   49CHL1  H27B 3625   3.361   3.043   8.057 -1.2147 -0.1790 -0.3326
   49CHL1  H27C 3626   3.215   2.944   8.045  0.2301 -0.0754 -0.7552
   50CHL1    C3 3627   5.721   3.489   6.797 -0.3488 -0.0233 -0.5305
   50CHL1    H3 3628   5.611   3.476   6.800 -0.3195 -0.1810  0.0136
   50CHL1    O3 3629   5.744   3.455   6.665 -0.1267  0.0319 -0.3613
   50CHL1   H3' 3630   5.729   3.361   6.661  0.3373 -0.1254  1.0861
   50CHL1    C4 3631   5.778   3.620   6.829  0.0050  0.2164  0.0469
   50CHL1   H4A 3632   5.882   3.626   6.791  0.1916 -0.3000  0.4693
   50CHL1   H4B 3633   5.737   3.705   6.770 -2.3458 -0.4370  0.6567
   50CHL1    C5 3634   5.774   3.655   6.975  0.8182 -0.2291 -0.0411
   50CHL1    C6 3635   5.710   3.758   7.027 -0.0578 -0.3335 -0.0733
   50CHL1    H6 3636   5.642   3.817   6.963  1.0462  0.4708 -0.5386
   50CHL1    C7 3637   5.710   3.801   7.172 -0.6855  0.2433  0.2123
   50CHL1   H7A 3638   5.723   3.911   7.182  1.8274 -0.1262  1.7060
   50CHL1   H7B 3639   5.615   3.788   7.228 -0.9346  2.6110  0.4272
   50CHL1    C8 3640   5.829   3.734   7.256 -0.5945 -0.0105 -0.3477
   50CHL1    H8 3641   5.932   3.771   7.238  0.2597 -1.2566  1.6408
   50CHL1   C14 3642   5.800   3.736   7.407 -0.1364 -0.6561  0.1181
   50CHL1   H14 3643   5.709   3.680   7.435  0.1811 -0.7159  1.0693
   50CHL1   C15 3644   5.792   3.875   7.468 -0.3693  0.1358  0.4406
   50CHL1  H15A 3645   5.870   3.937   7.418  0.2432  0.9749  2.3519
   50CHL1  H15B 3646   5.700   3.928   7.435  0.2187  1.0486  0.2199
   50CHL1   C16 3647   5.795   3.852   7.619 -0.4209  0.1360  0.4047
   50CHL1  H16A 3648   5.877   3.916   7.661  2.0619 -2.5818  0.0086
   50CHL1  H16B 3649   5.699   3.864   7.673  0.4700 -2.0615  2.6633
   50CHL1   C17 3650   5.848   3.705   7.633  0.6701 -0.1745 -0.3673
   50CHL1   H17 3651   5.765   3.633   7.649  0.9426 -0.5806 -0.7518
   50CHL1   C13 3652   5.910   3.674   7.494 -0.5029 -0.5145 -0.8092
   50CHL1   C18 3653   6.042   3.748   7.491  0.5139  0.1767  0.2076
   50CHL1  H18A 3654   6.124   3.711   7.556 -0.0849  0.2003  0.9809
   50CHL1  H18B 3655   6.087   3.742   7.389 -0.3972 -2.2676 -0.1199
   50CHL1  H18C 3656   6.036   3.856   7.516 -0.9069  0.0774  0.3645
   50CHL1   C12 3657   5.922   3.530   7.452  0.2467 -0.0191 -0.5241
   50CHL1  H12A 3658   6.001   3.478   7.510  0.1575 -1.3268 -1.5233
   50CHL1  H12B 3659   5.827   3.480   7.481  0.3427 -0.6220 -1.2345
   50CHL1   C11 3660   5.951   3.511   7.308  0.6075  0.4000  0.2205
   50CHL1  H11A 3661   6.056   3.543   7.289  0.5326  1.7913  1.9196
   50CHL1  H11B 3662   5.943   3.403   7.284  0.1582  0.4271  0.2423
   50CHL1    C9 3663   5.841   3.586   7.216  0.0383  0.5550  0.4394
   50CHL1    H9 3664   5.742   3.540   7.237  0.7996 -2.0820 -1.2231
   50CHL1   C10 3665   5.859   3.563   7.068  0.3807  0.0856  0.2196
   50CHL1   C19 3666   6.006   3.587   7.023 -0.2486 -0.1569  0.5805
   50CHL1  H19A 3667   6.030   3.558   6.919 -0.0427  1.5985  0.0976
   50CHL1  H19B 3668   6.040   3.692   7.036 -0.6919  0.3359 -1.7423
   50CHL1  H19C 3669   6.080   3.543   7.093  1.6853  0.6359 -0.8558
   50CHL1    C1 3670   5.805   3.416   7.033  0.1778  0.3402 -0.4823
   50CHL1   H1A 3671   5.859   3.330   7.078 -2.1293 -0.5404  0.7564
   50CHL1   H1B 3672   5.702   3.416   7.073 -0.2055 -0.6525 -1.4441
   50CHL1    C2 3673   5.798   3.385   6.884  0.1255  0.2149  0.4279
   50CHL1   H2A 3674   5.739   3.291   6.875  0.7763 -0.1697  0.1947
   50CHL1   H2B 3675   5.900   3.354   6.855  1.1235 -0.8546  4.4214
   50CHL1   C20 3676   5.933   3.682   7.757  0.4272 -0.1177  0.4542
   50CHL1   H20 3677   6.028   3.736   7.735 -0.3834  1.8679  1.5336
   50CHL1   C21 3678   5.960   3.529   7.778 -0.7071 -0.3981 -0.3197
   50CHL1  H21A 3679   6.012   3.470   7.701 -1.8982 -0.9658 -0.7122
   50CHL1  H21B 3680   5.860   3.485   7.799 -1.4302 -0.0963 -2.7731
   50CHL1  H21C 3681   6.019   3.509   7.870 -0.3615  1.6869 -0.0340
   50CHL1   C22 3682   5.865   3.749   7.885 -0.6830 -0.3009 -0.0711
   50CHL1  H22A 3683   5.943   3.754   7.964 -1.9462  0.5649  1.1813
   50CHL1  H22B 3684   5.853   3.858   7.866 -0.4065 -0.3107 -0.3071
   50CHL1   C23 3685   5.743   3.680   7.949 -0.0277 -0.1436  0.5379
   50CHL1  H23A 3686   5.664   3.664   7.873  0.1255 -0.9081  0.5322
   50CHL1  H23B 3687   5.761   3.573   7.972 -1.5916 -0.2598  1.3591
   50CHL1   C24 3688   5.704   3.734   8.088 -0.5572  0.4872  0.2124
   50CHL1  H24A 3689   5.790   3.715   8.156  0.7416 -0.1596 -1.5115
   50CHL1  H24B 3690   5.679   3.842   8.083 -1.5793  0.4029  2.5205
   50CHL1   C25 3691   5.569   3.681   8.142 -0.9060  0.1227 -0.1366
   50CHL1   H25 3692   5.567   3.570   8.142 -0.5739  0.1122 -0.6889
   50CHL1   C26 3693   5.550   3.734   8.283 -0.7220 -0.3764 -0.7215
   50CHL1  H26A 3694   5.523   3.842   8.289  1.4808  0.1408  2.2343
   50CHL1  H26B 3695   5.455   3.683   8.310 -0.2689 -1.4369 -1.0728
   50CHL1  H26C 3696   5.622   3.709   8.363 -1.6189 -0.1119  0.1829
   50CHL1   C27 3697   5.452   3.719   8.050  0.4443 -0.1784  0.1822
   50CHL1  H27A 3698   5.350   3.680   8.068 -1.0515  2.1314 -2.4709
   50CHL1  H27B 3699   5.448   3.830   8.045 -2.6931 -0.2158 -0.4686
   50CHL1  H27C 3700   5.477   3.697   7.944 -0.3676  1.6784 -0.4441
   51CHL1    C3 3701   1.947   3.130   6.834  0.2754  0.4344 -0.4165
   51CHL1    H3 3702   2.025   3.207   6.854 -1.0755  1.7696 -0.1269
   51CHL1    O3 3703   1.938   3.131   6.693 -0.1883 -0.1854  0.3174
   51CHL1   H3' 3704   1.889   3.050   6.676  1.0162 -1.1923  1.4463
   51CHL1    C4 3705   1.977   2.989   6.880 -0.3011  0.4894 -0.4702
   51CHL1   H4A 3706   1.904   2.914   6.844  0.0264 -0.1484  0.1706
   51CHL1   H4B 3707   2.071   2.956   6.829 -0.1251  1.0595 -0.5191
   51CHL1    C5 3708   1.977   2.981   7.038 -0.8527  0.2246 -0.6030
   51CHL1    C6 3709   2.099   2.959   7.096  0.2565 -0.1949  0.0571
   51CHL1    H6 3710   2.184   2.942   7.028 -2.8848 -1.1197 -4.0592
   51CHL1    C7 3711   2.117   2.958   7.249 -0.0859 -0.2283  0.4417
   51CHL1   H7A 3712   2.170   2.868   7.287  1.1403  0.1890 -0.2107
   51CHL1   H7B 3713   2.179   3.048   7.271  0.8454  0.0435 -2.7598
   51CHL1    C8 3714   1.976   2.971   7.321 -0.1140 -0.5175 -0.4957
   51CHL1    H8 3715   1.941   2.866   7.324 -0.1499 -0.5105 -0.6512
   51CHL1   C14 3716   2.009   3.017   7.466  0.0010  0.1392  0.0405
   51CHL1   H14 3717   2.043   3.122   7.461  0.5634  0.0345  1.2535
   51CHL1   C15 3718   2.109   2.935   7.560 -0.3236 -0.2661 -0.3190
   51CHL1  H15A 3719   2.088   2.826   7.547  1.6882 -0.9170  1.3747
   51CHL1  H15B 3720   2.210   2.951   7.517 -0.4363  0.2810 -0.3827
   51CHL1   C16 3721   2.084   2.999   7.698 -0.1180 -0.4777 -0.1696
   51CHL1  H16A 3722   2.068   2.915   7.770  0.4170 -0.5831 -0.1695
   51CHL1  H16B 3723   2.170   3.065   7.725  1.2051 -1.6770 -1.2937
   51CHL1   C17 3724   1.953   3.079   7.690  0.1636 -0.0682  0.5228
   51CHL1   H17 3725   1.979   3.186   7.678 -1.3521  0.3290  0.5092
   51CHL1   C13 3726   1.885   3.033   7.559  0.6980 -0.1518 -0.3660
   51CHL1   C18 3727   1.810   2.894   7.577  0.2618 -0.1540 -0.1344
   51CHL1  H18A 3728   1.875   2.815   7.622  1.6562  1.6976  1.2908
   51CHL1  H18B 3729   1.718   2.913   7.635 -0.1207 -1.4970 -0.2742
   51CHL1  H18C 3730   1.772   2.853   7.481 -1.0450 -2.4748  1.2952
   51CHL1   C12 3731   1.787   3.130   7.496 -0.7906 -0.2820 -0.2167
   51CHL1  H12A 3732   1.687   3.142   7.542 -0.8112 -0.5247 -0.1972
   51CHL1  H12B 3733   1.839   3.229   7.502  1.0065 -1.2096  0.3596
   51CHL1   C11 3734   1.755   3.091   7.350  0.4770  0.5479 -0.5121
   51CHL1  H11A 3735   1.698   2.995   7.352  1.5612 -0.0997  1.1441
   51CHL1  H11B 3736   1.681   3.161   7.306 -0.6502  0.4082  1.0654
   51CHL1    C9 3737   1.877   3.069   7.256 -0.2593 -0.1961  0.6730
   51CHL1    H9 3738   1.939   3.161   7.250 -1.2634  0.4084 -0.8559
   51CHL1   C10 3739   1.845   3.031   7.110 -0.6929 -0.0295  0.1242
   51CHL1   C19 3740   1.739   2.919   7.112 -0.1837 -0.9447  0.3050
   51CHL1  H19A 3741   1.719   2.889   7.007  2.9329 -1.5985 -0.1925
   51CHL1  H19B 3742   1.755   2.826   7.170  0.3861 -0.5476  0.8070
   51CHL1  H19C 3743   1.648   2.966   7.155  0.2377  1.6690 -1.4208
   51CHL1    C1 3744   1.792   3.163   7.037  0.5508 -0.0378  0.0458
   51CHL1   H1A 3745   1.685   3.173   7.064  1.4426  3.9558  3.2191
   51CHL1   H1B 3746   1.851   3.251   7.071 -1.1096  1.5331 -0.9709
   51CHL1    C2 3747   1.805   3.167   6.884 -1.1800 -0.1954 -0.4092
   51CHL1   H2A 3748   1.794   3.271   6.847  0.0953  0.5926  1.2562
   51CHL1   H2B 3749   1.735   3.096   6.834 -1.8658 -0.4847  0.9021
   51CHL1   C20 3750   1.869   3.075   7.820  0.8098  0.2320  0.0188
   51CHL1   H20 3751   1.831   2.970   7.823 -1.3630  0.9491 -0.4824
   51CHL1   C21 3752   1.753   3.172   7.810 -0.3164  1.3465  0.2235
   51CHL1  H21A 3753   1.782   3.272   7.770 -1.5476  1.4215 -0.5447
   51CHL1  H21B 3754   1.715   3.180   7.914 -1.2100 -1.4132  0.1816
   51CHL1  H21C 3755   1.668   3.130   7.751  0.0945 -0.3903  0.8186
   51CHL1   C22 3756   1.945   3.091   7.950 -0.5549 -0.0483  0.0996
   51CHL1  H22A 3757   1.872   3.086   8.034 -0.4592  1.5653  0.3121
   51CHL1  H22B 3758   2.022   3.015   7.975 -1.0585  0.1611  2.5396
   51CHL1   C23 3759   1.996   3.227   7.983  1.0796 -0.3418  0.4236
   51CHL1  H23A 3760   2.047   3.272   7.895  2.4503  2.1387  2.3481
   51CHL1  H23B 3761   1.902   3.286   7.991  1.3048  0.2932 -1.1678
   51CHL1   C24 3762   2.068   3.237   8.112 -0.1270 -0.4133 -0.3087
   51CHL1  H24A 3763   2.010   3.203   8.201 -1.5624 -0.8886 -1.3770
   51CHL1  H24B 3764   2.156   3.169   8.104 -0.2752 -0.9904  2.1460
   51CHL1   C25 3765   2.124   3.377   8.142  0.3254 -0.4550 -1.0695
   51CHL1   H25 3766   2.180   3.416   8.055  3.8436 -2.2595  0.2081
   51CHL1   C26 3767   2.017   3.476   8.176  0.1326 -0.0922 -0.8443
   51CHL1  H26A 3768   1.965   3.452   8.271  1.4520  0.4774  0.0486
   51CHL1  H26B 3769   2.070   3.574   8.188 -1.4015  0.7926 -1.0740
   51CHL1  H26C 3770   1.945   3.491   8.093 -1.0472 -2.3723 -0.3064
   51CHL1   C27 3771   2.239   3.372   8.247 -0.5586 -0.1876  0.1697
   51CHL1  H27A 3772   2.280   3.474   8.267  0.9517 -0.8785  0.8110
   51CHL1  H27B 3773   2.203   3.359   8.351  1.8337  1.3996  1.3137
   51CHL1  H27C 3774   2.314   3.295   8.217  1.7683  1.1491  2.1278
   52CHL1    C3 3775   0.981   5.843   6.926  0.1110 -0.5507 -0.9226
   52CHL1    H3 3776   0.872   5.843   6.906  0.1974 -1.0887 -1.4456
   52CHL1    O3 3777   1.039   5.810   6.804 -0.1775  0.3732  0.1335
   52CHL1   H3' 3778   1.010   5.881   6.747 -1.6271 -0.1439  0.1837
   52CHL1    C4 3779   1.025   5.985   6.963  1.1375 -0.0110 -0.5216
   52CHL1   H4A 3780   1.135   5.976   6.965  1.0861 -0.8183 -0.8635
   52CHL1   H4B 3781   0.989   6.054   6.884 -0.2404  0.2845  0.3217
   52CHL1    C5 3782   0.967   6.032   7.098 -0.9311 -0.2781 -0.0376
   52CHL1    C6 3783   0.891   6.137   7.108  0.2998 -0.4161 -0.4973
   52CHL1    H6 3784   0.871   6.197   7.018  1.7461 -2.1323 -2.0361
   52CHL1    C7 3785   0.837   6.189   7.241 -0.1432  0.2317 -0.4626
   52CHL1   H7A 3786   0.837   6.300   7.246 -2.4033  0.2685 -0.1532
   52CHL1   H7B 3787   0.731   6.159   7.256 -0.6387  2.7846  1.9874
   52CHL1    C8 3788   0.914   6.127   7.369  0.6156  1.0073  0.3570
   52CHL1    H8 3789   1.015   6.173   7.378  0.4619  1.0761  1.9022
   52CHL1   C14 3790   0.827   6.147   7.488  0.4809  0.1438 -0.1956
   52CHL1   H14 3791   0.737   6.086   7.465 -0.3181  1.5719 -0.9451
   52CHL1   C15 3792   0.782   6.286   7.522  0.1367  0.1522  0.1186
   52CHL1  H15A 3793   0.873   6.345   7.500 -0.3059  0.3566 -1.2506
   52CHL1  H15B 3794   0.702   6.321   7.453  1.9241 -0.4735 -2.4249
   52CHL1   C16 3795   0.729   6.272   7.668  0.7009 -0.8281  0.9805
   52CHL1  H16A 3796   0.756   6.362   7.728  1.5568 -0.9818  0.8486
   52CHL1  H16B 3797   0.620   6.288   7.666  1.0273  1.8673  0.8228
   52CHL1   C17 3798   0.763   6.123   7.712  0.6377 -0.4554 -0.0786
   52CHL1   H17 3799   0.680   6.054   7.686  0.8814 -1.2965  1.3423
   52CHL1   C13 3800   0.876   6.084   7.620  0.5798 -0.6017 -0.2186
   52CHL1   C18 3801   1.012   6.136   7.677 -0.7739 -0.4684  0.4548
   52CHL1  H18A 3802   1.045   6.071   7.761 -0.7051  0.6356  1.3208
   52CHL1  H18B 3803   1.089   6.140   7.598 -1.6649 -1.3052 -0.4875
   52CHL1  H18C 3804   0.997   6.243   7.705  1.0664  0.0037 -0.2119
   52CHL1   C12 3805   0.884   5.936   7.590 -0.2331  0.0546 -0.1310
   52CHL1  H12A 3806   0.927   5.891   7.682 -0.5596  1.4225  0.7166
   52CHL1  H12B 3807   0.780   5.904   7.569  0.1511  0.0818 -2.2255
   52CHL1   C11 3808   0.979   5.907   7.474  0.3662  0.1065 -0.0485
   52CHL1  H11A 3809   1.080   5.942   7.504  1.6325 -0.8731 -2.8211
   52CHL1  H11B 3810   0.958   5.798   7.471 -3.6087  0.5188  3.1045
   52CHL1    C9 3811   0.929   5.971   7.345  0.1971  0.2135 -0.9796
   52CHL1    H9 3812   0.827   5.934   7.323  0.5525 -1.7769  0.4999
   52CHL1   C10 3813   1.009   5.938   7.217 -0.6539 -0.2497  0.1927
   52CHL1   C19 3814   1.165   5.945   7.237 -0.1318 -0.3897  0.6280
   52CHL1  H19A 3815   1.206   5.888   7.323  0.1308  0.5870  1.1650
   52CHL1  H19B 3816   1.217   5.925   7.140 -3.3382  1.1883 -1.5929
   52CHL1  H19C 3817   1.191   6.048   7.270  1.1032 -0.9712  1.5856
   52CHL1    C1 3818   0.969   5.793   7.176  0.1362  0.1366  0.0130
   52CHL1   H1A 3819   1.017   5.718   7.241  0.8531 -1.6812 -2.4543
   52CHL1   H1B 3820   0.860   5.773   7.174  0.0946  0.3656 -1.0512
   52CHL1    C2 3821   1.025   5.748   7.036  0.3650  0.5698 -0.1633
   52CHL1   H2A 3822   0.985   5.647   7.011  1.2386 -1.0864  4.2035
   52CHL1   H2B 3823   1.136   5.749   7.041  0.3221  0.0127  1.3786
   52CHL1   C20 3824   0.779   6.118   7.867 -0.4604 -1.0314  0.8550
   52CHL1   H20 3825   0.871   6.173   7.896  1.4801 -3.9570  0.6112
   52CHL1   C21 3826   0.806   5.972   7.911  0.3334 -0.3095 -0.0142
   52CHL1  H21A 3827   0.888   5.926   7.852 -1.4221 -0.9457 -2.0775
   52CHL1  H21B 3828   0.713   5.913   7.897  0.2381 -0.0150 -0.6576
   52CHL1  H21C 3829   0.840   5.967   8.017  0.7899 -3.1085 -0.2048
   52CHL1   C22 3830   0.654   6.172   7.941  0.6937 -0.3612  0.1217
   52CHL1  H22A 3831   0.605   6.259   7.891 -0.5585 -1.0358  0.1259
   52CHL1  H22B 3832   0.573   6.096   7.933  0.0466  0.4506 -1.4757
   52CHL1   C23 3833   0.669   6.204   8.095 -0.1140  0.3063  0.1968
   52CHL1  H23A 3834   0.704   6.113   8.149  0.1058 -0.7263 -1.5865
   52CHL1  H23B 3835   0.747   6.280   8.114  0.3268  0.1921 -1.0125
   52CHL1   C24 3836   0.539   6.258   8.165 -0.1700 -0.3361 -0.1693
   52CHL1  H24A 3837   0.453   6.251   8.095 -1.2214  1.2149  0.8950
   52CHL1  H24B 3838   0.506   6.191   8.248 -3.3084 -1.7235 -2.3267
   52CHL1   C25 3839   0.541   6.403   8.222  0.5152  0.0848  0.0135
   52CHL1   H25 3840   0.581   6.473   8.145 -0.0659  0.0526 -0.3290
   52CHL1   C26 3841   0.396   6.431   8.253 -0.5679 -0.3426 -0.0393
   52CHL1  H26A 3842   0.384   6.537   8.285 -1.0451  0.0819 -1.5038
   52CHL1  H26B 3843   0.335   6.423   8.161 -2.6702 -1.8172  1.4102
   52CHL1  H26C 3844   0.355   6.361   8.328 -2.4784 -0.3069 -0.9973
   52CHL1   C27 3845   0.635   6.419   8.351  0.7259  0.0966  0.5425
   52CHL1  H27A 3846   0.737   6.389   8.320  0.4048 -0.1033 -0.3661
   52CHL1  H27B 3847   0.637   6.525   8.384 -2.2337 -0.7142  3.9713
   52CHL1  H27C 3848   0.606   6.363   8.442 -1.4560  0.1725 -0.0406
   53CHL1    C3 3849   2.859   0.232   6.961  0.2414  0.0342 -1.1985
   53CHL1    H3 3850   2.860   0.343   6.952 -2.4734  0.3878  1.2074
   53CHL1    O3 3851   2.837   0.162   6.838 -0.0405 -0.0016 -0.2084
   53CHL1   H3' 3852   2.919   0.171   6.789  0.0304 -2.9419 -0.7967
   53CHL1    C4 3853   3.000   0.196   7.032  0.5618  0.1037  0.2819
   53CHL1   H4A 3854   3.004   0.085   7.020 -4.9845 -0.3204 -0.4170
   53CHL1   H4B 3855   3.087   0.228   6.971  1.7272  1.1159  2.3790
   53CHL1    C5 3856   3.018   0.247   7.174  0.7662  0.4007 -0.1907
   53CHL1    C6 3857   3.120   0.321   7.216  0.2620 -0.0286 -0.1917
   53CHL1    H6 3858   3.201   0.350   7.147 -0.5796  1.6121 -0.5226
   53CHL1    C7 3859   3.144   0.373   7.356 -0.3917  0.5538 -0.4406
   53CHL1   H7A 3860   3.249   0.347   7.381 -0.4226  0.3758 -0.4911
   53CHL1   H7B 3861   3.136   0.484   7.361  2.3678  0.7873  0.2282
   53CHL1    C8 3862   3.059   0.297   7.461  0.0961 -0.3084  0.1003
   53CHL1    H8 3863   3.107   0.196   7.462  0.1954 -0.2884  2.6261
   53CHL1   C14 3864   3.065   0.355   7.599 -0.0181  0.0786 -0.8778
   53CHL1   H14 3865   3.023   0.458   7.590 -0.1441  0.0157 -1.0234
   53CHL1   C15 3866   3.202   0.375   7.664 -0.2985 -0.4111 -0.6788
   53CHL1  H15A 3867   3.268   0.287   7.649  2.3943  1.0253  1.6859
   53CHL1  H15B 3868   3.262   0.463   7.635  0.0311 -0.3026  0.2862
   53CHL1   C16 3869   3.169   0.387   7.813 -0.2282  0.2248 -0.0975
   53CHL1  H16A 3870   3.240   0.321   7.866 -1.1865 -1.7019 -1.1249
   53CHL1  H16B 3871   3.185   0.493   7.843 -2.2041  0.8421 -1.0395
   53CHL1   C17 3872   3.025   0.353   7.833  0.3780  0.5635 -0.3280
   53CHL1   H17 3873   2.969   0.448   7.841  2.4505  1.9389 -1.1657
   53CHL1   C13 3874   2.979   0.288   7.702  0.4223 -0.0720 -0.2092
   53CHL1   C18 3875   3.019   0.137   7.710  0.7717 -0.5797  0.3907
   53CHL1  H18A 3876   2.929   0.094   7.759  1.2474  1.5379  3.4189
   53CHL1  H18B 3877   3.029   0.084   7.613  1.7338 -0.4396  0.4039
   53CHL1  H18C 3878   3.115   0.122   7.765  0.1897 -1.2137  1.2535
   53CHL1   C12 3879   2.833   0.302   7.656  0.8617 -0.3653  0.6861
   53CHL1  H12A 3880   2.768   0.247   7.728 -1.9620  1.0491 -0.6183
   53CHL1  H12B 3881   2.792   0.405   7.659  0.0434 -0.6962  1.5442
   53CHL1   C11 3882   2.809   0.248   7.514 -0.2095  0.0972 -0.2331
   53CHL1  H11A 3883   2.807   0.140   7.538  1.2322  0.5826  2.5363
   53CHL1  H11B 3884   2.703   0.275   7.496  0.0633  2.0618  0.8864
   53CHL1    C9 3885   2.915   0.284   7.403 -0.8337 -0.2757 -0.1311
   53CHL1    H9 3886   2.884   0.390   7.390  0.8009  0.1834 -0.5447
   53CHL1   C10 3887   2.898   0.213   7.271 -0.3743  0.2172  0.1405
   53CHL1   C19 3888   2.888   0.059   7.296 -1.4206  0.6274  0.1062
   53CHL1  H19A 3889   2.902   0.003   7.201  0.5302  0.1116  0.6402
   53CHL1  H19B 3890   2.970   0.016   7.358 -1.5155 -1.3997 -1.1123
   53CHL1  H19C 3891   2.790   0.030   7.340  0.0209  0.5184  3.5955
   53CHL1    C1 3892   2.771   0.266   7.205  0.3503  0.3731  0.8097
   53CHL1   H1A 3893   2.686   0.246   7.274  0.4987 -3.4310  0.0815
   53CHL1   H1B 3894   2.768   0.377   7.193  1.4866  0.2044 -1.4108
   53CHL1    C2 3895   2.748   0.200   7.066  0.4942  0.5097 -0.0648
   53CHL1   H2A 3896   2.650   0.225   7.021  0.9011  0.2500 -1.1313
   53CHL1   H2B 3897   2.739   0.090   7.082 -0.7733  0.6965  0.5653
   53CHL1   C20 3898   3.003   0.295   7.976  0.5525  0.2648  0.3117
   53CHL1   H20 3899   3.077   0.212   7.979 -0.5231 -0.7838 -0.8052
   53CHL1   C21 3900   2.863   0.245   7.988  0.2637 -0.6233 -0.2051
   53CHL1  H21A 3901   2.832   0.227   8.093  1.8625  2.5985  0.9741
   53CHL1  H21B 3902   2.836   0.156   7.927 -0.8496 -0.4711  0.0592
   53CHL1  H21C 3903   2.804   0.332   7.954 -0.5908 -1.4518 -0.8993
   53CHL1   C22 3904   3.041   0.391   8.092 -0.3041 -0.2749  0.2478
   53CHL1  H22A 3905   3.142   0.435   8.076 -0.5227  0.5226  0.9843
   53CHL1  H22B 3906   2.959   0.465   8.080  0.0056  0.1191  0.5532
   53CHL1   C23 3907   3.025   0.330   8.230  0.7178 -0.4506 -0.6958
   53CHL1  H23A 3908   2.926   0.279   8.233  0.4609 -0.5720 -5.0985
   53CHL1  H23B 3909   3.097   0.246   8.237 -0.1116 -1.1798 -0.6999
   53CHL1   C24 3910   3.037   0.442   8.333 -0.6011 -0.7053  0.1339
   53CHL1  H24A 3911   3.125   0.508   8.318 -2.6340  1.8626 -1.1817
   53CHL1  H24B 3912   2.958   0.514   8.302  1.2071  1.1003 -0.5512
   53CHL1   C25 3913   3.041   0.400   8.481 -0.3792  0.6281  0.2669
   53CHL1   H25 3914   3.042   0.485   8.552  0.3377  0.7851  0.0773
   53CHL1   C26 3915   2.918   0.317   8.510 -0.7245 -0.3457  0.0220
   53CHL1  H26A 3916   2.913   0.228   8.443  2.7405 -1.2126  0.7036
   53CHL1  H26B 3917   2.925   0.277   8.614  0.4001  0.5355  0.3186
   53CHL1  H26C 3918   2.827   0.380   8.509 -0.4890  0.0099  0.2958
   53CHL1   C27 3919   3.162   0.317   8.512  0.9081  0.5915  0.0978
   53CHL1  H27A 3920   3.162   0.301   8.622 -1.7185  0.7484  0.1788
   53CHL1  H27B 3921   3.154   0.216   8.467 -0.5237  0.0402  1.5023
   53CHL1  H27C 3922   3.260   0.364   8.486 -0.3976  1.9842 -2.7347
   54CHL1    C3 3923   2.423   3.810   6.924 -0.1816  0.3659 -0.0949
   54CHL1    H3 3924   2.339   3.818   6.852 -1.5676  0.8114  1.4987
   54CHL1    O3 3925   2.533   3.752   6.856 -0.2276  0.1373 -0.0352
   54CHL1   H3' 3926   2.499   3.714   6.775  3.5028 -1.0225 -1.2697
   54CHL1    C4 3927   2.455   3.953   6.959 -0.1678 -0.0614 -0.3135
   54CHL1   H4A 3928   2.542   3.961   7.028  1.5511  2.9279 -2.5745
   54CHL1   H4B 3929   2.480   4.006   6.864  1.4316  1.0763  0.6888
   54CHL1    C5 3930   2.348   4.017   7.046 -0.8370  0.0663  0.1998
   54CHL1    C6 3931   2.295   4.134   7.019 -0.6481 -0.0001  0.1841
   54CHL1    H6 3932   2.318   4.190   6.926 -1.9265 -0.4055 -0.3995
   54CHL1    C7 3933   2.201   4.211   7.103 -0.5713  0.4722  0.2852
   54CHL1   H7A 3934   2.217   4.321   7.107  2.2989  0.1202  1.6378
   54CHL1   H7B 3935   2.101   4.180   7.067  0.1398  0.8728 -2.2406
   54CHL1    C8 3936   2.208   4.159   7.248 -0.5036  0.3860 -0.1243
   54CHL1    H8 3937   2.299   4.196   7.301  0.7277  0.8931 -2.4440
   54CHL1   C14 3938   2.075   4.212   7.324  0.1912  0.1422  0.3565
   54CHL1   H14 3939   1.988   4.169   7.269  0.6245  2.2113 -2.1393
   54CHL1   C15 3940   2.047   4.366   7.326 -0.3673  0.4327 -0.4223
   54CHL1  H15A 3941   2.142   4.419   7.347 -1.2703  2.1350 -0.5003
   54CHL1  H15B 3942   2.000   4.397   7.230  3.6577 -1.0227 -3.0990
   54CHL1   C16 3943   1.946   4.377   7.443 -0.0245  0.3074 -0.3436
   54CHL1  H16A 3944   1.971   4.458   7.516 -1.2666  0.3583  0.0433
   54CHL1  H16B 3945   1.840   4.403   7.422 -0.2392  0.5956  0.9741
   54CHL1   C17 3946   1.938   4.237   7.513 -0.1699  0.3350 -0.1582
   54CHL1   H17 3947   1.859   4.170   7.473  1.7396 -0.1000 -3.5547
   54CHL1   C13 3948   2.063   4.167   7.470  0.3959 -0.1255  0.3266
   54CHL1   C18 3949   2.177   4.215   7.565 -0.6281  0.4578  0.7223
   54CHL1  H18A 3950   2.276   4.198   7.517  0.4762 -1.1121  3.3197
   54CHL1  H18B 3951   2.180   4.325   7.576  0.9263  0.5271 -0.0802
   54CHL1  H18C 3952   2.172   4.155   7.658  0.9785  1.6443  1.6135
   54CHL1   C12 3953   2.061   4.012   7.464  0.0074  0.6784  0.5106
   54CHL1  H12A 3954   2.052   3.956   7.560 -2.4065  0.9070  0.4847
   54CHL1  H12B 3955   1.974   3.968   7.410 -0.0747 -0.5172  1.5567
   54CHL1   C11 3956   2.191   3.950   7.395 -0.5671 -0.3700 -0.1207
   54CHL1  H11A 3957   2.275   3.975   7.462 -1.1771  0.4132  0.3632
   54CHL1  H11B 3958   2.181   3.839   7.393  1.8374 -0.6543  0.5495
   54CHL1    C9 3959   2.207   4.011   7.249 -0.0551 -0.1490  0.0540
   54CHL1    H9 3960   2.113   3.982   7.197  0.3067  1.0830 -1.3535
   54CHL1   C10 3961   2.317   3.940   7.170  0.4242  0.1257  1.0148
   54CHL1   C19 3962   2.433   3.919   7.267 -0.0853  0.5154  0.0944
   54CHL1  H19A 3963   2.470   4.014   7.311  1.3485  0.1510 -0.2833
   54CHL1  H19B 3964   2.427   3.844   7.349  2.1904  0.8632  0.6387
   54CHL1  H19C 3965   2.523   3.872   7.221  3.0497  4.0944  2.0003
   54CHL1    C1 3966   2.269   3.797   7.130  0.4149  0.3618 -0.0508
   54CHL1   H1A 3967   2.248   3.738   7.221 -2.2248 -0.3056 -1.0044
   54CHL1   H1B 3968   2.180   3.813   7.066  2.1568  0.6063 -2.5994
   54CHL1    C2 3969   2.376   3.725   7.040 -0.0970  0.2327  0.2700
   54CHL1   H2A 3970   2.329   3.633   6.999 -1.1255  0.9102 -0.1231
   54CHL1   H2B 3971   2.449   3.686   7.114  0.3175  2.7691  1.3104
   54CHL1   C20 3972   1.897   4.237   7.661 -0.2954  0.3675 -0.3790
   54CHL1   H20 3973   1.976   4.286   7.721 -0.6345  1.7923 -1.0672
   54CHL1   C21 3974   1.885   4.094   7.722  0.5441  0.0173 -0.6643
   54CHL1  H21A 3975   1.842   4.025   7.645  3.4676 -0.4135 -2.0620
   54CHL1  H21B 3976   1.833   4.105   7.819  1.8069  1.5127 -0.1114
   54CHL1  H21C 3977   1.985   4.055   7.748  0.6441  1.0207  0.5052
   54CHL1   C22 3978   1.759   4.310   7.691 -0.3424 -0.1003  0.0086
   54CHL1  H22A 3979   1.754   4.395   7.619 -1.4417  0.7525  1.0519
   54CHL1  H22B 3980   1.676   4.242   7.663 -0.9277 -0.0845  1.6090
   54CHL1   C23 3981   1.741   4.372   7.825 -0.1429 -0.4514  0.6915
   54CHL1  H23A 3982   1.717   4.291   7.897 -2.0466 -0.7117 -0.1592
   54CHL1  H23B 3983   1.838   4.419   7.848  0.7411 -1.6263 -0.4654
   54CHL1   C24 3984   1.627   4.478   7.813  0.9171 -0.6936 -0.3512
   54CHL1  H24A 3985   1.655   4.554   7.738  1.5716 -0.7855 -0.2094
   54CHL1  H24B 3986   1.539   4.420   7.778 -0.7843  1.2712  0.4468
   54CHL1   C25 3987   1.585   4.531   7.946 -0.1665  0.2352 -0.6594
   54CHL1   H25 3988   1.537   4.451   8.007 -3.7250 -0.4399 -3.8632
   54CHL1   C26 3989   1.700   4.592   8.021 -0.3100  0.2165  0.0903
   54CHL1  H26A 3990   1.776   4.645   7.960  0.7242  0.0182  1.1701
   54CHL1  H26B 3991   1.673   4.652   8.111 -1.6305 -1.3549  0.8045
   54CHL1  H26C 3992   1.753   4.505   8.065 -0.9265  0.2743  0.9929
   54CHL1   C27 3993   1.470   4.638   7.936 -0.4446  0.3249  0.6938
   54CHL1  H27A 3994   1.418   4.638   8.034 -1.5116  1.4190  0.1574
   54CHL1  H27B 3995   1.515   4.738   7.920  2.7166 -0.8945  1.3102
   54CHL1  H27C 3996   1.391   4.605   7.864  0.2290  0.4888 -0.1282
   55CHL1    C3 3997   3.384   4.323   7.106 -0.0941  0.4903  0.0775
   55CHL1    H3 3998   3.293   4.370   7.148 -0.0155 -0.8378  1.8929
   55CHL1    O3 3999   3.363   4.296   6.961 -0.0218  0.1245  0.9036
   55CHL1   H3' 4000   3.451   4.278   6.926 -0.5415 -0.5342 -0.0993
   55CHL1    C4 4001   3.518   4.401   7.128  0.2284  0.3290 -0.0835
   55CHL1   H4A 4002   3.586   4.351   7.056 -1.9438  0.0506 -2.0917
   55CHL1   H4B 4003   3.497   4.501   7.083  1.2552  0.0003 -1.3353
   55CHL1    C5 4004   3.570   4.406   7.277  0.1684  0.6257  0.1474
   55CHL1    C6 4005   3.588   4.529   7.339  0.1433 -0.2778  0.4012
   55CHL1    H6 4006   3.575   4.618   7.275 -2.0848 -1.2876 -0.6745
   55CHL1    C7 4007   3.620   4.551   7.484 -0.2735  0.5482  0.0709
   55CHL1   H7A 4008   3.698   4.629   7.486 -1.6622  1.9817  0.0488
   55CHL1   H7B 4009   3.534   4.583   7.546 -1.0526 -0.4259 -0.4709
   55CHL1    C8 4010   3.663   4.411   7.547 -0.6873  0.0958 -0.0386
   55CHL1    H8 4011   3.761   4.380   7.504 -0.9569 -3.0723  1.4164
   55CHL1   C14 4012   3.674   4.429   7.695 -0.1283  0.3384  0.4258
   55CHL1   H14 4013   3.572   4.463   7.725  0.1474  2.2053 -0.6115
   55CHL1   C15 4014   3.758   4.545   7.750 -0.2007  0.0986 -0.7483
   55CHL1  H15A 4015   3.862   4.554   7.713  0.0711  0.3237  0.0505
   55CHL1  H15B 4016   3.719   4.649   7.755 -0.7021 -0.1248  0.2826
   55CHL1   C16 4017   3.764   4.504   7.898  0.2705  0.0879  0.4662
   55CHL1  H16A 4018   3.865   4.511   7.942  0.6590 -2.1465  0.0390
   55CHL1  H16B 4019   3.691   4.564   7.957 -0.4239  1.0143 -1.2410
   55CHL1   C17 4020   3.708   4.362   7.918  0.2645  0.2875 -0.4639
   55CHL1   H17 4021   3.604   4.381   7.952  1.3032  1.2934  2.4550
   55CHL1   C13 4022   3.707   4.302   7.772  0.1008 -0.0163  0.0727
   55CHL1   C18 4023   3.843   4.247   7.734  0.7544  0.1720  0.3670
   55CHL1  H18A 4024   3.915   4.325   7.766  0.9516 -0.0080  0.3638
   55CHL1  H18B 4025   3.854   4.145   7.777 -0.9351  0.0658  0.6141
   55CHL1  H18C 4026   3.846   4.241   7.623 -0.5494  1.5395  0.2242
   55CHL1   C12 4027   3.598   4.196   7.749  0.1267 -0.8178  0.4174
   55CHL1  H12A 4028   3.621   4.096   7.793 -0.5497 -0.5310  1.4732
   55CHL1  H12B 4029   3.495   4.233   7.770  0.5654  2.0162 -1.8711
   55CHL1   C11 4030   3.593   4.159   7.593  0.3413  0.1803  0.6115
   55CHL1  H11A 4031   3.683   4.098   7.574 -1.2528 -1.9553 -0.5370
   55CHL1  H11B 4032   3.507   4.092   7.572  1.4535 -0.7458 -1.2536
   55CHL1    C9 4033   3.571   4.291   7.513  0.0425  0.4738  0.3998
   55CHL1    H9 4034   3.471   4.326   7.548 -0.0627  0.7864 -0.1857
   55CHL1   C10 4035   3.563   4.266   7.360  0.0192  0.6385  0.1257
   55CHL1   C19 4036   3.699   4.191   7.321  0.3210 -0.2039  0.4460
   55CHL1  H19A 4037   3.686   4.084   7.348 -0.4662  0.1439  1.5007
   55CHL1  H19B 4038   3.718   4.184   7.211  3.3746  0.7495  0.8142
   55CHL1  H19C 4039   3.790   4.234   7.368 -1.0822  0.4333  2.7053
   55CHL1    C1 4040   3.433   4.185   7.327  0.8856 -0.1319 -0.1392
   55CHL1   H1A 4041   3.413   4.082   7.364 -1.6746  0.7986  1.3279
   55CHL1   H1B 4042   3.351   4.239   7.379 -0.5021 -0.6455 -1.6971
   55CHL1    C2 4043   3.402   4.186   7.171 -0.2991 -0.8517 -0.1978
   55CHL1   H2A 4044   3.317   4.119   7.145 -2.3046  1.9586 -1.3500
   55CHL1   H2B 4045   3.487   4.133   7.124 -1.4134 -0.0862 -3.2619
   55CHL1   C20 4046   3.781   4.285   8.029 -0.4359  0.4895  0.3659
   55CHL1   H20 4047   3.888   4.289   7.998 -0.9606  1.3597 -1.4479
   55CHL1   C21 4048   3.730   4.141   8.047  0.2317 -0.5533  0.3156
   55CHL1  H21A 4049   3.790   4.089   8.125  0.9763 -0.2818 -0.0735
   55CHL1  H21B 4050   3.747   4.069   7.965  0.4614 -1.4965  1.1723
   55CHL1  H21C 4051   3.620   4.145   8.067 -0.3824 -1.7468 -2.4164
   55CHL1   C22 4052   3.760   4.359   8.159  0.0691 -0.1409  0.1411
   55CHL1  H22A 4053   3.760   4.469   8.145 -1.4547  0.0954  1.6667
   55CHL1  H22B 4054   3.657   4.338   8.194  0.0592 -0.7367 -0.2296
   55CHL1   C23 4055   3.860   4.332   8.271  0.4456 -0.2190  0.6301
   55CHL1  H23A 4056   3.820   4.389   8.358  0.3604 -1.1303  1.1983
   55CHL1  H23B 4057   3.853   4.226   8.302  1.0168  0.4469  3.2787
   55CHL1   C24 4058   4.003   4.359   8.231 -0.6106 -0.2654  0.0109
   55CHL1  H24A 4059   4.052   4.266   8.194  0.6357 -0.9386  3.0552
   55CHL1  H24B 4060   4.004   4.441   8.155 -0.5742  0.5294  0.8560
   55CHL1   C25 4061   4.086   4.402   8.354  0.2107 -0.3710 -0.1809
   55CHL1   H25 4062   4.021   4.450   8.430 -1.3427 -2.3933 -0.1353
   55CHL1   C26 4063   4.145   4.277   8.431 -0.4177 -0.9216  0.3710
   55CHL1  H26A 4064   4.065   4.214   8.476 -0.4650  0.5930  2.5886
   55CHL1  H26B 4065   4.209   4.213   8.368  0.3501  1.6633 -1.6826
   55CHL1  H26C 4066   4.216   4.308   8.510 -1.7204 -1.0311  1.6299
   55CHL1   C27 4067   4.199   4.493   8.315 -0.4469 -0.0444  0.0159
   55CHL1  H27A 4068   4.159   4.586   8.268  1.6094  0.5310 -0.7178
   55CHL1  H27B 4069   4.247   4.527   8.409  1.0307 -2.5722  0.2843
   55CHL1  H27C 4070   4.277   4.441   8.254 -1.5467  0.1569 -1.6457
   56CHL1    C3 4071   2.451   1.594   6.903 -0.5185 -0.1391 -0.8420
   56CHL1    H3 4072   2.535   1.522   6.907  0.7385  0.8434 -4.7501
   56CHL1    O3 4073   2.430   1.606   6.763 -0.0914 -0.2736  0.0989
   56CHL1   H3' 4074   2.515   1.601   6.718 -0.8558 -0.8400 -1.3286
   56CHL1    C4 4075   2.324   1.548   6.985  0.1681  0.0586  1.0194
   56CHL1   H4A 4076   2.240   1.620   6.972 -0.2186 -0.7152 -1.2604
   56CHL1   H4B 4077   2.285   1.459   6.931  0.1897  0.0974  0.9401
   56CHL1    C5 4078   2.366   1.532   7.127  0.2184 -0.3290 -0.1065
   56CHL1    C6 4079   2.373   1.412   7.195  0.4487  0.1307  0.2837
   56CHL1    H6 4080   2.343   1.323   7.137  2.8219 -0.4220 -0.1760
   56CHL1    C7 4081   2.406   1.397   7.342  0.3058  0.8799  0.2917
   56CHL1   H7A 4082   2.336   1.336   7.402 -1.1767  2.8101  0.6059
   56CHL1   H7B 4083   2.505   1.346   7.346 -0.7841 -1.5754 -1.3845
   56CHL1    C8 4084   2.414   1.535   7.412  0.2184  0.3093 -0.4999
   56CHL1    H8 4085   2.312   1.560   7.447  1.2326  1.4053  1.8355
   56CHL1   C14 4086   2.488   1.525   7.546 -0.2062  0.0095  0.1759
   56CHL1   H14 4087   2.590   1.492   7.518  0.2505 -0.9239  2.7010
   56CHL1   C15 4088   2.429   1.424   7.641 -0.2550 -0.0296  0.1479
   56CHL1  H15A 4089   2.318   1.428   7.652 -0.4269 -0.6793 -1.1494
   56CHL1  H15B 4090   2.461   1.323   7.610  1.8486  1.3013 -2.3847
   56CHL1   C16 4091   2.475   1.461   7.781 -0.5285  0.0868  0.0133
   56CHL1  H16A 4092   2.390   1.482   7.849 -0.2403 -0.2754  0.4902
   56CHL1  H16B 4093   2.532   1.382   7.835 -0.2552 -0.3457 -0.8980
   56CHL1   C17 4094   2.563   1.594   7.755 -0.1012  0.2155 -0.2141
   56CHL1   H17 4095   2.666   1.558   7.732  0.1849  0.8860  0.0080
   56CHL1   C13 4096   2.501   1.658   7.621  0.3262  0.1226 -0.5807
   56CHL1   C18 4097   2.359   1.719   7.662  0.6927 -0.0852 -0.5288
   56CHL1  H18A 4098   2.299   1.758   7.577 -1.3763 -2.1024 -0.0867
   56CHL1  H18B 4099   2.294   1.657   7.727 -2.1718  2.3441 -0.8744
   56CHL1  H18C 4100   2.384   1.806   7.725 -0.3985  1.6406 -2.3601
   56CHL1   C12 4101   2.583   1.753   7.534 -0.7959  0.2164 -0.5690
   56CHL1  H12A 4102   2.589   1.852   7.582  1.9431  0.1537 -0.6168
   56CHL1  H12B 4103   2.686   1.712   7.526 -1.2376 -1.2904  0.9433
   56CHL1   C11 4104   2.521   1.772   7.400  0.1793  0.2618  0.1128
   56CHL1  H11A 4105   2.423   1.820   7.419 -0.9956 -2.5098  1.5776
   56CHL1  H11B 4106   2.592   1.829   7.336  3.5244 -0.5593  2.7722
   56CHL1    C9 4107   2.486   1.642   7.328 -0.1012 -0.1137 -0.0238
   56CHL1    H9 4108   2.588   1.603   7.307  1.9592  4.5294  0.1213
   56CHL1   C10 4109   2.415   1.663   7.184 -0.4832 -0.5672  0.0113
   56CHL1   C19 4110   2.296   1.753   7.204 -0.2556  1.3710 -0.2373
   56CHL1  H19A 4111   2.230   1.751   7.115 -2.9201  0.2848  1.6311
   56CHL1  H19B 4112   2.231   1.719   7.287  0.2335  2.5683  0.6769
   56CHL1  H19C 4113   2.328   1.858   7.222  0.1335  1.1089  0.6613
   56CHL1    C1 4114   2.521   1.739   7.094  0.3211 -0.0655 -0.1749
   56CHL1   H1A 4115   2.525   1.841   7.139 -1.9937  1.1974 -2.5176
   56CHL1   H1B 4116   2.616   1.683   7.108  0.0365 -0.8157 -1.1892
   56CHL1    C2 4117   2.488   1.737   6.950  0.2376  0.2074  0.6995
   56CHL1   H2A 4118   2.576   1.778   6.896  1.7616 -1.1771  2.0143
   56CHL1   H2B 4119   2.397   1.794   6.924  0.4759 -0.3599 -1.6446
   56CHL1   C20 4120   2.576   1.679   7.881 -0.0711 -0.2457 -0.1865
   56CHL1   H20 4121   2.476   1.726   7.895 -1.0297 -1.4916 -2.3463
   56CHL1   C21 4122   2.686   1.783   7.863  0.0543 -0.4382 -0.3167
   56CHL1  H21A 4123   2.653   1.859   7.789  0.5518 -0.6204 -0.7311
   56CHL1  H21B 4124   2.783   1.733   7.841  0.4724 -0.2040  0.9075
   56CHL1  H21C 4125   2.707   1.842   7.955  2.1221 -0.0802 -0.9642
   56CHL1   C22 4126   2.624   1.592   8.006  0.8305  0.3279 -0.6877
   56CHL1  H22A 4127   2.539   1.522   8.020  0.8714  0.8675  3.3009
   56CHL1  H22B 4128   2.705   1.522   7.978 -0.0293 -0.8966 -0.1957
   56CHL1   C23 4129   2.656   1.662   8.134  0.0095 -0.0492 -0.2192
   56CHL1  H23A 4130   2.758   1.704   8.121  0.7081 -1.5707  0.1813
   56CHL1  H23B 4131   2.598   1.755   8.154  1.3284  0.3987  1.7731
   56CHL1   C24 4132   2.661   1.581   8.269  0.2611 -0.2013 -0.0475
   56CHL1  H24A 4133   2.555   1.559   8.292 -0.4367  2.8529  0.0135
   56CHL1  H24B 4134   2.714   1.483   8.266 -1.1660 -0.9935 -0.5267
   56CHL1   C25 4135   2.712   1.671   8.390 -0.2293 -0.5682 -0.6991
   56CHL1   H25 4136   2.719   1.597   8.473 -1.7271  0.9570  0.8698
   56CHL1   C26 4137   2.856   1.740   8.368 -0.0664  0.1125  0.3580
   56CHL1  H26A 4138   2.892   1.792   8.459  1.3318 -1.3016  0.6499
   56CHL1  H26B 4139   2.863   1.797   8.273 -1.9375 -0.6200 -0.2622
   56CHL1  H26C 4140   2.918   1.649   8.352  0.1801  0.6596 -2.2771
   56CHL1   C27 4141   2.607   1.773   8.429 -0.4667 -0.1368 -0.1995
   56CHL1  H27A 4142   2.515   1.721   8.463  0.5292 -0.9190  1.4395
   56CHL1  H27B 4143   2.650   1.830   8.514 -1.5719  0.3834  0.0266
   56CHL1  H27C 4144   2.577   1.853   8.358  1.2595  0.7684  0.0269
   57SAPC     N 4145   0.983   5.769  10.814  0.1060 -0.3277  0.1008
   57SAPC   C12 4146   1.097   5.701  10.888  0.4456  0.3274  0.4990
   57SAPC  H12A 4147   1.109   5.600  10.851  2.0892  0.6021  0.1775
   57SAPC  H12B 4148   1.059   5.689  10.989 -1.0312 -0.6574 -0.1383
   57SAPC   C13 4149   1.035   5.821  10.690  0.5745  0.2642  0.5363
   57SAPC  H13A 4150   1.119   5.885  10.709  0.7498 -0.7470  3.7967
   57SAPC  H13B 4151   1.068   5.740  10.628 -0.8153  0.9376 -1.1760
   57SAPC  H13C 4152   0.959   5.877  10.637  0.7511  0.6132  0.6507
   57SAPC   C14 4153   0.870   5.669  10.785  0.2053 -0.5339 -0.2296
   57SAPC  H14A 4154   0.792   5.732  10.744  0.6494  0.2119  0.0463
   57SAPC  H14B 4155   0.892   5.597  10.707  2.0712 -0.8182  0.5060
   57SAPC  H14C 4156   0.838   5.631  10.881  1.8488  1.3059  1.1257
   57SAPC   C15 4157   0.915   5.871  10.890  0.2321 -0.7221 -0.2334
   57SAPC  H15A 4158   0.976   5.959  10.904 -0.8414 -0.0221  0.2107
   57SAPC  H15B 4159   0.830   5.907  10.834  0.1883 -1.1827 -0.4677
   57SAPC  H15C 4160   0.876   5.849  10.989 -0.6608  2.2517  0.1547
   57SAPC   C11 4161   1.241   5.764  10.903 -0.5532  0.6511 -0.0533
   57SAPC  H11A 4162   1.292   5.696  10.975 -1.0304  0.5421  0.1847
   57SAPC  H11B 4163   1.216   5.866  10.937 -0.9206 -0.0154  1.7935
   57SAPC     P 4164   1.378   5.651  10.709  0.1101  0.1701 -0.2901
   57SAPC   O13 4165   1.518   5.634  10.756  0.3959 -0.0282  0.1175
   57SAPC   O14 4166   1.290   5.531  10.716  0.1070 -0.0969 -0.2629
   57SAPC   O12 4167   1.310   5.771  10.775 -0.3384  0.2124 -0.1441
   57SAPC   O11 4168   1.381   5.691  10.550 -0.3674  0.1817 -0.9013
   57SAPC    C1 4169   1.307   5.785  10.476 -0.0719 -0.2619  0.1109
   57SAPC    HA 4170   1.262   5.859  10.545 -0.2720  0.1731 -0.4740
   57SAPC    HB 4171   1.378   5.831  10.405 -0.7155 -0.9584 -1.0239
   57SAPC    C2 4172   1.190   5.711  10.397  0.0390 -0.2394  0.1662
   57SAPC    HS 4173   1.121   5.661  10.468 -0.0443 -0.6938 -0.2346
   57SAPC   O21 4174   1.250   5.611  10.312  0.7946 -0.2402 -0.5342
   57SAPC   C21 4175   1.189   5.499  10.284  0.2038  0.1857  0.1850
   57SAPC   O22 4176   1.096   5.448  10.341 -0.0917 -0.0351 -0.1876
   57SAPC   C22 4177   1.257   5.433  10.161  0.3955 -0.1779  0.7355
   57SAPC   H2R 4178   1.340   5.494  10.118 -0.4629  0.6435  0.1977
   57SAPC   H2S 4179   1.301   5.335  10.187  0.7014 -0.5794 -1.1242
   57SAPC    C3 4180   1.089   5.805  10.322 -0.4931 -0.5922  0.1045
   57SAPC    HX 4181   1.148   5.867  10.251  0.9842  2.3408  3.5678
   57SAPC    HY 4182   1.058   5.878  10.400  1.4533 -0.6645  1.0095
   57SAPC   O31 4183   0.982   5.742  10.254 -0.1364 -0.1739 -0.7724
   57SAPC   C31 4184   0.874   5.719  10.327 -0.1147 -0.0052  0.2179
   57SAPC   O32 4185   0.860   5.740  10.448 -0.2036  0.4760  0.6464
   57SAPC   C32 4186   0.761   5.669  10.239  0.1057  0.3519  1.1159
   57SAPC   H2X 4187   0.794   5.666  10.133 -0.4817  4.4546  0.6883
   57SAPC   H2Y 4188   0.686   5.748  10.222  1.2042  1.0130 -0.9171
   57SAPC   C23 4189   1.159   5.407  10.044 -0.3010  0.0170  0.2247
   57SAPC   H3R 4190   1.068   5.354  10.077 -1.4473 -1.7401 -4.8409
   57SAPC   H3S 4191   1.214   5.344   9.970  0.2038  0.5908  0.0951
   57SAPC   C24 4192   1.118   5.552   9.986  0.2013  0.7753 -0.1637
   57SAPC   H4R 4193   1.062   5.597  10.072 -1.3741 -0.2620 -0.6025
   57SAPC   H4S 4194   1.040   5.536   9.909 -0.5895  0.0345  0.7588
   57SAPC   C25 4195   1.219   5.644   9.930  0.0087 -0.2769  0.2193
   57SAPC   H5R 4196   1.287   5.696   9.999  2.4455 -1.2153 -1.3047
   57SAPC   C26 4197   1.237   5.664   9.796  1.0341  0.4637  0.1967
   57SAPC   H6R 4198   1.308   5.739   9.759  2.2953  1.3868  4.0822
   57SAPC   C27 4199   1.163   5.589   9.684 -0.6200 -0.4890 -0.1451
   57SAPC   H7R 4200   1.085   5.658   9.647 -1.2296 -0.6451  0.8302
   57SAPC   H7S 4201   1.124   5.490   9.715  2.3689 -2.1430 -1.2556
   57SAPC   C28 4202   1.278   5.559   9.584  0.1974 -0.4975 -0.8730
   57SAPC   H8R 4203   1.369   5.518   9.630  1.3612  0.0531 -2.5673
   57SAPC   C29 4204   1.274   5.558   9.450  0.5543 -0.2060 -1.0563
   57SAPC   H9R 4205   1.361   5.525   9.391  0.3331 -1.6434 -0.6095
   57SAPC  C210 4206   1.154   5.581   9.364  0.3772  0.4411  0.4655
   57SAPC  H10R 4207   1.184   5.654   9.286  1.9686  1.2011  1.7372
   57SAPC  H10S 4208   1.068   5.636   9.408  0.0528  0.7634 -0.5344
   57SAPC  C211 4209   1.110   5.448   9.298  0.5731  0.4894 -0.3972
   57SAPC  H11R 4210   1.017   5.404   9.338  1.9799 -2.4768 -0.0751
   57SAPC  C212 4211   1.159   5.385   9.184 -0.0287  0.4787 -0.2315
   57SAPC  H12R 4212   1.116   5.289   9.152  0.0194  0.0182  1.0236
   57SAPC  C213 4213   1.273   5.420   9.083  0.4964 -0.0069 -0.1940
   57SAPC  H13R 4214   1.337   5.330   9.066  1.0048  0.0658  1.1826
   57SAPC  H13S 4215   1.331   5.505   9.126 -2.8998  1.3229  2.1828
   57SAPC  C214 4216   1.201   5.458   8.958 -0.0856 -0.1784  0.5916
   57SAPC  H14R 4217   1.182   5.563   8.932 -1.0088 -0.5857 -0.4473
   57SAPC  C215 4218   1.154   5.378   8.858  0.6859  0.0375 -1.2244
   57SAPC  H15R 4219   1.113   5.425   8.768 -1.8925  1.4260  0.5830
   57SAPC  C216 4220   1.182   5.226   8.849 -0.0701 -0.2424  0.6088
   57SAPC  H16R 4221   1.094   5.171   8.808 -1.2110  2.4800 -0.8851
   57SAPC  H16S 4222   1.192   5.185   8.951 -0.1471  0.1368  0.7724
   57SAPC  C217 4223   1.300   5.198   8.748  0.1432 -0.5284 -0.2839
   57SAPC  H17R 4224   1.264   5.235   8.650  0.5333 -0.5098 -0.4206
   57SAPC  H17S 4225   1.309   5.091   8.720 -0.1374 -0.4129 -0.8231
   57SAPC  C218 4226   1.432   5.237   8.795 -0.2341  0.1905  0.2178
   57SAPC  H18R 4227   1.462   5.158   8.867 -2.1923 -0.1728  0.6833
   57SAPC  H18S 4228   1.411   5.330   8.852 -1.0506  1.2187 -1.6594
   57SAPC  C219 4229   1.540   5.237   8.681  0.6406 -0.4143 -0.0011
   57SAPC  H19R 4230   1.572   5.336   8.643 -0.0154 -0.2282 -0.0746
   57SAPC  H19S 4231   1.478   5.207   8.594 -1.4348  1.3485  0.7966
   57SAPC  C220 4232   1.658   5.140   8.691  0.6044  0.7954  0.3655
   57SAPC  H20R 4233   1.629   5.053   8.754 -1.6446 -0.2266 -1.8733
   57SAPC  H20S 4234   1.754   5.182   8.728  1.3860  0.1866 -0.9275
   57SAPC  H20T 4235   1.685   5.114   8.587 -1.7779 -1.1496  0.1372
   57SAPC   C33 4236   0.710   5.527  10.272 -0.3282  1.0883  0.2388
   57SAPC   H3X 4237   0.600   5.524  10.257 -0.5374  0.7552  1.6209
   57SAPC   H3Y 4238   0.732   5.495  10.377  0.6006 -1.8626 -0.7528
   57SAPC   C34 4239   0.766   5.418  10.176  0.0344 -0.2952  0.1052
   57SAPC   H4X 4240   0.715   5.320  10.190  1.6223 -1.0225  1.0937
   57SAPC   H4Y 4241   0.875   5.404  10.192  0.1054  0.4927  0.3732
   57SAPC   C35 4242   0.726   5.447  10.026 -0.4068 -0.4313  0.1753
   57SAPC   H5X 4243   0.772   5.538   9.982 -0.5249 -1.2711 -1.8287
   57SAPC   H5Y 4244   0.616   5.458  10.012 -0.1404  1.2878 -0.8253
   57SAPC   C36 4245   0.748   5.332   9.919  0.1897 -0.2012  0.2845
   57SAPC   H6X 4246   0.691   5.239   9.942  1.3341 -1.5553 -1.9916
   57SAPC   H6Y 4247   0.856   5.306   9.911  0.1746 -0.1195 -0.2530
   57SAPC   C37 4248   0.701   5.377   9.775 -0.2989 -0.0012  0.1941
   57SAPC   H7X 4249   0.628   5.460   9.784 -1.3454 -1.0701  2.1116
   57SAPC   H7Y 4250   0.649   5.288   9.734  1.0810 -0.4484 -0.6647
   57SAPC   C38 4251   0.825   5.406   9.693 -0.4611  0.3261 -0.2820
   57SAPC   H8X 4252   0.914   5.344   9.719 -0.7336  0.6493  1.6311
   57SAPC   H8Y 4253   0.857   5.506   9.731 -1.4839  0.9806 -1.0777
   57SAPC   C39 4254   0.799   5.423   9.546 -0.5258 -0.6664  0.1802
   57SAPC   H9X 4255   0.894   5.457   9.500 -0.6856 -2.1889 -1.3477
   57SAPC   H9Y 4256   0.727   5.501   9.513 -0.9731 -0.4104  1.6630
   57SAPC  C310 4257   0.762   5.302   9.473  0.1971  0.9248  0.4015
   57SAPC  H10X 4258   0.682   5.246   9.524  2.0642 -1.2616  1.1028
   57SAPC  H10Y 4259   0.845   5.228   9.483 -0.1998  0.1316 -1.6103
   57SAPC  C311 4260   0.729   5.335   9.325 -0.1684  0.2734  0.2777
   57SAPC  H11X 4261   0.806   5.406   9.287  1.8310 -1.6384  0.5157
   57SAPC  H11Y 4262   0.626   5.374   9.315  0.3323  1.4029 -0.7314
   57SAPC  C312 4263   0.745   5.205   9.242 -0.6056 -0.8362 -0.3098
   57SAPC  H12X 4264   0.683   5.122   9.281 -1.8545 -0.2141 -0.9260
   57SAPC  H12Y 4265   0.852   5.182   9.262 -0.4587  1.3009  1.9175
   57SAPC  C313 4266   0.738   5.236   9.091 -0.0882  0.0574 -0.1442
   57SAPC  H13X 4267   0.747   5.344   9.069 -0.9142 -0.5410 -4.2658
   57SAPC  H13Y 4268   0.633   5.207   9.070 -0.5343 -1.4909  3.3818
   57SAPC  C314 4269   0.845   5.158   9.011  0.2401 -0.7368 -0.7894
   57SAPC  H14X 4270   0.943   5.195   9.047  0.3842 -1.6578 -0.1920
   57SAPC  H14Y 4271   0.839   5.179   8.902 -3.1943 -0.5552 -0.6570
   57SAPC  C315 4272   0.832   5.000   9.012  0.1511  0.0387 -1.0119
   57SAPC  H15X 4273   0.830   4.956   9.114  0.7731 -0.9220 -1.3943
   57SAPC  H15Y 4274   0.929   4.961   8.974  0.2551  1.6889 -2.5971
   57SAPC  C316 4275   0.716   4.943   8.931  0.1363 -0.1865 -0.1947
   57SAPC  H16X 4276   0.713   4.995   8.833  3.3171  3.5351  1.4541
   57SAPC  H16Y 4277   0.618   4.955   8.983 -0.4992 -1.0656 -1.1346
   57SAPC  C317 4278   0.749   4.795   8.901  0.6130  0.0616  0.5106
   57SAPC  H17X 4279   0.772   4.741   8.995  0.6533  0.8982  0.9967
   57SAPC  H17Y 4280   0.837   4.797   8.833  0.0211  4.2013 -0.4412
   57SAPC  C318 4281   0.634   4.730   8.825  0.5956  0.5519  0.1771
   57SAPC  H18X 4282   0.547   4.700   8.888  0.4523 -0.5676 -0.5277
   57SAPC  H18Y 4283   0.671   4.638   8.775 -0.6054  0.1016  0.0841
   57SAPC  H18Z 4284   0.587   4.794   8.747  0.2955  1.1748  0.8515
   58SAPC     N 4285   4.412   4.442  10.883  0.0231 -0.4289 -0.5009
   58SAPC   C12 4286   4.532   4.372  10.807 -0.6425 -0.3009  0.0744
   58SAPC  H12A 4287   4.578   4.302  10.875  0.1029 -0.4229 -0.5463
   58SAPC  H12B 4288   4.615   4.441  10.798 -2.5448  2.2280  0.7812
   58SAPC   C13 4289   4.456   4.496  11.014 -0.1637  0.2537  0.3960
   58SAPC  H13A 4290   4.493   4.417  11.078  0.8844 -0.8448 -1.4689
   58SAPC  H13B 4291   4.546   4.553  10.998  0.7947 -1.4065 -0.3614
   58SAPC  H13C 4292   4.385   4.565  11.056  0.7548  0.8427  1.0140
   58SAPC   C14 4293   4.364   4.560  10.798  0.3229  0.1176 -0.0699
   58SAPC  H14A 4294   4.453   4.619  10.789  0.7498 -0.4214  0.5367
   58SAPC  H14B 4295   4.324   4.529  10.703  1.8837 -0.9437 -0.4097
   58SAPC  H14C 4296   4.290   4.613  10.857  0.0814 -0.5779  0.2648
   58SAPC   C15 4297   4.296   4.337  10.900 -0.4096  0.1620  0.0024
   58SAPC  H15A 4298   4.284   4.295  10.801  0.0175 -0.5021  0.2207
   58SAPC  H15B 4299   4.326   4.256  10.965 -2.4456 -0.8112 -0.1810
   58SAPC  H15C 4300   4.199   4.379  10.922 -1.0499 -0.9646 -0.5513
   58SAPC   C11 4301   4.512   4.304  10.668 -0.5157  0.1852  0.1010
   58SAPC  H11A 4302   4.613   4.259  10.657 -0.8796 -1.3539  2.3867
   58SAPC  H11B 4303   4.496   4.380  10.589  1.2600  1.0530  0.5348
   58SAPC     P 4304   4.427   4.052  10.724  0.5566  0.9905 -0.3268
   58SAPC   O13 4305   4.508   4.051  10.848 -0.6420  0.3224 -0.3276
   58SAPC   O14 4306   4.294   3.993  10.740  0.1405  0.3233 -0.6917
   58SAPC   O12 4307   4.409   4.200  10.669  0.0325  0.0713 -0.1279
   58SAPC   O11 4308   4.508   3.968  10.616 -0.4236 -0.4330  0.6190
   58SAPC    C1 4309   4.470   3.990  10.473 -0.6804  0.4902 -0.1674
   58SAPC    HA 4310   4.464   3.897  10.411  1.1490  0.7775 -0.8265
   58SAPC    HB 4311   4.371   4.041  10.466  0.3755  2.7886  0.8265
   58SAPC    C2 4312   4.571   4.078  10.404 -0.1728  0.2983 -0.3877
   58SAPC    HS 4313   4.554   4.184  10.432 -0.1062  0.0950  0.4561
   58SAPC   O21 4314   4.556   4.068  10.262  0.3205 -0.3543 -0.2563
   58SAPC   C21 4315   4.471   4.144  10.197 -0.0308 -0.3098 -0.1235
   58SAPC   O22 4316   4.386   4.217  10.249  0.0505 -0.1087 -0.3888
   58SAPC   C22 4317   4.502   4.136  10.047  0.4555  1.2172 -0.6621
   58SAPC   H2R 4318   4.609   4.155  10.024  1.0516  0.3955  1.2079
   58SAPC   H2S 4319   4.485   4.027  10.030 -0.0600  1.4026 -1.3515
   58SAPC    C3 4320   4.711   4.028  10.440  1.1077  0.0322 -0.2566
   58SAPC    HX 4321   4.724   4.046  10.549  2.6276 -0.0434 -0.4010
   58SAPC    HY 4322   4.780   4.097  10.387  0.9308 -1.9833 -3.3659
   58SAPC   O31 4323   4.746   3.897  10.390 -0.1044  0.1123  0.1375
   58SAPC   C31 4324   4.782   3.810  10.486  0.2260  0.0255  0.5310
   58SAPC   O32 4325   4.793   3.845  10.603 -0.9450 -0.2330 -0.0258
   58SAPC   C32 4326   4.810   3.669  10.432  0.3781  0.1443  0.2073
   58SAPC   H2X 4327   4.708   3.625  10.440 -0.3342  1.8023  0.4616
   58SAPC   H2Y 4328   4.895   3.619  10.484  1.8454  0.6355 -1.6325
   58SAPC   C23 4329   4.407   4.225   9.963 -0.0152  0.2929  0.0479
   58SAPC   H3R 4330   4.447   4.328   9.968 -1.1878  0.7036  2.4520
   58SAPC   H3S 4331   4.300   4.214   9.994 -0.8018  0.8621 -2.2850
   58SAPC   C24 4332   4.401   4.183   9.813  0.2774 -0.7565 -0.0383
   58SAPC   H4R 4333   4.322   4.256   9.784 -0.6643 -1.1267  1.4902
   58SAPC   H4S 4334   4.359   4.082   9.792 -1.2565 -0.0889 -0.2715
   58SAPC   C25 4335   4.521   4.219   9.728 -0.4740 -0.5444 -0.0889
   58SAPC   H5R 4336   4.609   4.256   9.782 -1.1897  1.5570 -0.2775
   58SAPC   C26 4337   4.530   4.233   9.593  1.1023 -0.2586  0.9375
   58SAPC   H6R 4338   4.628   4.265   9.556 -0.1990  0.8472 -1.8076
   58SAPC   C27 4339   4.432   4.209   9.479  1.1590  0.0180  0.9953
   58SAPC   H7R 4340   4.390   4.311   9.459 -3.5905 -1.8487  0.0248
   58SAPC   H7S 4341   4.344   4.155   9.519  0.8146 -1.7136 -1.8428
   58SAPC   C28 4342   4.479   4.133   9.356  0.0692  0.4232 -0.4174
   58SAPC   H8R 4343   4.465   4.025   9.347  3.3765 -0.0667 -0.5887
   58SAPC   C29 4344   4.548   4.193   9.255 -0.5454 -0.6028 -0.1030
   58SAPC   H9R 4345   4.591   4.151   9.162  0.0853  0.3196 -0.2446
   58SAPC  C210 4346   4.565   4.346   9.252 -0.1193 -0.6089 -0.0636
   58SAPC  H10R 4347   4.655   4.374   9.194  0.7074  1.0801  1.8945
   58SAPC  H10S 4348   4.586   4.380   9.356  1.5167  0.4114 -0.6895
   58SAPC  C211 4349   4.433   4.400   9.199  0.0768 -0.4539 -0.6300
   58SAPC  H11R 4350   4.350   4.387   9.271  0.6511 -0.9357 -0.0365
   58SAPC  C212 4351   4.403   4.451   9.078 -0.2045  0.7273  0.5707
   58SAPC  H12R 4352   4.303   4.494   9.061  0.4971  1.9502 -0.6697
   58SAPC  C213 4353   4.495   4.467   8.962  0.0455  0.0090  0.5426
   58SAPC  H13R 4354   4.440   4.438   8.870  1.8379  1.1563 -0.9655
   58SAPC  H13S 4355   4.578   4.395   8.979 -0.2401 -0.3846  0.2951
   58SAPC  C214 4356   4.553   4.599   8.935  0.8321  0.4536 -0.2201
   58SAPC  H14R 4357   4.531   4.676   9.010  2.0396  0.2679  0.3647
   58SAPC  C215 4358   4.656   4.620   8.850  0.8834 -0.5360  0.2815
   58SAPC  H15R 4359   4.688   4.724   8.838 -1.0259  0.0528 -0.0247
   58SAPC  C216 4360   4.725   4.519   8.757  0.3938 -0.0475  0.7970
   58SAPC  H16R 4361   4.670   4.424   8.741  0.5403 -0.1882  1.1179
   58SAPC  H16S 4362   4.815   4.478   8.806 -0.0558 -1.4669  0.4859
   58SAPC  C217 4363   4.769   4.590   8.625  0.2059 -0.2298 -0.8941
   58SAPC  H17R 4364   4.844   4.669   8.648  0.0441 -0.4827  0.6200
   58SAPC  H17S 4365   4.683   4.657   8.607  0.5961  0.4405 -0.3382
   58SAPC  C218 4366   4.805   4.506   8.508 -0.6338  0.3530  0.2062
   58SAPC  H18R 4367   4.901   4.455   8.532 -1.3223 -0.3483  1.5768
   58SAPC  H18S 4368   4.804   4.557   8.409 -2.4707  0.1728  0.0962
   58SAPC  C219 4369   4.709   4.396   8.460 -0.3242 -0.5469  0.3367
   58SAPC  H19R 4370   4.701   4.314   8.535  3.0525 -1.3596 -0.0446
   58SAPC  H19S 4371   4.742   4.361   8.359 -0.5448 -1.3598  0.5344
   58SAPC  C220 4372   4.563   4.447   8.434 -0.7792  0.1641 -0.3201
   58SAPC  H20R 4373   4.530   4.490   8.531  0.9922 -1.2013  0.9825
   58SAPC  H20S 4374   4.496   4.363   8.405 -0.6555  0.6393 -2.0262
   58SAPC  H20T 4375   4.556   4.519   8.351  1.6788  0.2692 -0.5312
   58SAPC   C33 4376   4.845   3.671  10.281  0.0568  0.1674  0.6591
   58SAPC   H3X 4377   4.941   3.725  10.269  0.5679 -0.1164  2.9475
   58SAPC   H3Y 4378   4.768   3.706  10.209  2.3561 -0.8807 -2.5150
   58SAPC   C34 4379   4.874   3.527  10.243  0.6115  0.0187  0.9286
   58SAPC   H4X 4380   4.816   3.463  10.314 -3.2777  1.3578 -0.7584
   58SAPC   H4Y 4381   4.979   3.498  10.267  0.4996  1.2586  3.1430
   58SAPC   C35 4382   4.849   3.487  10.096  0.3715  0.1017 -0.2516
   58SAPC   H5X 4383   4.745   3.508  10.065  0.1572 -0.2490  0.2139
   58SAPC   H5Y 4384   4.864   3.377  10.095  1.2337  0.0781  2.9332
   58SAPC   C36 4385   4.944   3.553   9.997  0.9710 -0.3541 -0.1011
   58SAPC   H6X 4386   5.045   3.532  10.038  1.2043  0.5240 -0.1916
   58SAPC   H6Y 4387   4.922   3.660   9.978 -0.8315 -1.1800 -3.3470
   58SAPC   C37 4388   4.948   3.487   9.853 -0.6663  0.0102 -1.1049
   58SAPC   H7X 4389   4.985   3.384   9.873  0.1917  0.6371  0.8473
   58SAPC   H7Y 4390   5.015   3.547   9.788 -1.8872  2.6470 -0.0896
   58SAPC   C38 4391   4.802   3.477   9.799 -0.2336  0.3047 -0.4783
   58SAPC   H8X 4392   4.763   3.581   9.811  2.6347  1.2895  1.3738
   58SAPC   H8Y 4393   4.751   3.415   9.876  1.3557 -0.1712  0.2372
   58SAPC   C39 4394   4.799   3.417   9.661  0.0026  0.9475  0.0575
   58SAPC   H9X 4395   4.694   3.394   9.634  0.5031  1.1111 -2.1676
   58SAPC   H9Y 4396   4.853   3.320   9.656 -1.9910 -0.2172  0.0635
   58SAPC  C310 4397   4.851   3.508   9.547 -0.3133  0.4328  0.0449
   58SAPC  H10X 4398   4.960   3.517   9.566 -0.0598 -1.1361 -0.4893
   58SAPC  H10Y 4399   4.805   3.608   9.560  0.9411  1.0352  0.0034
   58SAPC  C311 4400   4.816   3.465   9.404  0.3947  0.6504  0.0150
   58SAPC  H11X 4401   4.711   3.431   9.397 -0.0963  2.2879 -1.1577
   58SAPC  H11Y 4402   4.889   3.386   9.374 -1.4433  0.0908 -3.4753
   58SAPC  C312 4403   4.833   3.594   9.311 -0.1520  0.2413 -0.3286
   58SAPC  H12X 4404   4.936   3.630   9.334  0.6493 -0.9771 -1.8183
   58SAPC  H12Y 4405   4.764   3.680   9.324 -0.4053  0.1982 -1.2952
   58SAPC  C313 4406   4.835   3.558   9.158 -0.2556  0.6338 -0.4560
   58SAPC  H13X 4407   4.870   3.455   9.136 -2.8206 -0.2356 -0.7009
   58SAPC  H13Y 4408   4.903   3.621   9.096  1.3927 -0.0262  0.6218
   58SAPC  C314 4409   4.700   3.575   9.097  0.7935 -0.2236 -0.2335
   58SAPC  H14X 4410   4.651   3.672   9.118 -0.4356 -0.5428 -1.4816
   58SAPC  H14Y 4411   4.635   3.495   9.140 -1.0087  1.8950  1.1678
   58SAPC  C315 4412   4.702   3.553   8.947  0.2568 -0.2321 -0.0455
   58SAPC  H15X 4413   4.606   3.517   8.902  0.1300  2.3524 -2.1348
   58SAPC  H15Y 4414   4.783   3.478   8.935  1.2463  0.8809 -0.4130
   58SAPC  C316 4415   4.739   3.672   8.850 -0.2359 -0.5004 -0.6607
   58SAPC  H16X 4416   4.828   3.725   8.889 -0.9660  1.7344 -1.8912
   58SAPC  H16Y 4417   4.655   3.744   8.864  0.1496 -0.3963  1.5485
   58SAPC  C317 4418   4.748   3.647   8.699  0.6678  0.2173 -0.0687
   58SAPC  H17X 4419   4.662   3.583   8.668  0.1616  1.8100 -2.2066
   58SAPC  H17Y 4420   4.840   3.590   8.674  1.1460  1.4380 -1.2551
   58SAPC  C318 4421   4.731   3.779   8.626 -0.4487 -0.5515 -0.4283
   58SAPC  H18X 4422   4.645   3.839   8.663 -0.6156 -0.7062 -0.5630
   58SAPC  H18Y 4423   4.711   3.762   8.517  0.6388  2.4135 -1.1877
   58SAPC  H18Z 4424   4.823   3.841   8.633 -1.1384  0.6352 -1.4085
   59SAPC     N 4425   3.850   5.262  10.927 -0.2778 -0.0742  0.3251
   59SAPC   C12 4426   3.971   5.307  11.003 -0.4747 -0.1968 -0.5833
   59SAPC  H12A 4427   3.948   5.408  11.032 -2.7401 -0.7344 -0.3128
   59SAPC  H12B 4428   4.051   5.308  10.932  0.1259  2.4400  0.0555
   59SAPC   C13 4429   3.836   5.354  10.809  0.3084  0.3452  0.2373
   59SAPC  H13A 4430   3.802   5.452  10.836  1.7369  1.1687 -0.7899
   59SAPC  H13B 4431   3.938   5.375  10.779 -0.3307  1.3335 -1.3938
   59SAPC  H13C 4432   3.782   5.322  10.721  2.8720 -0.0652 -1.3084
   59SAPC   C14 4433   3.865   5.120  10.883  0.5191  0.1341 -0.4624
   59SAPC  H14A 4434   3.793   5.085  10.812 -1.6365  0.0073  1.6495
   59SAPC  H14B 4435   3.956   5.105  10.827 -0.3449  1.6262 -2.3829
   59SAPC  H14C 4436   3.867   5.049  10.965  3.4852  0.1788 -0.3912
   59SAPC   C15 4437   3.726   5.276  11.006 -0.6840 -0.4263  0.1345
   59SAPC  H15A 4438   3.742   5.234  11.104  1.7254 -1.5271 -0.6399
   59SAPC  H15B 4439   3.704   5.380  11.024  2.7732  0.2745  1.1114
   59SAPC  H15C 4440   3.638   5.231  10.964  0.3650  0.8689 -3.8970
   59SAPC   C11 4441   4.003   5.233  11.129  0.5091 -0.1303  0.2932
   59SAPC  H11A 4442   3.921   5.221  11.202  0.0784 -1.6217 -0.4052
   59SAPC  H11B 4443   4.073   5.303  11.180  1.7857  0.1799 -1.7602
   59SAPC     P 4444   4.223   5.097  11.098 -0.0517 -0.0430 -0.0021
   59SAPC   O13 4445   4.261   5.075  11.237 -0.8204  0.1228 -0.1802
   59SAPC   O14 4446   4.272   4.997  11.000  0.4849  0.3446  0.8789
   59SAPC   O12 4447   4.065   5.110  11.095 -0.2647  0.0950  0.4478
   59SAPC   O11 4448   4.270   5.230  11.053 -0.4469 -0.4864 -0.0272
   59SAPC    C1 4449   4.405   5.252  11.049 -0.0677 -0.2330  0.1053
   59SAPC    HA 4450   4.444   5.315  11.132  1.0667  0.2309 -0.7446
   59SAPC    HB 4451   4.463   5.157  11.043  1.0391  0.4157  0.0849
   59SAPC    C2 4452   4.443   5.322  10.915  0.7013  0.9138  0.3018
   59SAPC    HS 4453   4.387   5.418  10.908  0.2110  0.7191  1.3364
   59SAPC   O21 4454   4.415   5.243  10.802  0.0316 -0.4448 -0.2725
   59SAPC   C21 4455   4.289   5.248  10.756  0.3631 -0.6360  0.1414
   59SAPC   O22 4456   4.201   5.323  10.798 -0.3809 -0.1242 -0.0144
   59SAPC   C22 4457   4.265   5.146  10.651 -0.5340 -0.2350  0.5020
   59SAPC   H2R 4458   4.364   5.113  10.614 -0.5226  0.3447 -0.0135
   59SAPC   H2S 4459   4.213   5.061  10.700  0.2237  0.1654  2.0550
   59SAPC    C3 4460   4.588   5.363  10.908 -0.1603  0.7611  0.7791
   59SAPC    HX 4461   4.653   5.273  10.917  1.5287  1.8082 -0.4999
   59SAPC    HY 4462   4.614   5.430  10.993  0.3945  1.7301 -0.1428
   59SAPC   O31 4463   4.637   5.426  10.786  0.3798  0.3065 -0.8827
   59SAPC   C31 4464   4.626   5.550  10.766 -0.2612 -0.6454  0.3202
   59SAPC   O32 4465   4.581   5.634  10.846 -0.1175 -0.3906  0.1881
   59SAPC   C32 4466   4.673   5.577  10.621  0.4623 -0.3489  0.0112
   59SAPC   H2X 4467   4.593   5.528  10.560  0.5897  0.6843 -1.0156
   59SAPC   H2Y 4468   4.768   5.524  10.599  0.1294 -0.8070 -0.3641
   59SAPC   C23 4469   4.193   5.216  10.532 -0.1807  0.2309  0.7614
   59SAPC   H3R 4470   4.090   5.242  10.566 -0.5614 -0.4744  0.1955
   59SAPC   H3S 4471   4.181   5.140  10.451  1.1578  0.3686  0.4172
   59SAPC   C24 4472   4.251   5.349  10.476 -0.5305 -0.2093  0.0920
   59SAPC   H4R 4473   4.222   5.436  10.539  1.0940  0.5772 -0.1970
   59SAPC   H4S 4474   4.185   5.358  10.387  1.3400  2.2683 -1.1551
   59SAPC   C25 4475   4.399   5.345  10.444 -0.6651 -0.5733 -0.5340
   59SAPC   H5R 4476   4.456   5.313  10.533 -0.8564 -0.5523 -0.4026
   59SAPC   C26 4477   4.459   5.377  10.330 -1.1839  0.4055 -0.3220
   59SAPC   H6R 4478   4.569   5.375  10.323 -1.0955  0.5896  0.8500
   59SAPC   C27 4479   4.395   5.422  10.199  0.1386 -0.4510  0.2893
   59SAPC   H7R 4480   4.468   5.481  10.139 -0.4665  2.7742  2.4569
   59SAPC   H7S 4481   4.317   5.498  10.220 -1.0136 -1.5065 -0.0978
   59SAPC   C28 4482   4.327   5.314  10.117 -0.1190 -0.0722 -0.4763
   59SAPC   H8R 4483   4.315   5.218  10.170 -1.1388 -1.2760 -2.7598
   59SAPC   C29 4484   4.304   5.319   9.986  0.1223 -0.3486  0.0282
   59SAPC   H9R 4485   4.256   5.230   9.942 -0.8921 -0.5922  1.5558
   59SAPC  C210 4486   4.329   5.432   9.895  0.1852 -0.2004 -0.1891
   59SAPC  H10R 4487   4.368   5.517   9.955 -0.8894 -0.1362  0.4400
   59SAPC  H10S 4488   4.229   5.464   9.857 -0.1143 -2.7520 -1.8292
   59SAPC  C211 4489   4.423   5.398   9.781  0.0028  0.6849 -0.5806
   59SAPC  H11R 4490   4.518   5.356   9.818 -0.6488  0.1782  0.5833
   59SAPC  C212 4491   4.415   5.424   9.651 -0.1533  0.1472  1.3458
   59SAPC  H12R 4492   4.497   5.401   9.581 -3.1996  1.5145 -3.0441
   59SAPC  C213 4493   4.296   5.496   9.592 -0.6562  0.8380  0.1851
   59SAPC  H13R 4494   4.338   5.563   9.514  1.2218 -0.7760 -0.2688
   59SAPC  H13S 4495   4.244   5.561   9.666 -0.5909  1.9817 -0.7526
   59SAPC  C214 4496   4.189   5.409   9.528 -0.1346  0.4473 -0.3031
   59SAPC  H14R 4497   4.141   5.339   9.599 -0.4446  1.0487  0.0861
   59SAPC  C215 4498   4.156   5.402   9.403  0.1049 -0.1496  0.2334
   59SAPC  H15R 4499   4.072   5.336   9.377 -0.0288 -1.4001  3.3929
   59SAPC  C216 4500   4.214   5.480   9.286  0.7926 -0.6369  0.1395
   59SAPC  H16R 4501   4.322   5.458   9.269  1.3654  0.7556  1.6818
   59SAPC  H16S 4502   4.218   5.587   9.316 -0.5842 -0.2862 -0.7961
   59SAPC  C217 4503   4.146   5.456   9.147 -0.4516  0.1067  0.8855
   59SAPC  H17R 4504   4.036   5.469   9.156 -0.5041 -0.0111  0.4363
   59SAPC  H17S 4505   4.150   5.348   9.121  0.5247  0.3281  0.0074
   59SAPC  C218 4506   4.204   5.546   9.031  0.1584 -0.5023  0.1382
   59SAPC  H18R 4507   4.314   5.541   9.020  0.0724  0.7045 -1.8797
   59SAPC  H18S 4508   4.185   5.654   9.050  1.7472 -0.0172 -0.8485
   59SAPC  C219 4509   4.148   5.500   8.894 -0.2058 -0.0171  0.0176
   59SAPC  H19R 4510   4.163   5.391   8.878  2.2872  0.3966 -0.9749
   59SAPC  H19S 4511   4.216   5.552   8.823  0.5184  2.0265  2.0708
   59SAPC  C220 4512   4.002   5.530   8.868  0.9777 -0.0639  0.0598
   59SAPC  H20R 4513   3.979   5.638   8.876 -1.0058 -0.5296  1.3607
   59SAPC  H20S 4514   3.931   5.490   8.944 -1.1585  0.5116 -1.5399
   59SAPC  H20T 4515   3.965   5.503   8.766  0.2752 -1.4199  0.6463
   59SAPC   C33 4516   4.661   5.730  10.581  0.5228  0.4611 -0.2034
   59SAPC   H3X 4517   4.725   5.782  10.655  1.0464 -1.8796  1.0905
   59SAPC   H3Y 4518   4.553   5.752  10.589  0.4766 -0.2245  1.4318
   59SAPC   C34 4519   4.739   5.758  10.451  0.7581 -0.3574 -0.1058
   59SAPC   H4X 4520   4.842   5.718  10.465  0.8038  0.5025  2.4936
   59SAPC   H4Y 4521   4.758   5.867  10.453  0.3895 -0.3066  0.8454
   59SAPC   C35 4522   4.684   5.691  10.321  0.3467 -0.5166  0.8800
   59SAPC   H5X 4523   4.585   5.738  10.305  1.6667  2.5924  1.1396
   59SAPC   H5Y 4524   4.673   5.581  10.332  0.6227 -0.5381  0.9542
   59SAPC   C36 4525   4.772   5.729  10.202  0.0617  1.0818  0.4573
   59SAPC   H6X 4526   4.876   5.695  10.220 -0.2519 -0.8613 -1.0352
   59SAPC   H6Y 4527   4.771   5.840  10.200  0.9877  1.0963 -0.1376
   59SAPC   C37 4528   4.706   5.674  10.073 -0.8927 -1.1008 -0.3225
   59SAPC   H7X 4529   4.597   5.697  10.061 -0.7291  0.2142  0.4449
   59SAPC   H7Y 4530   4.709   5.564  10.082  1.4200 -1.2019 -1.5734
   59SAPC   C38 4531   4.783   5.710   9.944  0.4933  0.5847 -0.4320
   59SAPC   H8X 4532   4.885   5.666   9.951  0.6440  0.9738 -0.0952
   59SAPC   H8Y 4533   4.795   5.821   9.940  1.1811  0.4863 -1.6380
   59SAPC   C39 4534   4.719   5.654   9.821  0.1424  0.0975 -0.5488
   59SAPC   H9X 4535   4.621   5.703   9.801  1.5747  2.5152 -2.1251
   59SAPC   H9Y 4536   4.709   5.546   9.842  3.1696  0.1774  1.9220
   59SAPC  C310 4537   4.804   5.675   9.694 -0.1367 -0.2429  0.4756
   59SAPC  H10X 4538   4.910   5.640   9.698 -0.0483 -0.3917 -1.7481
   59SAPC  H10Y 4539   4.813   5.784   9.675 -1.5254 -0.2045 -0.0768
   59SAPC  C311 4540   4.754   5.613   9.560 -0.6263 -0.4641  0.1041
   59SAPC  H11X 4541   4.721   5.516   9.603  0.9555 -0.1605  2.1955
   59SAPC  H11Y 4542   4.841   5.576   9.502 -1.0002 -0.1880 -0.6393
   59SAPC  C312 4543   4.666   5.701   9.479  0.0301 -0.0685  0.9064
   59SAPC  H12X 4544   4.729   5.780   9.433  0.8381 -0.6509  0.9864
   59SAPC  H12Y 4545   4.595   5.752   9.547 -1.7369 -2.2239  0.8118
   59SAPC  C313 4546   4.599   5.638   9.350  0.2011  0.8807 -0.6839
   59SAPC  H13X 4547   4.490   5.654   9.356 -0.4402 -2.5730 -0.7959
   59SAPC  H13Y 4548   4.615   5.528   9.349 -1.0190  0.7027 -1.6455
   59SAPC  C314 4549   4.650   5.710   9.224  0.5687  0.3244 -0.4531
   59SAPC  H14X 4550   4.755   5.682   9.203  1.2181  0.0754  2.7281
   59SAPC  H14Y 4551   4.639   5.820   9.235 -2.0764  0.0491  0.2981
   59SAPC  C315 4552   4.562   5.677   9.100 -0.3633 -0.1983  0.5286
   59SAPC  H15X 4553   4.471   5.741   9.101  0.8544  1.6695 -0.8243
   59SAPC  H15Y 4554   4.518   5.575   9.101 -0.5713 -0.1037  1.0572
   59SAPC  C316 4555   4.630   5.716   8.960 -0.2952 -0.0748 -0.3629
   59SAPC  H16X 4556   4.734   5.675   8.957  0.7234  2.1484  1.4130
   59SAPC  H16Y 4557   4.643   5.825   8.941  2.5854 -0.2670  0.0119
   59SAPC  C317 4558   4.569   5.663   8.828  0.7437  0.2536  0.2626
   59SAPC  H17X 4559   4.630   5.697   8.741  0.7815 -1.3953 -0.3864
   59SAPC  H17Y 4560   4.471   5.713   8.816  0.3301 -0.8743 -1.2967
   59SAPC  C318 4561   4.539   5.514   8.829 -0.6250 -0.1009  0.1185
   59SAPC  H18X 4562   4.443   5.503   8.774 -0.2372  0.4909 -0.7038
   59SAPC  H18Y 4563   4.524   5.465   8.928 -0.1239 -4.9302 -1.8901
   59SAPC  H18Z 4564   4.615   5.452   8.776 -0.7131  0.2749 -0.4517
   60SAPC     N 4565   6.333   2.971  10.807 -0.4235 -0.5688  0.0600
   60SAPC   C12 4566   6.224   2.995  10.705  0.2365 -0.1329  0.0413
   60SAPC  H12A 4567   6.153   3.059  10.755  3.1540  2.7529  0.8710
   60SAPC  H12B 4568   6.180   2.897  10.692 -0.4904  0.0978  0.6572
   60SAPC   C13 4569   6.457   2.907  10.743  0.5597  0.1631  0.6529
   60SAPC  H13A 4570   6.436   2.822  10.679 -0.1410 -0.1997  1.3534
   60SAPC  H13B 4571   6.505   2.981  10.681 -0.1572  0.3551  0.3165
   60SAPC  H13C 4572   6.529   2.873  10.817 -1.2024 -1.2815  1.8007
   60SAPC   C14 4573   6.380   3.102  10.856  0.2107  0.3511  0.1271
   60SAPC  H14A 4574   6.469   3.089  10.916 -1.0667 -0.2719  1.9517
   60SAPC  H14B 4575   6.400   3.173  10.777 -1.2108  1.8022  1.0173
   60SAPC  H14C 4576   6.297   3.143  10.911 -2.2037 -0.6645 -2.4644
   60SAPC   C15 4577   6.287   2.878  10.913  0.6186 -0.5111 -0.8810
   60SAPC  H15A 4578   6.256   2.779  10.883  0.0468 -0.9153  0.9165
   60SAPC  H15B 4579   6.358   2.860  10.992  0.4019 -1.8215 -0.9698
   60SAPC  H15C 4580   6.197   2.914  10.961  1.0784 -2.0163  1.2684
   60SAPC   C11 4581   6.245   3.066  10.569  0.2943  0.1054  0.1745
   60SAPC  H11A 4582   6.149   3.080  10.515  1.8988  0.3477 -2.8113
   60SAPC  H11B 4583   6.293   2.991  10.503 -1.9925  0.6302 -2.2489
   60SAPC     P 4584   6.445   3.241  10.527 -0.0316 -0.2728 -0.1473
   60SAPC   O13 4585   6.531   3.276  10.647  0.4016  0.3865  0.2593
   60SAPC   O14 4586   6.508   3.140  10.438 -0.9526 -0.2904 -0.0289
   60SAPC   O12 4587   6.303   3.191  10.585  0.3435 -0.6727  0.2413
   60SAPC   O11 4588   6.422   3.370  10.441 -0.0464 -0.3485  0.4076
   60SAPC    C1 4589   6.297   3.427  10.402  0.3470 -0.2381 -0.0683
   60SAPC    HA 4590   6.223   3.441  10.484 -3.3282 -0.3912 -3.0769
   60SAPC    HB 4591   6.327   3.532  10.385  1.7232 -0.6331 -0.2651
   60SAPC    C2 4592   6.218   3.353  10.290 -0.3665  0.0740 -0.6479
   60SAPC    HS 4593   6.174   3.267  10.345  1.7518 -1.6926 -1.5907
   60SAPC   O21 4594   6.319   3.305  10.190  0.0468 -0.4244  0.0154
   60SAPC   C21 4595   6.303   3.177  10.162  0.3772  0.0105 -0.0551
   60SAPC   O22 4596   6.207   3.108  10.191  0.2629  0.1462  0.1418
   60SAPC   C22 4597   6.430   3.126  10.099 -0.0674 -0.4372 -0.0244
   60SAPC   H2R 4598   6.446   3.183  10.005  0.1269  0.5927  0.6135
   60SAPC   H2S 4599   6.515   3.152  10.166 -0.2579  0.8299 -0.2463
   60SAPC    C3 4600   6.103   3.431  10.222 -0.6954  0.0884  0.5921
   60SAPC    HX 4601   6.031   3.457  10.302 -0.7114  1.2640  0.2276
   60SAPC    HY 4602   6.072   3.356  10.147  1.6377 -0.9715  0.5886
   60SAPC   O31 4603   6.153   3.550  10.158  0.0414  0.0425 -0.1625
   60SAPC   C31 4604   6.150   3.662  10.227 -0.3971 -0.4964 -0.0638
   60SAPC   O32 4605   6.112   3.684  10.341 -0.5366 -0.0388  0.7383
   60SAPC   C32 4606   6.221   3.765  10.137 -0.1699  0.1761  0.0834
   60SAPC   H2X 4607   6.331   3.751  10.140  0.0071  1.4882  1.3790
   60SAPC   H2Y 4608   6.207   3.866  10.183  2.5083  0.8641 -0.4619
   60SAPC   C23 4609   6.432   2.975  10.057 -0.3538 -0.3823 -1.0043
   60SAPC   H3R 4610   6.381   2.919  10.139 -0.3086  2.4492  1.1086
   60SAPC   H3S 4611   6.537   2.939  10.052 -0.8808 -2.6195  1.5819
   60SAPC   C24 4612   6.376   2.950   9.921  0.1074  0.4487  0.2312
   60SAPC   H4R 4613   6.411   2.850   9.889  0.9921  0.9287 -0.3641
   60SAPC   H4S 4614   6.414   3.012   9.837 -1.7822  0.6034 -0.5484
   60SAPC   C25 4615   6.226   2.957   9.924  0.5270  0.0137 -0.0263
   60SAPC   H5R 4616   6.175   2.892   9.996  0.9918  2.6788  2.9618
   60SAPC   C26 4617   6.138   3.028   9.846  0.0908  0.3487  0.1375
   60SAPC   H6R 4618   6.034   3.039   9.878 -0.9046  0.3022 -2.8382
   60SAPC   C27 4619   6.169   3.120   9.734  0.0619  0.1000 -0.2189
   60SAPC   H7R 4620   6.273   3.111   9.696  0.1642 -1.3596  0.3619
   60SAPC   H7S 4621   6.156   3.225   9.768 -1.8420  0.2704 -1.3264
   60SAPC   C28 4622   6.073   3.101   9.619 -0.5088 -0.3216  0.4159
   60SAPC   H8R 4623   5.978   3.154   9.632 -1.5675 -1.8617 -0.6492
   60SAPC   C29 4624   6.102   3.028   9.500 -0.1690 -0.5941  0.3146
   60SAPC   H9R 4625   6.026   3.018   9.422  0.2583 -1.5153  0.0041
   60SAPC  C210 4626   6.235   2.968   9.482  0.8066  0.3322 -0.4066
   60SAPC  H10R 4627   6.249   2.882   9.550 -1.4975 -0.9142 -1.3972
   60SAPC  H10S 4628   6.309   3.044   9.514 -0.0808  1.0114  0.1161
   60SAPC  C211 4629   6.263   2.900   9.346 -0.0643  0.5264 -0.1153
   60SAPC  H11R 4630   6.178   2.845   9.303  0.1262  2.3752 -3.1552
   60SAPC  C212 4631   6.373   2.908   9.268 -0.0124  0.7374 -0.2728
   60SAPC  H12R 4632   6.389   2.864   9.168  1.0903  2.2888 -0.8144
   60SAPC  C213 4633   6.494   2.989   9.299 -0.4105 -0.3198  0.4671
   60SAPC  H13R 4634   6.515   3.006   9.407 -0.9905  0.0391  0.5256
   60SAPC  H13S 4635   6.473   3.090   9.259  2.9303  0.1210 -0.4959
   60SAPC  C214 4636   6.626   2.951   9.233  0.4792 -0.9350 -0.1517
   60SAPC  H14R 4637   6.613   2.871   9.158  2.0301 -0.6720 -0.7311
   60SAPC  C215 4638   6.750   2.999   9.260  0.7351  0.1911  0.0106
   60SAPC  H15R 4639   6.833   2.961   9.199 -0.8185 -1.1868 -1.3376
   60SAPC  C216 4640   6.800   3.106   9.358  0.7380 -0.6472  0.0853
   60SAPC  H16R 4641   6.711   3.166   9.388  0.1429 -1.3660 -0.2157
   60SAPC  H16S 4642   6.873   3.174   9.311 -1.7385  1.3198 -1.1930
   60SAPC  C217 4643   6.848   3.046   9.486  0.6780  0.1750 -0.3478
   60SAPC  H17R 4644   6.923   2.966   9.468 -0.4716 -1.0612  0.1654
   60SAPC  H17S 4645   6.765   2.992   9.537  1.5336  0.8671  1.8729
   60SAPC  C218 4646   6.898   3.140   9.599  0.1785 -0.2620  0.2640
   60SAPC  H18R 4647   6.966   3.208   9.544  3.0640 -0.7089  2.9763
   60SAPC  H18S 4648   6.967   3.087   9.667  2.8414  0.9200 -1.3796
   60SAPC  C219 4649   6.795   3.230   9.672  0.2744  0.3260 -0.2615
   60SAPC  H19R 4650   6.750   3.295   9.594 -0.6230  0.8431  0.6537
   60SAPC  H19S 4651   6.842   3.301   9.744  1.1693 -1.5228  1.0642
   60SAPC  C220 4652   6.686   3.143   9.744  0.2276  0.1038  0.4517
   60SAPC  H20R 4653   6.605   3.199   9.795 -0.3155  0.3602 -0.6786
   60SAPC  H20S 4654   6.735   3.077   9.819  1.3630 -1.0054 -1.1933
   60SAPC  H20T 4655   6.640   3.082   9.663  1.1233  1.8483 -1.4625
   60SAPC   C33 4656   6.174   3.761   9.981 -0.3203  0.6551  0.2797
   60SAPC   H3X 4657   6.064   3.780   9.984 -0.6715 -1.0666 -0.6539
   60SAPC   H3Y 4658   6.187   3.658   9.942 -0.7305  0.8754 -0.4621
   60SAPC   C34 4659   6.244   3.850   9.881 -0.2506 -0.1922 -0.3361
   60SAPC   H4X 4660   6.345   3.804   9.868 -0.7491 -1.4500  0.0833
   60SAPC   H4Y 4661   6.251   3.952   9.925 -1.3158 -0.4206  0.4091
   60SAPC   C35 4662   6.169   3.864   9.757 -0.3395 -0.3310  0.1629
   60SAPC   H5X 4663   6.092   3.942   9.777 -1.2099 -1.6005  2.0045
   60SAPC   H5Y 4664   6.118   3.769   9.731 -1.6659  0.1679  0.8736
   60SAPC   C36 4665   6.260   3.903   9.634 -0.3026  0.3379  0.4048
   60SAPC   H6X 4666   6.336   3.825   9.614  1.1791  1.7858  0.1304
   60SAPC   H6Y 4667   6.335   3.982   9.654  2.0333 -1.3435 -1.1606
   60SAPC   C37 4668   6.181   3.932   9.509 -0.0519 -0.3185 -0.0258
   60SAPC   H7X 4669   6.116   4.018   9.537 -1.1753 -0.3292 -2.3581
   60SAPC   H7Y 4670   6.107   3.851   9.491  1.0333 -1.2831 -0.3087
   60SAPC   C38 4671   6.253   3.987   9.384 -0.1545  0.7269  0.0805
   60SAPC   H8X 4672   6.344   4.048   9.403 -0.2871  1.9375 -2.6965
   60SAPC   H8Y 4673   6.184   4.059   9.335 -2.0252 -0.9797  0.0644
   60SAPC   C39 4674   6.297   3.872   9.286 -0.4158 -0.1257 -0.6047
   60SAPC   H9X 4675   6.275   3.769   9.324  0.0983  0.8242  2.6208
   60SAPC   H9Y 4676   6.403   3.893   9.263 -0.8262  1.7536 -0.8654
   60SAPC  C310 4677   6.217   3.872   9.159 -0.7862 -0.9682 -0.3467
   60SAPC  H10X 4678   6.115   3.904   9.188  0.6011  2.5831  1.2261
   60SAPC  H10Y 4679   6.206   3.773   9.110 -1.1896 -1.9903  1.7133
   60SAPC  C311 4680   6.284   3.968   9.058  0.9978  0.0766 -0.9428
   60SAPC  H11X 4681   6.380   3.922   9.026 -0.0084 -3.4534  0.6862
   60SAPC  H11Y 4682   6.291   4.066   9.110  0.0956 -0.1385 -0.3969
   60SAPC  C312 4683   6.196   3.982   8.931 -0.6495  0.7823 -0.0442
   60SAPC  H12X 4684   6.101   4.031   8.959 -1.0287 -0.1761  0.4031
   60SAPC  H12Y 4685   6.176   3.883   8.883 -0.8745  0.7472  0.1221
   60SAPC  C313 4686   6.268   4.069   8.830  0.3103 -0.0859  0.1873
   60SAPC  H13X 4687   6.363   4.028   8.791  0.9702  2.0473 -0.6330
   60SAPC  H13Y 4688   6.297   4.162   8.884 -2.0840  0.2782  0.9834
   60SAPC  C314 4689   6.176   4.106   8.718 -0.3693 -0.3206  1.4285
   60SAPC  H14X 4690   6.185   4.213   8.691 -3.6930 -0.6216 -1.5255
   60SAPC  H14Y 4691   6.075   4.089   8.759 -1.1824  0.2855 -0.2510
   60SAPC  C315 4692   6.203   4.009   8.597 -1.0587  0.9723 -0.6166
   60SAPC  H15X 4693   6.241   3.919   8.650  0.0882  2.4354  1.1940
   60SAPC  H15Y 4694   6.286   4.051   8.536  1.1118 -0.9422  0.8131
   60SAPC  C316 4695   6.092   3.980   8.504  0.3322  0.3529  0.5588
   60SAPC  H16X 4696   6.063   4.076   8.455 -1.0460 -1.5804 -2.7933
   60SAPC  H16Y 4697   6.010   3.940   8.568  1.0475  0.2040  1.3996
   60SAPC  C317 4698   6.120   3.869   8.394  0.0640 -0.6720 -0.6092
   60SAPC  H17X 4699   6.167   3.789   8.455 -1.2026 -0.6351  0.4475
   60SAPC  H17Y 4700   6.190   3.914   8.320 -1.0998 -0.7459 -1.7763
   60SAPC  C318 4701   6.000   3.821   8.319  0.7529  0.0882 -0.2961
   60SAPC  H18X 4702   5.921   3.795   8.392  1.9536 -0.4583  0.8570
   60SAPC  H18Y 4703   6.014   3.724   8.267  1.4555 -0.8805  1.6202
   60SAPC  H18Z 4704   5.969   3.898   8.245 -0.6400  1.0565  1.2306
   61SAPC     N 4705   1.184   0.522  11.088  0.2668  0.3569  0.0676
   61SAPC   C12 4706   1.125   0.624  10.995 -0.8369 -0.5420 -0.4619
   61SAPC  H12A 4707   1.150   0.718  11.042  0.0791 -1.0509  0.1000
   61SAPC  H12B 4708   1.017   0.623  10.999 -0.8408  0.5459  0.1476
   61SAPC   C13 4709   1.170   0.384  11.024 -0.3409 -0.3659  0.1829
   61SAPC  H13A 4710   1.225   0.312  11.084 -0.2610 -0.3653  0.1095
   61SAPC  H13B 4711   1.068   0.350  11.017 -0.2197 -0.5045 -0.9924
   61SAPC  H13C 4712   1.211   0.389  10.925  0.3209  3.2396  0.5123
   61SAPC   C14 4713   1.332   0.544  11.100  0.6055 -0.2967 -0.2155
   61SAPC  H14A 4714   1.364   0.465  11.166 -0.2930 -0.9112 -0.5015
   61SAPC  H14B 4715   1.367   0.516  11.002 -1.3898 -2.0992 -0.4974
   61SAPC  H14C 4716   1.364   0.643  11.130 -0.2796  0.0058 -0.2413
   61SAPC   C15 4717   1.108   0.518  11.217 -0.4974 -0.5037 -0.4200
   61SAPC  H15A 4718   1.152   0.448  11.287 -0.0594  1.3852  1.2822
   61SAPC  H15B 4719   1.115   0.612  11.269 -2.1870 -1.9218  2.6541
   61SAPC  H15C 4720   1.001   0.503  11.214 -0.8655  1.4438  0.6793
   61SAPC   C11 4721   1.163   0.635  10.842  0.5937 -0.5275 -0.3353
   61SAPC  H11A 4722   1.090   0.700  10.790  1.7463 -0.4261 -1.8958
   61SAPC  H11B 4723   1.141   0.534  10.801 -1.8364 -0.4016  0.4466
   61SAPC     P 4724   1.355   0.813  10.787 -0.1618  0.1200 -0.1224
   61SAPC   O13 4725   1.252   0.924  10.800  0.0637  0.0774  0.4791
   61SAPC   O14 4726   1.483   0.846  10.851 -0.1137  0.3254  0.2938
   61SAPC   O12 4727   1.295   0.681  10.847 -0.1989 -0.1070  0.2125
   61SAPC   O11 4728   1.380   0.785  10.639  0.0123  0.1657  0.1239
   61SAPC    C1 4729   1.295   0.721  10.534 -0.5650 -0.0970  0.1264
   61SAPC    HA 4730   1.195   0.707  10.579 -2.1343  2.5380 -2.2167
   61SAPC    HB 4731   1.278   0.795  10.453 -2.2873 -0.7614 -0.1516
   61SAPC    C2 4732   1.347   0.586  10.474  0.0633 -0.0687 -0.4986
   61SAPC    HS 4733   1.333   0.509  10.553 -2.2076  0.4779 -0.2728
   61SAPC   O21 4734   1.480   0.599  10.429  0.2240  0.1937 -0.7953
   61SAPC   C21 4735   1.548   0.489  10.406 -0.5232 -0.1628 -0.3406
   61SAPC   O22 4736   1.503   0.376  10.413  0.5270  1.1404  0.2915
   61SAPC   C22 4737   1.688   0.531  10.378 -0.0433  0.3285  0.2850
   61SAPC   H2R 4738   1.713   0.611  10.451  0.6053 -0.3203  0.7889
   61SAPC   H2S 4739   1.750   0.444  10.407  0.3944 -0.2872 -2.2083
   61SAPC    C3 4740   1.261   0.540  10.352 -0.4026 -0.3038 -0.4320
   61SAPC    HX 4741   1.155   0.530  10.384 -0.7950 -1.1806 -1.9117
   61SAPC    HY 4742   1.301   0.447  10.309  0.0950 -0.1338 -0.3401
   61SAPC   O31 4743   1.268   0.635  10.249 -0.2516 -0.2330  1.0320
   61SAPC   C31 4744   1.165   0.666  10.168  0.2081 -0.4876 -0.3025
   61SAPC   O32 4745   1.053   0.623  10.185 -0.5139  0.0667 -0.7408
   61SAPC   C32 4746   1.214   0.766  10.065  0.1063  0.2361 -0.6704
   61SAPC   H2X 4747   1.301   0.716  10.015  1.1808  0.7732  0.5980
   61SAPC   H2Y 4748   1.240   0.856  10.123  0.3665  0.1612 -0.6643
   61SAPC   C23 4749   1.728   0.593  10.240  0.4710  1.5232  0.3511
   61SAPC   H3R 4750   1.826   0.646  10.246  1.0254  0.4678  1.0299
   61SAPC   H3S 4751   1.643   0.657  10.208 -1.2084 -0.6054  0.3413
   61SAPC   C24 4752   1.749   0.482  10.131 -0.0484  0.1455  0.4852
   61SAPC   H4R 4753   1.651   0.429  10.131 -0.0295 -0.0182  3.1154
   61SAPC   H4S 4754   1.823   0.408  10.168 -0.4037 -0.0048  0.9023
   61SAPC   C25 4755   1.784   0.541   9.993 -0.0970 -0.3866  0.2171
   61SAPC   H5R 4756   1.874   0.601  10.006 -0.0282 -0.7273  1.4237
   61SAPC   C26 4757   1.722   0.524   9.873  0.2004 -0.9729 -0.5611
   61SAPC   H6R 4758   1.772   0.560   9.782  0.6424  0.1069  0.0972
   61SAPC   C27 4759   1.606   0.436   9.838  0.3412 -0.4633  0.1980
   61SAPC   H7R 4760   1.562   0.389   9.929 -2.3332  0.4099 -0.5312
   61SAPC   H7S 4761   1.654   0.347   9.793  0.2287 -0.8900  0.9045
   61SAPC   C28 4762   1.508   0.507   9.746  0.0073  0.2142 -0.3741
   61SAPC   H8R 4763   1.429   0.568   9.792  2.3575  3.0982  0.0842
   61SAPC   C29 4764   1.505   0.503   9.615 -0.6625 -0.9915 -0.1065
   61SAPC   H9R 4765   1.443   0.582   9.568  2.3500  0.5762 -1.7550
   61SAPC  C210 4766   1.598   0.439   9.513  0.6999 -1.0094  0.6873
   61SAPC  H10R 4767   1.532   0.360   9.473 -2.5468  0.8154  1.9971
   61SAPC  H10S 4768   1.683   0.395   9.570  0.8704  1.5763  2.6471
   61SAPC  C211 4769   1.629   0.542   9.403  0.2281  0.4184 -0.3224
   61SAPC  H11R 4770   1.710   0.615   9.419 -0.3542  0.8611  0.7483
   61SAPC  C212 4771   1.549   0.573   9.297  0.1843  0.1003 -0.2388
   61SAPC  H12R 4772   1.578   0.658   9.233 -0.5494 -0.7632 -1.7658
   61SAPC  C213 4773   1.423   0.504   9.267 -0.2090  0.2909  0.1172
   61SAPC  H13R 4774   1.337   0.573   9.260 -1.7549 -1.4704  1.0150
   61SAPC  H13S 4775   1.398   0.426   9.341  0.6017 -0.7221 -0.6418
   61SAPC  C214 4776   1.450   0.428   9.139  0.4513 -0.1187 -0.1712
   61SAPC  H14R 4777   1.503   0.333   9.152  1.1056  0.2985  0.3098
   61SAPC  C215 4778   1.400   0.464   9.018  0.4188 -0.7093  0.7413
   61SAPC  H15R 4779   1.422   0.407   8.926 -1.2208  0.0759 -0.1894
   61SAPC  C216 4780   1.311   0.583   8.992 -0.0740  0.1830  0.6986
   61SAPC  H16R 4781   1.230   0.593   9.067  0.0771  1.5555  0.7142
   61SAPC  H16S 4782   1.251   0.557   8.903  0.9317  0.4117 -0.0607
   61SAPC  C217 4783   1.390   0.714   8.963  0.2665  0.4276 -0.2486
   61SAPC  H17R 4784   1.470   0.700   8.887 -0.1495  1.5936 -0.9294
   61SAPC  H17S 4785   1.435   0.738   9.062 -1.6946  1.7721  0.3747
   61SAPC  C218 4786   1.300   0.831   8.917 -0.0580 -0.3603  0.3918
   61SAPC  H18R 4787   1.352   0.929   8.905  0.8253 -0.5530  2.2247
   61SAPC  H18S 4788   1.214   0.845   8.986 -1.4859 -5.5039  0.0296
   61SAPC  C219 4789   1.244   0.808   8.774  1.1883  0.9721 -0.0002
   61SAPC  H19R 4790   1.185   0.715   8.784 -0.1973  2.0555  2.7313
   61SAPC  H19S 4791   1.319   0.794   8.693  1.9577 -2.1434  1.1283
   61SAPC  C220 4792   1.147   0.920   8.739 -0.4373 -1.1587 -0.2464
   61SAPC  H20R 4793   1.090   0.892   8.648  0.9603  0.0117 -1.5363
   61SAPC  H20S 4794   1.196   1.020   8.742  0.3506 -1.3723 -3.0259
   61SAPC  H20T 4795   1.076   0.928   8.824  0.1837  0.3385  0.1721
   61SAPC   C33 4796   1.111   0.820   9.967 -0.1142  0.6921 -0.1010
   61SAPC   H3X 4797   1.019   0.858  10.016 -2.5754 -1.7825 -2.4261
   61SAPC   H3Y 4798   1.070   0.732   9.913  1.4387  1.7631 -3.2632
   61SAPC   C34 4799   1.166   0.914   9.850  0.0422 -0.0081 -0.0090
   61SAPC   H4X 4800   1.264   0.872   9.821  1.2874  1.2786  2.1000
   61SAPC   H4Y 4801   1.181   1.012   9.899  0.2659  0.0883 -0.2716
   61SAPC   C35 4802   1.069   0.922   9.729 -0.1104  0.1809  0.2865
   61SAPC   H5X 4803   0.973   0.970   9.755 -0.9427  0.0118 -2.2025
   61SAPC   H5Y 4804   1.030   0.820   9.711  0.5882 -0.4003  1.8548
   61SAPC   C36 4805   1.136   0.956   9.590  0.6263 -0.3054 -0.6776
   61SAPC   H6X 4806   1.214   0.884   9.557  1.9120  0.4181  0.6522
   61SAPC   H6Y 4807   1.192   1.052   9.597 -0.2476  0.1904 -0.4554
   61SAPC   C37 4808   1.031   0.961   9.481 -0.3923  0.8691  0.2060
   61SAPC   H7X 4809   0.955   1.038   9.507  0.0934  1.6487 -0.6377
   61SAPC   H7Y 4810   0.985   0.861   9.462 -0.0617  1.0726 -1.8904
   61SAPC   C38 4811   1.097   1.003   9.349  0.5655 -0.3655  0.5175
   61SAPC   H8X 4812   1.147   0.918   9.299  2.8817  1.0976  0.1948
   61SAPC   H8Y 4813   1.175   1.075   9.381  1.6794 -1.2696 -0.0861
   61SAPC   C39 4814   1.000   1.064   9.242 -0.1223 -0.0209  0.4303
   61SAPC   H9X 4815   0.933   1.137   9.293  1.2716  0.0971  2.1726
   61SAPC   H9Y 4816   0.943   0.982   9.193  0.3429 -0.2754  0.3137
   61SAPC  C310 4817   1.087   1.133   9.137  0.4680 -0.2617  0.2883
   61SAPC  H10X 4818   1.116   1.052   9.067 -1.7792  0.3503 -1.4880
   61SAPC  H10Y 4819   1.170   1.175   9.197 -0.9639  0.6247  1.7353
   61SAPC  C311 4820   1.006   1.241   9.063  0.2386  0.5569 -0.7107
   61SAPC  H11X 4821   0.951   1.306   9.134 -1.9432 -1.0188 -0.8506
   61SAPC  H11Y 4822   0.914   1.192   9.024 -0.6093  1.2970  0.3016
   61SAPC  C312 4823   1.074   1.301   8.950 -0.8163 -0.1375  0.0520
   61SAPC  H12X 4824   1.104   1.236   8.865  0.6303  0.6928 -0.1128
   61SAPC  H12Y 4825   1.167   1.340   8.996 -0.1258 -1.3409 -0.2800
   61SAPC  C313 4826   1.007   1.429   8.888  0.3513 -0.5805  0.0864
   61SAPC  H13X 4827   1.014   1.515   8.958  0.0904 -0.6964  0.2581
   61SAPC  H13Y 4828   0.898   1.411   8.871  0.6247 -0.3203 -2.2572
   61SAPC  C314 4829   1.067   1.485   8.758  0.3141  0.0877 -0.2794
   61SAPC  H14X 4830   1.178   1.472   8.762  0.1319 -2.1013 -1.0368
   61SAPC  H14Y 4831   1.046   1.593   8.745 -1.3975 -0.0938  0.7296
   61SAPC  C315 4832   1.026   1.405   8.632  0.0880  0.1884 -0.3779
   61SAPC  H15X 4833   0.915   1.409   8.626  0.1660  2.6427 -1.1441
   61SAPC  H15Y 4834   1.051   1.297   8.640  0.3185  0.2801  0.2800
   61SAPC  C316 4835   1.087   1.455   8.496  0.2871  0.0975  0.6715
   61SAPC  H16X 4836   1.196   1.463   8.516  0.0753  1.2835  1.4720
   61SAPC  H16Y 4837   1.054   1.556   8.462  1.3871  0.5444  0.8743
   61SAPC  C317 4838   1.083   1.349   8.384  0.5955 -0.2396 -0.2506
   61SAPC  H17X 4839   0.973   1.341   8.366  0.1350  0.7539  1.7859
   61SAPC  H17Y 4840   1.115   1.249   8.420  1.2609 -0.0686 -0.3573
   61SAPC  C318 4841   1.153   1.391   8.252 -0.3755  0.8658 -0.5510
   61SAPC  H18X 4842   1.252   1.436   8.274 -0.1416  0.1925 -0.1856
   61SAPC  H18Y 4843   1.094   1.477   8.215 -0.3669  1.5333  0.9305
   61SAPC  H18Z 4844   1.160   1.303   8.185  0.6337  0.6952 -0.2418
   62SAPC     N 4845   0.120   0.748  11.016  0.2437  0.5569 -0.3928
   62SAPC   C12 4846   0.091   0.680  10.886 -0.3431 -0.2767  0.0322
   62SAPC  H12A 4847   0.175   0.686  10.819 -0.3578  0.4564  0.0743
   62SAPC  H12B 4848   0.017   0.741  10.837 -2.1227 -1.8249  0.6742
   62SAPC   C13 4849   0.000   0.744  11.103  0.3426 -0.2097 -0.1654
   62SAPC  H13A 4850   0.026   0.781  11.201  0.8956 -3.5519  1.0687
   62SAPC  H13B 4851  -0.083   0.800  11.063 -1.5336 -2.6101  0.1432
   62SAPC  H13C 4852  -0.050   0.649  11.114 -1.7838  0.7796 -0.7879
   62SAPC   C14 4853   0.224   0.673  11.095  0.6172  0.3220 -0.0146
   62SAPC  H14A 4854   0.318   0.678  11.043 -0.2385 -1.3806 -1.8948
   62SAPC  H14B 4855   0.239   0.706  11.196  0.5576  1.8155 -0.4643
   62SAPC  H14C 4856   0.192   0.570  11.109  0.6004  0.5380  1.6691
   62SAPC   C15 4857   0.170   0.888  11.000 -1.3361  0.2588  0.2820
   62SAPC  H15A 4858   0.203   0.937  11.091  1.6002 -0.1428 -0.4623
   62SAPC  H15B 4859   0.253   0.897  10.932 -0.7640 -1.7648  0.6256
   62SAPC  H15C 4860   0.083   0.942  10.965 -0.8395 -0.1784 -1.7598
   62SAPC   C11 4861   0.038   0.530  10.878 -0.2746  0.0456 -0.4851
   62SAPC  H11A 4862  -0.071   0.527  10.855 -0.6277  2.8415  0.5182
   62SAPC  H11B 4863   0.060   0.481  10.975  1.3566  1.2509 -0.2252
   62SAPC     P 4864   0.078   0.512  10.620  0.0104  0.2062 -0.3354
   62SAPC   O13 4865   0.139   0.645  10.625  0.3917  0.1768  0.2836
   62SAPC   O14 4866   0.141   0.424  10.519  0.1609  0.0833  0.1360
   62SAPC   O12 4867   0.106   0.458  10.771  1.1818 -0.4824  0.3551
   62SAPC   O11 4868  -0.078   0.517  10.607 -0.5002 -0.4121  0.3161
   62SAPC    C1 4869  -0.168   0.410  10.582  0.7475  0.6264  0.5405
   62SAPC    HA 4870  -0.121   0.312  10.603  0.3205  0.4330  0.6013
   62SAPC    HB 4871  -0.261   0.421  10.642  0.7063 -0.6279  0.7188
   62SAPC    C2 4872  -0.218   0.404  10.432  0.7815  0.3169 -0.5730
   62SAPC    HS 4873  -0.292   0.321  10.430  1.5870 -0.4472  0.4483
   62SAPC   O21 4874  -0.115   0.377  10.338  0.9360 -0.5937 -0.6529
   62SAPC   C21 4875  -0.079   0.248  10.340  0.2330  0.1605  0.0200
   62SAPC   O22 4876  -0.121   0.160  10.412  0.0247  0.2004  0.3906
   62SAPC   C22 4877   0.032   0.237  10.235  0.4435  0.0189 -0.4501
   62SAPC   H2R 4878  -0.021   0.256  10.139 -2.5573 -2.2444  0.6108
   62SAPC   H2S 4879   0.102   0.322  10.253 -0.5352  0.8761 -0.5593
   62SAPC    C3 4880  -0.304   0.529  10.403 -0.2415 -0.1644  0.4302
   62SAPC    HX 4881  -0.258   0.629  10.416 -0.4172  0.0966 -0.8163
   62SAPC    HY 4882  -0.376   0.535  10.488 -0.5781  0.6782  0.0920
   62SAPC   O31 4883  -0.380   0.513  10.284 -0.0702  0.0015  0.6275
   62SAPC   C31 4884  -0.332   0.597  10.183 -0.1003  0.2598  0.0456
   62SAPC   O32 4885  -0.257   0.688  10.194  0.6742  0.1195 -0.1907
   62SAPC   C32 4886  -0.400   0.555  10.051 -0.0648  0.1084  0.0465
   62SAPC   H2X 4887  -0.372   0.635   9.979  4.5605 -1.7965 -0.6187
   62SAPC   H2Y 4888  -0.509   0.558  10.070  0.2037  2.0551  1.6757
   62SAPC   C23 4889   0.092   0.097  10.231 -0.0010  1.0768 -0.2438
   62SAPC   H3R 4890   0.015   0.017  10.231 -1.3959  2.3278  2.1316
   62SAPC   H3S 4891   0.169   0.078  10.308  0.4646  1.3498 -0.6375
   62SAPC   C24 4892   0.197   0.073  10.118 -0.0334 -0.7331  0.1676
   62SAPC   H4R 4893   0.256  -0.018  10.143  2.0973 -0.1119 -2.1770
   62SAPC   H4S 4894   0.268   0.157  10.105  1.7469 -2.2887 -0.6213
   62SAPC   C25 4895   0.118   0.054   9.988  0.0768  0.3247  0.7109
   62SAPC   H5R 4896   0.032  -0.014  10.002  0.5565 -0.3406  0.4590
   62SAPC   C26 4897   0.136   0.084   9.859 -0.0439 -0.0722 -0.1083
   62SAPC   H6R 4898   0.069   0.040   9.784 -0.1475 -1.3591  0.7008
   62SAPC   C27 4899   0.249   0.165   9.792  0.3879 -0.0389  0.2857
   62SAPC   H7R 4900   0.257   0.125   9.688 -2.0314 -0.7100  0.2864
   62SAPC   H7S 4901   0.347   0.144   9.838  0.0434  1.5250  1.8226
   62SAPC   C28 4902   0.232   0.316   9.790 -0.3640 -0.1309 -0.1535
   62SAPC   H8R 4903   0.259   0.372   9.881 -1.4063 -2.2107  1.5146
   62SAPC   C29 4904   0.186   0.399   9.686  0.2109 -0.1907 -0.3806
   62SAPC   H9R 4905   0.171   0.507   9.695 -1.0805 -0.3304 -0.6547
   62SAPC  C210 4906   0.134   0.342   9.555 -0.2000 -0.0207 -0.3613
   62SAPC  H10R 4907   0.038   0.396   9.539 -1.2885 -1.8640 -0.3800
   62SAPC  H10S 4908   0.108   0.235   9.570 -0.1538  0.1561  1.2151
   62SAPC  C211 4909   0.234   0.358   9.440 -0.4781 -1.0707  0.2577
   62SAPC  H11R 4910   0.338   0.347   9.474  0.8441  0.4683 -2.8951
   62SAPC  C212 4911   0.208   0.389   9.313  0.2621 -0.5574 -0.0522
   62SAPC  H12R 4912   0.286   0.377   9.236 -0.2354 -0.6444 -0.5500
   62SAPC  C213 4913   0.067   0.401   9.260 -0.0137 -0.4986  0.0822
   62SAPC  H13R 4914  -0.005   0.459   9.323 -0.3783  0.4706 -1.1926
   62SAPC  H13S 4915   0.009   0.306   9.250 -1.4090  0.4094 -0.7774
   62SAPC  C214 4916   0.069   0.458   9.124  1.1433 -0.3956  0.0922
   62SAPC  H14R 4917   0.042   0.564   9.125  0.5754 -0.5269  1.4879
   62SAPC  C215 4918   0.080   0.391   9.008 -0.2746  0.1759  0.5521
   62SAPC  H15R 4919   0.070   0.450   8.916 -1.3979 -1.5068 -0.4695
   62SAPC  C216 4920   0.088   0.249   8.976  0.2651 -0.5197  0.5927
   62SAPC  H16R 4921  -0.003   0.222   8.919  1.1492  0.0420 -1.1634
   62SAPC  H16S 4922   0.088   0.184   9.066  3.3660 -0.3553  0.8389
   62SAPC  C217 4923   0.210   0.223   8.890  0.0083  0.5177  0.0541
   62SAPC  H17R 4924   0.219   0.113   8.878 -0.6531  0.5004 -0.3181
   62SAPC  H17S 4925   0.289   0.266   8.955  1.2195 -0.6728 -0.5732
   62SAPC  C218 4926   0.217   0.287   8.752 -0.1081  0.1385  0.0043
   62SAPC  H18R 4927   0.201   0.396   8.761 -0.0182  0.1398  0.1638
   62SAPC  H18S 4928   0.129   0.249   8.696  0.0883 -0.6899  0.2314
   62SAPC  C219 4929   0.341   0.250   8.671  0.2264  0.7940  0.1109
   62SAPC  H19R 4930   0.317   0.268   8.564 -1.7394 -0.0876  0.3497
   62SAPC  H19S 4931   0.369   0.144   8.687 -0.7503  0.0960 -2.3044
   62SAPC  C220 4932   0.465   0.335   8.687  0.0555 -0.1353  0.1850
   62SAPC  H20R 4933   0.440   0.428   8.630  0.1907 -1.8305 -2.8594
   62SAPC  H20S 4934   0.539   0.272   8.634 -1.1198 -0.3684 -1.2674
   62SAPC  H20T 4935   0.483   0.346   8.796  0.8246 -2.8323  0.3817
   62SAPC   C33 4936  -0.356   0.418  10.002 -0.0853 -0.6776 -0.2232
   62SAPC   H3X 4937  -0.415   0.398   9.910 -0.9368 -0.5506  0.2812
   62SAPC   H3Y 4938  -0.389   0.332  10.065 -0.3203  0.1108  0.7468
   62SAPC   C34 4939  -0.212   0.413   9.950 -0.0286 -0.5574  0.4213
   62SAPC   H4X 4940  -0.198   0.317   9.896 -0.4944 -1.6777  2.1941
   62SAPC   H4Y 4941  -0.146   0.419  10.040  1.3752 -1.7774 -0.4982
   62SAPC   C35 4942  -0.174   0.515   9.836  0.2327  0.2265  0.2236
   62SAPC   H5X 4943  -0.068   0.505   9.802  0.1334  2.0351 -0.7225
   62SAPC   H5Y 4944  -0.178   0.610   9.894  0.2591  1.7550 -2.1239
   62SAPC   C36 4945  -0.276   0.526   9.726 -0.0882  0.0831  0.1188
   62SAPC   H6X 4946  -0.243   0.608   9.659  0.2337 -0.7185 -0.7231
   62SAPC   H6Y 4947  -0.374   0.561   9.765 -0.1405  0.0075  0.0543
   62SAPC   C37 4948  -0.292   0.401   9.641 -0.2777  0.0601 -0.3869
   62SAPC   H7X 4949  -0.361   0.330   9.691  0.0792 -0.1628 -0.2083
   62SAPC   H7Y 4950  -0.199   0.342   9.626 -1.5585 -1.8647 -1.1868
   62SAPC   C38 4951  -0.346   0.436   9.505 -0.0023  0.7343 -0.4133
   62SAPC   H8X 4952  -0.313   0.535   9.466  0.1495  0.3907 -1.1668
   62SAPC   H8Y 4953  -0.456   0.427   9.513  0.2613 -2.2137  1.5996
   62SAPC   C39 4954  -0.306   0.336   9.396 -1.2572  0.3152 -0.2125
   62SAPC   H9X 4955  -0.322   0.232   9.434  1.8795 -0.3747 -0.4709
   62SAPC   H9Y 4956  -0.196   0.348   9.380 -0.7694 -2.0000  0.9352
   62SAPC  C310 4957  -0.390   0.359   9.274  0.6288 -0.0133 -0.0398
   62SAPC  H10X 4958  -0.385   0.469   9.257  2.8875 -0.2152 -1.0665
   62SAPC  H10Y 4959  -0.499   0.345   9.294  0.9359  0.4860  2.2073
   62SAPC  C311 4960  -0.363   0.278   9.148  0.0697 -0.3815 -0.2917
   62SAPC  H11X 4961  -0.376   0.168   9.157  1.5442 -0.7345 -1.8503
   62SAPC  H11Y 4962  -0.254   0.284   9.127  0.8740 -0.6616  3.2104
   62SAPC  C312 4963  -0.451   0.324   9.034 -0.0567  0.0211  0.4325
   62SAPC  H12X 4964  -0.454   0.435   9.042 -1.4069  0.1789 -1.6295
   62SAPC  H12Y 4965  -0.558   0.301   9.053 -0.1172  0.1841  0.2923
   62SAPC  C313 4966  -0.401   0.289   8.893 -0.0584  0.4834 -0.2751
   62SAPC  H13X 4967  -0.488   0.284   8.824  0.0826 -3.6395 -0.4185
   62SAPC  H13Y 4968  -0.372   0.182   8.889  2.0644  0.8937  1.8228
   62SAPC  C314 4969  -0.283   0.367   8.842  0.3812 -0.3539 -0.3164
   62SAPC  H14X 4970  -0.197   0.332   8.903  0.8119  2.5911  0.9323
   62SAPC  H14Y 4971  -0.297   0.475   8.866 -0.3330 -0.5339  0.1028
   62SAPC  C315 4972  -0.258   0.350   8.694 -0.7010 -0.8389  0.4357
   62SAPC  H15X 4973  -0.341   0.386   8.628  1.8441  0.9134 -2.0887
   62SAPC  H15Y 4974  -0.253   0.241   8.672  4.0503 -0.3593 -2.3001
   62SAPC  C316 4975  -0.137   0.434   8.649  0.0198  0.5736  0.5256
   62SAPC  H16X 4976  -0.070   0.422   8.736 -1.9386  0.4162  2.0960
   62SAPC  H16Y 4977  -0.172   0.539   8.639 -2.8093 -0.4129 -1.0168
   62SAPC  C317 4978  -0.066   0.401   8.516 -0.0619 -0.4884  0.4590
   62SAPC  H17X 4979  -0.006   0.313   8.547 -0.7444 -0.8214  0.8718
   62SAPC  H17Y 4980   0.014   0.475   8.495 -1.0827  0.7519  0.7611
   62SAPC  C318 4981  -0.151   0.378   8.392  0.1137  0.1417  0.6687
   62SAPC  H18X 4982  -0.229   0.303   8.420  0.5627 -0.0842  1.3273
   62SAPC  H18Y 4983  -0.082   0.345   8.312 -0.6788  0.4835 -0.1846
   62SAPC  H18Z 4984  -0.193   0.478   8.367  0.4037  0.9514  3.2114
   63SAPC     N 4985   4.561   1.162   6.238 -0.0168  0.3121 -0.4382
   63SAPC   C12 4986   4.542   1.170   6.394  0.8401 -0.1279  0.7099
   63SAPC  H12A 4987   4.439   1.204   6.398  1.1921  0.9568  0.9740
   63SAPC  H12B 4988   4.609   1.247   6.431 -0.1293  1.3858 -0.5371
   63SAPC   C13 4989   4.582   1.299   6.186 -0.0629  0.3407 -0.0024
   63SAPC  H13A 4990   4.515   1.370   6.233 -0.7066 -0.0055 -0.3882
   63SAPC  H13B 4991   4.679   1.330   6.223 -0.9751  1.6237  1.4404
   63SAPC  H13C 4992   4.567   1.306   6.079  0.8716 -0.3519 -0.1858
   63SAPC   C14 4993   4.677   1.075   6.206 -0.6503  0.3430  0.7775
   63SAPC  H14A 4994   4.654   0.975   6.242 -1.0895 -0.2188 -0.9745
   63SAPC  H14B 4995   4.686   1.052   6.101 -0.7131  0.6932  0.6958
   63SAPC  H14C 4996   4.769   1.114   6.248 -1.8132  3.0890  0.9475
   63SAPC   C15 4997   4.434   1.110   6.179 -0.4333  0.3673  0.4747
   63SAPC  H15A 4998   4.388   1.036   6.243 -1.7881 -1.9130 -2.8634
   63SAPC  H15B 4999   4.370   1.196   6.168 -1.6219 -0.6688 -1.2734
   63SAPC  H15C 5000   4.452   1.074   6.078 -0.6897 -0.8600  0.8538
   63SAPC   C11 5001   4.557   1.044   6.478 -0.0705 -0.2250  0.5240
   63SAPC  H11A 5002   4.560   1.066   6.587 -1.2266 -0.1852  0.5544
   63SAPC  H11B 5003   4.650   0.990   6.450 -0.5559 -0.5056 -0.5931
   63SAPC     P 5004   4.451   0.809   6.519 -0.3226 -0.1676 -0.0515
   63SAPC   O13 5005   4.362   0.802   6.641 -0.4568  0.6171  0.1586
   63SAPC   O14 5006   4.421   0.728   6.401  0.3735 -0.2322  0.0174
   63SAPC   O12 5007   4.443   0.962   6.465  0.0710  0.1587 -0.2977
   63SAPC   O11 5008   4.596   0.789   6.571 -0.4512 -0.0634 -0.2223
   63SAPC    C1 5009   4.664   0.662   6.567 -0.2795  0.1358  0.3031
   63SAPC    HA 5010   4.593   0.576   6.567 -0.0820 -0.0824  2.1535
   63SAPC    HB 5011   4.719   0.656   6.471 -2.0667  2.2791 -0.9222
   63SAPC    C2 5012   4.765   0.656   6.689  0.4766  0.2989 -0.6068
   63SAPC    HS 5013   4.792   0.551   6.713  1.7514  1.1514  2.0858
   63SAPC   O21 5014   4.699   0.710   6.806 -0.4574  0.6318 -0.0932
   63SAPC   C21 5015   4.593   0.646   6.844 -0.5879  1.0162  0.1624
   63SAPC   O22 5016   4.568   0.524   6.817  0.4872 -0.5156 -0.7865
   63SAPC   C22 5017   4.505   0.727   6.927 -0.3540  0.4724  0.4481
   63SAPC   H2R 5018   4.566   0.774   7.007  0.2917  0.1781  0.1360
   63SAPC   H2S 5019   4.457   0.804   6.863 -0.4810 -1.2450 -1.6258
   63SAPC    C3 5020   4.896   0.728   6.647 -0.4227 -0.2946 -0.6941
   63SAPC    HX 5021   4.850   0.829   6.635 -1.4902 -0.8032 -0.9746
   63SAPC    HY 5022   4.931   0.707   6.544 -2.2850 -0.1308 -1.3868
   63SAPC   O31 5023   5.001   0.732   6.748  0.4205  0.2894 -0.2710
   63SAPC   C31 5024   5.072   0.625   6.749 -0.5330  0.0979  0.8559
   63SAPC   O32 5025   5.046   0.523   6.693 -0.1516  0.5169  0.9036
   63SAPC   C32 5026   5.200   0.659   6.830  0.2847  0.7814 -0.0595
   63SAPC   H2X 5027   5.266   0.726   6.770 -0.3178  1.3916 -0.0475
   63SAPC   H2Y 5028   5.253   0.566   6.861  0.8123  0.8291 -0.7949
   63SAPC   C23 5029   4.398   0.635   6.983  0.1434  0.5323  0.0497
   63SAPC   H3R 5030   4.459   0.554   7.029  1.0077  1.1758  0.0547
   63SAPC   H3S 5031   4.338   0.605   6.894 -0.2545  0.7923  0.2301
   63SAPC   C24 5032   4.313   0.693   7.092  0.0202 -0.6173  0.1978
   63SAPC   H4R 5033   4.272   0.790   7.053  1.5026  0.6638  1.6989
   63SAPC   H4S 5034   4.378   0.729   7.174 -1.0395  2.4820 -0.1522
   63SAPC   C25 5035   4.211   0.590   7.138 -0.2484  0.0706  0.4218
   63SAPC   H5R 5036   4.166   0.538   7.052 -0.7382  1.0858  0.0421
   63SAPC   C26 5037   4.170   0.574   7.266  0.5910 -0.4473 -0.9549
   63SAPC   H6R 5038   4.094   0.496   7.284  0.6661 -0.0718  1.2765
   63SAPC   C27 5039   4.213   0.654   7.386 -0.5549  0.3815  0.1645
   63SAPC   H7R 5040   4.315   0.694   7.372  0.5396 -2.0861  0.6592
   63SAPC   H7S 5041   4.211   0.586   7.473  0.5390  0.9299  0.6338
   63SAPC   C28 5042   4.144   0.782   7.415 -0.3309  0.0829  0.0170
   63SAPC   H8R 5043   4.117   0.838   7.324 -0.3270 -1.4889 -1.0017
   63SAPC   C29 5044   4.126   0.835   7.537 -0.0047 -0.3666 -0.1975
   63SAPC   H9R 5045   4.062   0.924   7.544 -1.5846 -1.5169  0.6497
   63SAPC  C210 5046   4.170   0.781   7.672  0.1434  0.1534  0.5056
   63SAPC  H10R 5047   4.219   0.863   7.728  0.3794 -0.0906  0.6587
   63SAPC  H10S 5048   4.237   0.694   7.654 -1.0939 -0.6854 -0.2212
   63SAPC  C211 5049   4.052   0.736   7.754  0.0133 -0.8252 -0.4019
   63SAPC  H11R 5050   3.956   0.716   7.703 -0.6739 -0.3458  0.6713
   63SAPC  C212 5051   4.049   0.692   7.877 -0.4644  0.7066  0.2238
   63SAPC  H12R 5052   3.952   0.658   7.915  0.6608 -2.1378  0.7779
   63SAPC  C213 5053   4.168   0.673   7.974  0.6315  0.2490  0.6995
   63SAPC  H13R 5054   4.268   0.671   7.926 -0.0378 -2.2217 -0.7841
   63SAPC  H13S 5055   4.158   0.564   7.995  1.6326 -0.3125 -1.4775
   63SAPC  C214 5056   4.158   0.767   8.089  0.3801 -0.3399 -0.8550
   63SAPC  H14R 5057   4.185   0.871   8.068  1.6952 -0.5413 -0.2287
   63SAPC  C215 5058   4.136   0.728   8.216  0.7711 -0.4528  0.0741
   63SAPC  H15R 5059   4.146   0.798   8.299 -3.1192  0.6575 -0.1775
   63SAPC  C216 5060   4.103   0.591   8.263  0.1126  0.0863 -0.3864
   63SAPC  H16R 5061   4.052   0.536   8.181  0.0135 -0.7625  0.2302
   63SAPC  H16S 5062   4.022   0.589   8.339 -1.0720 -0.5097 -1.6300
   63SAPC  C217 5063   4.223   0.510   8.315  0.1955 -0.4986  0.1218
   63SAPC  H17R 5064   4.289   0.580   8.370  0.0823 -0.5174  0.2825
   63SAPC  H17S 5065   4.282   0.478   8.226 -1.1121  0.0807 -0.9903
   63SAPC  C218 5066   4.191   0.381   8.383 -0.1544 -0.2514 -0.4806
   63SAPC  H18R 5067   4.113   0.321   8.332 -0.3083 -0.0612 -0.4692
   63SAPC  H18S 5068   4.152   0.412   8.482  0.3500 -0.5644 -0.1755
   63SAPC  C219 5069   4.320   0.306   8.409 -0.0405 -0.4857  0.2447
   63SAPC  H19R 5070   4.359   0.357   8.500 -2.9136  2.3323  0.0578
   63SAPC  H19S 5071   4.394   0.329   8.330  0.6930 -0.2288  0.9849
   63SAPC  C220 5072   4.318   0.163   8.428 -0.7435  0.2386  0.0201
   63SAPC  H20R 5073   4.279   0.106   8.341  0.3922 -0.5552  0.0010
   63SAPC  H20S 5074   4.260   0.133   8.518 -1.1404  1.0484  0.0349
   63SAPC  H20T 5075   4.422   0.129   8.447 -0.6023 -0.9235 -2.4247
   63SAPC   C33 5076   5.164   0.726   6.968 -0.0068 -0.0186 -0.0010
   63SAPC   H3X 5077   5.078   0.675   7.016  1.3143 -2.0705  0.3184
   63SAPC   H3Y 5078   5.145   0.833   6.950 -1.2881 -0.2586 -0.1811
   63SAPC   C34 5079   5.283   0.711   7.062  0.2422 -0.3982  0.5840
   63SAPC   H4X 5080   5.364   0.750   6.998  1.1340 -1.9847  0.6881
   63SAPC   H4Y 5081   5.312   0.604   7.066  0.3917 -0.5220 -1.9922
   63SAPC   C35 5082   5.252   0.776   7.195  0.4296 -0.1468  0.8988
   63SAPC   H5X 5083   5.159   0.732   7.238 -1.5676  0.4488 -2.4324
   63SAPC   H5Y 5084   5.217   0.880   7.176 -2.4725 -1.0840  0.6363
   63SAPC   C36 5085   5.361   0.778   7.297  0.1517  0.2346 -0.4397
   63SAPC   H6X 5086   5.440   0.834   7.244 -1.9251  0.8707 -3.0704
   63SAPC   H6Y 5087   5.387   0.671   7.307  2.0884  0.6956 -0.2355
   63SAPC   C37 5088   5.322   0.837   7.436  0.0781 -1.0335 -0.3823
   63SAPC   H7X 5089   5.389   0.808   7.520  0.2121  4.8272  2.0307
   63SAPC   H7Y 5090   5.221   0.802   7.466 -1.6973  1.3706 -3.0373
   63SAPC   C38 5091   5.321   0.998   7.436  0.5625 -0.1307  0.9187
   63SAPC   H8X 5092   5.276   1.041   7.344  2.1342  2.1555  1.1390
   63SAPC   H8Y 5093   5.428   1.020   7.414  0.4936 -1.4205 -0.9781
   63SAPC   C39 5094   5.266   1.060   7.558 -0.2214 -0.2186  0.0242
   63SAPC   H9X 5095   5.294   1.168   7.568  0.7798 -0.2880 -1.7280
   63SAPC   H9Y 5096   5.308   1.013   7.649  1.8609  1.6757  0.1325
   63SAPC  C310 5097   5.112   1.038   7.572  0.3001 -0.2239 -0.3768
   63SAPC  H10X 5098   5.070   0.937   7.557  0.3131 -0.3715  0.5204
   63SAPC  H10Y 5099   5.062   1.108   7.502 -0.1389 -1.2638 -1.1221
   63SAPC  C311 5100   5.071   1.085   7.715 -0.2324 -0.1750 -0.0202
   63SAPC  H11X 5101   5.092   1.194   7.722  1.3082 -0.4542 -0.1558
   63SAPC  H11Y 5102   5.128   1.026   7.790 -0.3044  1.8230  1.7254
   63SAPC  C312 5103   4.919   1.069   7.740 -0.8726 -0.4054  0.6969
   63SAPC  H12X 5104   4.887   0.966   7.717  0.1727 -0.7339  0.6346
   63SAPC  H12Y 5105   4.871   1.129   7.660  0.6665  0.8705  0.6779
   63SAPC  C313 5106   4.874   1.127   7.876 -0.2596 -0.3285 -0.6047
   63SAPC  H13X 5107   4.763   1.129   7.874 -0.2526  2.0678 -0.9282
   63SAPC  H13Y 5108   4.907   1.233   7.881 -0.2826 -0.2374 -2.1776
   63SAPC  C314 5109   4.918   1.061   8.009 -0.0288 -0.7439 -0.3556
   63SAPC  H14X 5110   4.877   1.124   8.090 -2.0447 -1.4606 -0.7677
   63SAPC  H14Y 5111   5.028   1.075   8.001 -0.2544 -0.0068 -3.5673
   63SAPC  C315 5112   4.881   0.913   8.011 -0.4259 -0.6365 -0.2597
   63SAPC  H15X 5113   4.896   0.858   7.916  1.3516 -1.3504  0.3878
   63SAPC  H15Y 5114   4.776   0.888   8.039 -0.2117 -2.4896 -0.9428
   63SAPC  C316 5115   4.965   0.840   8.127  0.0814  1.0043  0.8011
   63SAPC  H16X 5116   5.073   0.864   8.112  0.2981 -0.2601  0.2174
   63SAPC  H16Y 5117   4.948   0.733   8.105  1.2657  1.4448 -3.1260
   63SAPC  C317 5118   4.917   0.879   8.269 -0.1902  0.2078  0.1203
   63SAPC  H17X 5119   4.808   0.884   8.290 -0.3259  4.1230 -0.7105
   63SAPC  H17Y 5120   4.959   0.981   8.282  2.7119 -0.3920 -3.0086
   63SAPC  C318 5121   4.987   0.802   8.383 -0.3942  0.8372  0.8103
   63SAPC  H18X 5122   4.954   0.843   8.481 -2.9648 -0.4299  0.5802
   63SAPC  H18Y 5123   5.097   0.792   8.375 -0.5500  0.3793 -1.5249
   63SAPC  H18Z 5124   4.952   0.697   8.380  0.8279  0.4309 -0.5845
   64SAPC     N 5125   0.952   6.615   5.855  0.2178 -0.1939 -0.3532
   64SAPC   C12 5126   0.968   6.709   5.967  0.6970  0.1870 -0.2173
   64SAPC  H12A 5127   1.034   6.792   5.946  1.2492 -0.5153 -1.3864
   64SAPC  H12B 5128   1.016   6.648   6.042  0.5944  1.1706  0.6717
   64SAPC   C13 5129   0.914   6.678   5.722 -0.1663 -0.3045  0.3034
   64SAPC  H13A 5130   0.983   6.758   5.701 -2.2688  1.2178 -1.1775
   64SAPC  H13B 5131   0.919   6.614   5.635 -1.5790  1.9216 -1.5204
   64SAPC  H13C 5132   0.820   6.731   5.723  0.6625  1.2404 -0.4195
   64SAPC   C14 5133   1.086   6.555   5.831 -0.2427 -0.3955  0.2142
   64SAPC  H14A 5134   1.168   6.619   5.806 -1.2836  1.3625  1.1238
   64SAPC  H14B 5135   1.107   6.500   5.921  0.1706 -0.9552 -0.2152
   64SAPC  H14C 5136   1.075   6.482   5.752 -1.5647  0.9877 -0.9538
   64SAPC   C15 5137   0.851   6.508   5.880  0.2055 -0.6158 -0.1764
   64SAPC  H15A 5138   0.757   6.559   5.893  1.0283  0.7762  0.5509
   64SAPC  H15B 5139   0.851   6.426   5.810  3.3074  0.5375 -1.6937
   64SAPC  H15C 5140   0.859   6.463   5.978 -2.1497  0.1771  0.4464
   64SAPC   C11 5141   0.844   6.755   6.042  0.3105  0.0962 -0.3552
   64SAPC  H11A 5142   0.879   6.827   6.118 -3.7393 -1.5145  3.4864
   64SAPC  H11B 5143   0.806   6.667   6.098  1.8375 -0.3608 -0.0086
   64SAPC     P 5144   0.591   6.765   5.991 -0.2173 -0.4164  0.5258
   64SAPC   O13 5145   0.504   6.845   5.906  0.0192 -0.2155  0.0638
   64SAPC   O14 5146   0.578   6.617   5.967 -0.1436  0.0189 -0.3898
   64SAPC   O12 5147   0.744   6.817   5.962  0.3103  0.4496  0.3437
   64SAPC   O11 5148   0.555   6.808   6.144  0.1007  0.0127  0.3041
   64SAPC    C1 5149   0.536   6.947   6.176 -0.2961 -0.1119  0.1401
   64SAPC    HA 5150   0.621   7.012   6.146  0.1220 -0.1933  1.1031
   64SAPC    HB 5151   0.444   6.995   6.136 -0.7335 -0.5384  0.6059
   64SAPC    C2 5152   0.519   6.969   6.329 -0.2426 -0.1126 -0.9706
   64SAPC    HS 5153   0.505   7.079   6.335  0.9424 -0.0382  1.0071
   64SAPC   O21 5154   0.637   6.917   6.395  0.8338 -0.5762 -0.1680
   64SAPC   C21 5155   0.744   6.990   6.378 -0.2010  0.5174 -0.2156
   64SAPC   O22 5156   0.747   7.101   6.332 -0.3187  0.4220 -0.1879
   64SAPC   C22 5157   0.870   6.907   6.419  0.5601  0.2991  0.6181
   64SAPC   H2R 5158   0.830   6.813   6.463 -2.1183  0.7863 -0.5686
   64SAPC   H2S 5159   0.925   6.884   6.325  0.4720  0.8605  0.4299
   64SAPC    C3 5160   0.391   6.908   6.384  0.1205 -0.6189  0.5417
   64SAPC    HX 5161   0.385   6.801   6.356 -0.2393 -0.1442 -1.3467
   64SAPC    HY 5162   0.304   6.952   6.330  1.2509  0.9621 -0.0730
   64SAPC   O31 5163   0.390   6.940   6.522 -0.2096  0.3077  0.0624
   64SAPC   C31 5164   0.284   6.992   6.571 -0.4167  0.4010 -0.4367
   64SAPC   O32 5165   0.177   7.006   6.519 -0.8679  0.1739  0.0319
   64SAPC   C32 5166   0.307   7.013   6.723 -0.3898  0.4519 -0.0504
   64SAPC   H2X 5167   0.397   7.078   6.728  2.2385 -2.2684 -4.7365
   64SAPC   H2Y 5168   0.333   6.919   6.776 -0.3422 -0.3937 -1.5217
   64SAPC   C23 5169   0.959   6.983   6.521  0.2440  0.1550  0.0999
   64SAPC   H3R 5170   0.903   7.071   6.559 -0.6741 -0.7821  1.0012
   64SAPC   H3S 5171   1.055   7.027   6.486  0.0440  0.6926  0.2108
   64SAPC   C24 5172   1.003   6.885   6.629 -0.1889  0.3838  0.5805
   64SAPC   H4R 5173   1.083   6.930   6.691  1.6729  1.5687 -2.4845
   64SAPC   H4S 5174   1.047   6.792   6.586  0.5429  0.2151  1.6565
   64SAPC   C25 5175   0.894   6.827   6.716  0.5088  0.2430  0.2195
   64SAPC   H5R 5176   0.832   6.743   6.682  1.1147 -0.1822  0.1543
   64SAPC   C26 5177   0.858   6.871   6.833  0.1445  1.0437 -0.7599
   64SAPC   H6R 5178   0.783   6.808   6.883 -1.2431  0.7458 -3.0428
   64SAPC   C27 5179   0.922   6.981   6.914  0.3645  0.0769  0.3607
   64SAPC   H7R 5180   0.850   7.065   6.924 -1.1261 -1.0764 -0.4199
   64SAPC   H7S 5181   0.998   7.031   6.849  1.2499 -1.3060  0.2882
   64SAPC   C28 5182   0.993   6.937   7.039  0.0121  0.0690 -0.1366
   64SAPC   H8R 5183   1.091   6.887   7.031  0.5096  1.0759 -0.5416
   64SAPC   C29 5184   0.955   6.976   7.165  0.1502 -0.2775 -0.1412
   64SAPC   H9R 5185   1.008   6.936   7.253  0.5961 -0.2024 -0.3724
   64SAPC  C210 5186   0.827   7.061   7.196 -0.5128 -0.1298  0.0085
   64SAPC  H10R 5187   0.752   7.050   7.115  0.1238 -0.8002 -0.4936
   64SAPC  H10S 5188   0.869   7.164   7.202 -0.0574 -0.3743  1.3316
   64SAPC  C211 5189   0.748   7.035   7.325 -0.0843  0.2282  0.5195
   64SAPC  H11R 5190   0.640   7.017   7.314  0.1750 -0.6747 -0.8406
   64SAPC  C212 5191   0.799   7.058   7.447 -0.1630  0.8110  0.1653
   64SAPC  H12R 5192   0.730   7.014   7.521 -0.2506 -0.4259 -0.6262
   64SAPC  C213 5193   0.936   7.103   7.487 -0.5016  0.0097  0.8204
   64SAPC  H13R 5194   0.910   7.190   7.550 -1.4852 -0.5850  1.2476
   64SAPC  H13S 5195   0.999   7.143   7.404  2.1378 -3.1246  1.1053
   64SAPC  C214 5196   1.030   7.014   7.565 -0.4082 -0.6385 -0.9160
   64SAPC  H14R 5197   1.084   6.949   7.495 -0.6843 -1.7575 -0.1267
   64SAPC  C215 5198   1.045   6.998   7.702 -0.0374 -0.0749 -0.9986
   64SAPC  H15R 5199   1.131   6.942   7.741 -0.0801  0.4858 -0.0548
   64SAPC  C216 5200   0.967   7.067   7.808 -0.5275 -0.7124  0.0420
   64SAPC  H16R 5201   0.924   6.991   7.877  0.4833  1.6986  3.5543
   64SAPC  H16S 5202   0.875   7.120   7.775 -1.1807 -0.7876  1.6733
   64SAPC  C217 5203   1.055   7.167   7.880 -0.7191  0.7550  0.7627
   64SAPC  H17R 5204   1.074   7.251   7.810  1.7764  0.2591  0.7515
   64SAPC  H17S 5205   1.157   7.128   7.897 -1.7734 -1.8961  1.5735
   64SAPC  C218 5206   0.989   7.211   8.010 -0.8284  0.1253 -0.2432
   64SAPC  H18R 5207   0.949   7.126   8.069  2.4855 -2.8671 -1.8916
   64SAPC  H18S 5208   0.904   7.279   7.987  1.4130  3.0442 -0.5230
   64SAPC  C219 5209   1.084   7.304   8.098  0.1276 -0.2102 -0.1922
   64SAPC  H19R 5210   1.109   7.392   8.035  0.7664  0.5678  1.1069
   64SAPC  H19S 5211   1.175   7.247   8.125  0.8538  0.7213 -0.6073
   64SAPC  C220 5212   1.016   7.362   8.226 -0.3766 -0.2136  0.5218
   64SAPC  H20R 5213   0.915   7.395   8.194 -0.0148  2.2381  1.7060
   64SAPC  H20S 5214   1.075   7.442   8.275 -0.4965 -0.5585  1.2480
   64SAPC  H20T 5215   0.995   7.282   8.300 -0.3518 -0.6975  0.0149
   64SAPC   C33 5216   0.190   7.075   6.793  0.1616 -0.0481 -0.5196
   64SAPC   H3X 5217   0.091   7.050   6.750 -0.1804 -1.3471  0.9146
   64SAPC   H3Y 5218   0.202   7.186   6.790  1.0095 -0.1289 -0.3905
   64SAPC   C34 5219   0.178   7.037   6.944 -0.4478 -0.5982  0.4320
   64SAPC   H4X 5220   0.178   6.926   6.950  0.6916 -0.5722  1.2808
   64SAPC   H4Y 5221   0.085   7.080   6.987  0.2071  0.0274  1.2723
   64SAPC   C35 5222   0.299   7.079   7.034  0.0176 -0.0134 -0.2574
   64SAPC   H5X 5223   0.321   7.184   7.008 -4.2385  0.9482 -0.6663
   64SAPC   H5Y 5224   0.384   7.009   7.018 -0.1888 -0.2933 -0.1372
   64SAPC   C36 5225   0.251   7.080   7.176  0.6013  0.1966 -0.3158
   64SAPC   H6X 5226   0.223   6.976   7.205  0.5960 -0.5387 -2.7054
   64SAPC   H6Y 5227   0.168   7.152   7.190  0.9725  0.2908  1.7427
   64SAPC   C37 5228   0.365   7.122   7.276 -0.0028  0.4812 -0.2757
   64SAPC   H7X 5229   0.395   7.217   7.227  1.7448  0.3831  0.5284
   64SAPC   H7Y 5230   0.454   7.055   7.282  0.2049  0.6223 -1.5408
   64SAPC   C38 5231   0.309   7.124   7.426  0.0407  0.6438 -0.3038
   64SAPC   H8X 5232   0.277   7.020   7.446  2.6022 -0.0575  0.5831
   64SAPC   H8Y 5233   0.229   7.200   7.421  1.3835  2.1350 -0.1659
   64SAPC   C39 5234   0.424   7.160   7.522  0.3952 -0.4160 -0.0785
   64SAPC   H9X 5235   0.463   7.259   7.490  0.3570 -1.3802 -3.4210
   64SAPC   H9Y 5236   0.494   7.077   7.504  0.9604  0.1266 -0.3929
   64SAPC  C310 5237   0.388   7.170   7.672 -0.8843  1.0205  0.0190
   64SAPC  H10X 5238   0.346   7.070   7.696 -0.1390  0.1304 -2.1393
   64SAPC  H10Y 5239   0.307   7.246   7.673 -0.2666  1.7251 -1.4589
   64SAPC  C311 5240   0.505   7.211   7.756 -0.2747  0.0738 -0.3453
   64SAPC  H11X 5241   0.561   7.294   7.708 -1.1992  0.0847 -1.4722
   64SAPC  H11Y 5242   0.570   7.122   7.755 -1.4472 -0.8143 -0.4677
   64SAPC  C312 5243   0.465   7.248   7.901 -0.6264  0.8791 -0.1080
   64SAPC  H12X 5244   0.428   7.153   7.946  0.4502  0.0161 -0.9959
   64SAPC  H12Y 5245   0.381   7.319   7.892  0.4282  1.8746 -3.8793
   64SAPC  C313 5246   0.578   7.299   8.001 -0.2280  0.2685 -0.2759
   64SAPC  H13X 5247   0.615   7.384   7.941 -1.1414  1.1527  0.3887
   64SAPC  H13Y 5248   0.648   7.213   7.990 -2.2888 -1.6448  0.6967
   64SAPC  C314 5249   0.524   7.333   8.143  1.0191  0.4849 -0.0547
   64SAPC  H14X 5250   0.495   7.250   8.211 -0.3289  0.0124 -1.1666
   64SAPC  H14Y 5251   0.436   7.400   8.137  0.5921  0.3771  3.0835
   64SAPC  C315 5252   0.628   7.422   8.220 -0.4505  0.2402  0.0314
   64SAPC  H15X 5253   0.642   7.512   8.156 -4.9453 -0.4846 -2.4022
   64SAPC  H15Y 5254   0.723   7.366   8.232 -0.5125  0.0569 -0.3193
   64SAPC  C316 5255   0.574   7.484   8.353  0.5256 -0.0978 -1.3306
   64SAPC  H16X 5256   0.523   7.413   8.421 -1.8897  1.7106 -1.1088
   64SAPC  H16Y 5257   0.502   7.565   8.329  0.0604 -0.2063 -0.3501
   64SAPC  C317 5258   0.676   7.562   8.426 -0.7666 -0.3846 -0.3192
   64SAPC  H17X 5259   0.618   7.626   8.496  0.2137  2.8344 -2.2565
   64SAPC  H17Y 5260   0.719   7.636   8.356  0.7172  0.3003  1.2366
   64SAPC  C318 5261   0.793   7.487   8.498  0.6238  0.1374 -0.1787
   64SAPC  H18X 5262   0.872   7.553   8.540  0.7893 -0.7527  0.9427
   64SAPC  H18Y 5263   0.840   7.418   8.425  0.8947  1.9176 -1.7584
   64SAPC  H18Z 5264   0.752   7.424   8.579  1.0144 -1.3221 -1.0809
   65SAPC     N 5265   6.264   2.054   6.117 -0.7247 -0.8957 -0.5381
   65SAPC   C12 5266   6.160   1.988   6.201 -0.0321  0.4561  0.3530
   65SAPC  H12A 5267   6.095   2.064   6.241  0.4755  1.1535 -0.1300
   65SAPC  H12B 5268   6.217   1.942   6.281 -0.1494 -0.5679 -0.1422
   65SAPC   C13 5269   6.368   2.125   6.205  0.3908  0.7862 -0.5789
   65SAPC  H13A 5270   6.328   2.210   6.258  1.8328  0.8018  0.5509
   65SAPC  H13B 5271   6.403   2.050   6.275 -0.8350 -0.5659 -1.3477
   65SAPC  H13C 5272   6.446   2.158   6.138 -0.3115  1.3657 -1.1346
   65SAPC   C14 5273   6.341   1.964   6.028  0.3618  0.0464 -0.3515
   65SAPC  H14A 5274   6.395   1.878   6.066  2.4376 -0.8001 -4.6243
   65SAPC  H14B 5275   6.278   1.925   5.950 -3.5472  2.0902  1.5244
   65SAPC  H14C 5276   6.422   2.013   5.975  0.2054 -1.0664 -1.6788
   65SAPC   C15 5277   6.198   2.156   6.027  0.3779 -0.8417  0.4250
   65SAPC  H15A 5278   6.136   2.094   5.964 -1.3427  1.6234 -0.4342
   65SAPC  H15B 5279   6.142   2.233   6.079 -2.2205 -1.3071 -1.4597
   65SAPC  H15C 5280   6.268   2.197   5.957  0.1315 -1.2660 -0.0739
   65SAPC   C11 5281   6.067   1.877   6.139 -0.1653  0.1242  0.4072
   65SAPC  H11A 5282   5.994   1.857   6.220 -0.5949 -0.3517 -0.0895
   65SAPC  H11B 5283   6.111   1.779   6.112 -2.4947 -1.1042  0.9170
   65SAPC     P 5284   5.882   2.033   6.028 -0.1452  0.0741 -0.3265
   65SAPC   O13 5285   5.916   2.141   5.932  0.3782 -0.1211  0.0857
   65SAPC   O14 5286   5.760   1.961   5.999  0.2714  0.1608  0.4112
   65SAPC   O12 5287   6.002   1.929   6.021 -0.5925  0.2015  0.4677
   65SAPC   O11 5288   5.882   2.079   6.173  0.1532  0.0225 -0.0252
   65SAPC    C1 5289   5.768   2.150   6.222 -0.0232 -0.1641 -0.2056
   65SAPC    HA 5290   5.744   2.230   6.150 -0.3032  0.8673  1.0002
   65SAPC    HB 5291   5.679   2.084   6.225  1.0902 -1.7380 -0.4069
   65SAPC    C2 5292   5.778   2.215   6.365  0.4111  0.0090  0.6673
   65SAPC    HS 5293   5.862   2.288   6.360  0.7461 -0.4280 -0.6202
   65SAPC   O21 5294   5.817   2.107   6.460  0.1152 -0.2940  0.1870
   65SAPC   C21 5295   5.943   2.076   6.462  0.2677  0.3680  1.0656
   65SAPC   O22 5296   6.033   2.127   6.392  0.2907  0.0061  0.4923
   65SAPC   C22 5297   5.960   1.959   6.558  0.0527  0.5162  0.0589
   65SAPC   H2R 5298   5.915   1.988   6.655  1.6855  0.8860  0.7455
   65SAPC   H2S 5299   5.914   1.872   6.507  1.1022 -2.2601  3.5029
   65SAPC    C3 5300   5.644   2.270   6.405  0.1568 -0.3262 -0.3433
   65SAPC    HX 5301   5.576   2.182   6.401  1.3694 -1.2779 -1.0018
   65SAPC    HY 5302   5.611   2.343   6.328  3.1490  2.1277  0.5118
   65SAPC   O31 5303   5.635   2.329   6.533 -0.0047 -0.3777 -0.1102
   65SAPC   C31 5304   5.707   2.445   6.542 -0.1658 -0.2683  0.2455
   65SAPC   O32 5305   5.759   2.501   6.448  0.2710 -0.1672  0.3876
   65SAPC   C32 5306   5.700   2.501   6.685 -0.3279  0.1821  0.1089
   65SAPC   H2X 5307   5.758   2.432   6.751  0.1778 -0.1838 -0.6969
   65SAPC   H2Y 5308   5.594   2.507   6.717 -0.5600 -1.4421 -0.2670
   65SAPC   C23 5309   6.108   1.932   6.579 -0.1355 -0.1069 -0.4562
   65SAPC   H3R 5310   6.150   2.032   6.601  1.9520 -0.7363 -1.3015
   65SAPC   H3S 5311   6.155   1.888   6.488  0.5413 -1.9977  0.7672
   65SAPC   C24 5312   6.131   1.837   6.701 -0.6986  0.8472 -1.0526
   65SAPC   H4R 5313   6.057   1.754   6.690 -0.5597  0.8179 -1.8667
   65SAPC   H4S 5314   6.102   1.892   6.793  0.3711 -0.3536  0.0462
   65SAPC   C25 5315   6.273   1.784   6.704  0.2436  0.0035 -0.4613
   65SAPC   H5R 5316   6.295   1.710   6.626 -0.4325  0.4218 -1.0630
   65SAPC   C26 5317   6.371   1.815   6.792 -0.0868 -0.6778 -0.0670
   65SAPC   H6R 5318   6.469   1.767   6.780  0.7765  0.9254  0.3314
   65SAPC   C27 5319   6.359   1.902   6.912 -0.2535 -0.1718 -0.9706
   65SAPC   H7R 5320   6.260   1.887   6.960  0.6624 -0.4014  0.9613
   65SAPC   H7S 5321   6.353   2.008   6.879  1.7858  0.0819 -0.6656
   65SAPC   C28 5322   6.476   1.894   7.009  0.7318  0.8671  0.6476
   65SAPC   H8R 5323   6.570   1.884   6.953 -0.1812  1.5802 -1.1060
   65SAPC   C29 5324   6.468   1.897   7.144  0.0539  1.0001 -0.4216
   65SAPC   H9R 5325   6.557   1.868   7.202 -0.7742 -1.8489 -0.4372
   65SAPC  C210 5326   6.350   1.905   7.237  0.0074 -0.2299 -0.3312
   65SAPC  H10R 5327   6.262   1.963   7.201 -0.8658 -0.4310  1.3693
   65SAPC  H10S 5328   6.375   1.971   7.324  1.1057 -2.9997  1.6200
   65SAPC  C211 5329   6.299   1.772   7.277  0.0697 -0.9129  0.4975
   65SAPC  H11R 5330   6.232   1.725   7.203  0.3088  0.5347 -0.6808
   65SAPC  C212 5331   6.330   1.717   7.395  0.6144 -0.4908 -0.5532
   65SAPC  H12R 5332   6.284   1.620   7.419  1.2234 -1.2743 -2.3497
   65SAPC  C213 5333   6.417   1.778   7.498 -0.1506 -0.4171 -0.7594
   65SAPC  H13R 5334   6.502   1.837   7.456 -0.1358 -0.5532 -0.9211
   65SAPC  H13S 5335   6.462   1.694   7.555 -3.1413  0.0187  2.5998
   65SAPC  C214 5336   6.343   1.861   7.603  0.0333 -0.0325  0.4502
   65SAPC  H14R 5337   6.346   1.968   7.579  1.6081 -0.1860 -0.1569
   65SAPC  C215 5338   6.285   1.829   7.719  0.3330  0.7733  0.2847
   65SAPC  H15R 5339   6.247   1.909   7.784 -1.0375  1.8769 -1.7426
   65SAPC  C216 5340   6.280   1.686   7.768  0.4903  0.1698 -0.8611
   65SAPC  H16R 5341   6.380   1.667   7.813  0.3089 -1.4577 -1.0730
   65SAPC  H16S 5342   6.281   1.609   7.688 -0.6436 -2.1799  1.2471
   65SAPC  C217 5343   6.175   1.649   7.882  0.6002  0.4957 -0.6306
   65SAPC  H17R 5344   6.208   1.553   7.927 -0.7526  1.2433  2.1868
   65SAPC  H17S 5345   6.082   1.627   7.825  1.1930 -1.4323 -0.9093
   65SAPC  C218 5346   6.159   1.756   7.996 -0.4249 -1.0597  0.6339
   65SAPC  H18R 5347   6.160   1.862   7.963  1.6482 -1.0230  0.7126
   65SAPC  H18S 5348   6.238   1.749   8.074 -0.8323  2.3256  1.5236
   65SAPC  C219 5349   6.018   1.736   8.063 -0.2238  0.1229  0.1315
   65SAPC  H19R 5350   6.017   1.633   8.107  2.1525 -0.2742 -0.5891
   65SAPC  H19S 5351   5.933   1.737   7.992  0.9186 -2.1075 -1.3788
   65SAPC  C220 5352   6.002   1.843   8.172 -0.5982  0.0453  0.1520
   65SAPC  H20R 5353   5.902   1.838   8.220 -0.6356 -0.0028  0.0692
   65SAPC  H20S 5354   6.016   1.941   8.123  0.1261 -0.1158  0.0178
   65SAPC  H20T 5355   6.081   1.841   8.251 -1.1943  0.5737  0.7763
   65SAPC   C33 5356   5.769   2.637   6.714  0.0317 -0.2101  0.5965
   65SAPC   H3X 5357   5.719   2.710   6.648  1.1062  0.0682  0.0600
   65SAPC   H3Y 5358   5.879   2.629   6.699 -0.0078  0.7892 -0.3424
   65SAPC   C34 5359   5.737   2.686   6.854 -0.0815  0.1584 -0.2264
   65SAPC   H4X 5360   5.641   2.649   6.896  2.0414 -2.8740  2.3927
   65SAPC   H4Y 5361   5.727   2.797   6.855  0.3173  0.2375  2.8659
   65SAPC   C35 5362   5.842   2.641   6.957  0.3714 -0.3968  0.7542
   65SAPC   H5X 5363   5.936   2.684   6.916 -1.1924 -0.2572 -3.1964
   65SAPC   H5Y 5364   5.855   2.531   6.958 -0.3549 -0.5370 -0.9533
   65SAPC   C36 5365   5.812   2.690   7.102  0.3711  0.3247  0.5005
   65SAPC   H6X 5366   5.721   2.646   7.147  0.9338  0.2973  1.6548
   65SAPC   H6Y 5367   5.791   2.799   7.102 -2.1852 -0.1081  0.5421
   65SAPC   C37 5368   5.933   2.667   7.198 -0.1147  0.8572  0.2121
   65SAPC   H7X 5369   5.927   2.706   7.302  1.1793 -2.3488  1.6239
   65SAPC   H7Y 5370   6.020   2.715   7.148 -1.7439  0.5689 -3.1962
   65SAPC   C38 5371   5.976   2.517   7.208 -0.0628 -1.3869  0.5121
   65SAPC   H8X 5372   6.079   2.508   7.249 -0.3789 -0.3450  1.6064
   65SAPC   H8Y 5373   5.988   2.474   7.106 -1.8430 -1.3515  0.2552
   65SAPC   C39 5374   5.876   2.426   7.284  0.2794  0.1017 -0.1647
   65SAPC   H9X 5375   5.921   2.324   7.288  0.6808  0.2245 -1.1002
   65SAPC   H9Y 5376   5.784   2.415   7.222 -0.0042 -0.6118  0.3608
   65SAPC  C310 5377   5.850   2.478   7.431 -0.4343 -0.0148 -0.3965
   65SAPC  H10X 5378   5.809   2.581   7.424  1.5944  0.9254  0.5256
   65SAPC  H10Y 5379   5.942   2.494   7.492 -1.2716 -1.5477  1.3727
   65SAPC  C311 5380   5.747   2.393   7.504 -0.0511 -0.3342  0.1709
   65SAPC  H11X 5381   5.772   2.285   7.507  1.8117  0.0089 -1.4803
   65SAPC  H11Y 5382   5.652   2.400   7.446 -0.1622  2.0195  0.5385
   65SAPC  C312 5383   5.726   2.444   7.650  0.2256  0.4148 -0.1052
   65SAPC  H12X 5384   5.701   2.552   7.658 -3.5555 -0.2628 -0.7570
   65SAPC  H12Y 5385   5.820   2.428   7.705  0.7418 -1.1386 -1.3579
   65SAPC  C313 5386   5.605   2.375   7.711  0.6114  0.2292 -0.1787
   65SAPC  H13X 5387   5.610   2.265   7.693  3.8238  0.4857 -1.4342
   65SAPC  H13Y 5388   5.516   2.419   7.661  1.2882  1.7062 -0.1224
   65SAPC  C314 5389   5.583   2.418   7.858 -0.2932  0.1653  1.1388
   65SAPC  H14X 5390   5.579   2.528   7.851 -1.4073  0.1624  1.5500
   65SAPC  H14Y 5391   5.673   2.379   7.911  0.5520  0.0138 -0.3516
   65SAPC  C315 5392   5.459   2.352   7.910 -0.1600 -0.4736 -0.7711
   65SAPC  H15X 5393   5.458   2.241   7.905 -1.2365 -0.5320  0.2945
   65SAPC  H15Y 5394   5.372   2.403   7.864  0.5968  2.1427  0.5293
   65SAPC  C316 5395   5.448   2.377   8.067 -0.4344  0.0420  0.1412
   65SAPC  H16X 5396   5.436   2.484   8.092 -0.9861 -0.0819  0.4210
   65SAPC  H16Y 5397   5.540   2.346   8.122  0.7724  1.6539 -0.8676
   65SAPC  C317 5398   5.325   2.309   8.123  0.5194 -0.7522 -0.5908
   65SAPC  H17X 5399   5.249   2.331   8.045  1.3469  4.1026 -0.3421
   65SAPC  H17Y 5400   5.289   2.374   8.205  2.5225 -0.4838  0.1179
   65SAPC  C318 5401   5.346   2.170   8.184  0.7069 -0.2048  0.1840
   65SAPC  H18X 5402   5.413   2.112   8.118 -0.9361  0.7802 -2.5001
   65SAPC  H18Y 5403   5.246   2.123   8.194 -0.1485  1.6144  0.5964
   65SAPC  H18Z 5404   5.400   2.182   8.280  1.4677 -1.5913 -0.0427
   66SAPC     N 5405   6.051   0.931   5.799 -0.0766 -0.1343 -0.4333
   66SAPC   C12 5406   6.051   1.087   5.804 -0.3192  0.0585  0.5770
   66SAPC  H12A 5407   5.961   1.130   5.763  0.6715  0.8610 -0.8896
   66SAPC  H12B 5408   6.126   1.114   5.731  1.3097  1.5792  2.6570
   66SAPC   C13 5409   6.020   0.882   5.661 -0.5507  0.3199  0.1210
   66SAPC  H13A 5410   5.924   0.908   5.620 -0.0664  0.2618 -1.0908
   66SAPC  H13B 5411   6.098   0.919   5.596  0.5001 -0.8228  0.6809
   66SAPC  H13C 5412   6.011   0.774   5.666 -0.2913  0.2356 -0.9653
   66SAPC   C14 5413   6.174   0.873   5.848 -0.0665 -0.1618 -0.0692
   66SAPC  H14A 5414   6.175   0.766   5.832 -1.0882 -0.3836  1.1723
   66SAPC  H14B 5415   6.257   0.908   5.789 -0.8835  1.5718 -0.2491
   66SAPC  H14C 5416   6.191   0.898   5.951  0.4171 -1.0317  0.0682
   66SAPC   C15 5417   5.934   0.879   5.884 -0.0421  0.4127  0.0884
   66SAPC  H15A 5418   5.940   0.924   5.982 -1.9926  1.7661 -0.3496
   66SAPC  H15B 5419   5.842   0.911   5.838 -0.5178 -0.7514  0.1676
   66SAPC  H15C 5420   5.938   0.771   5.884  1.2366  0.4187  1.4522
   66SAPC   C11 5421   6.092   1.170   5.930 -0.3830  0.3623  0.3853
   66SAPC  H11A 5422   6.011   1.156   6.005 -0.5319 -0.1329  0.1335
   66SAPC  H11B 5423   6.097   1.276   5.897 -1.4904 -0.0852 -1.3704
   66SAPC     P 5424   6.358   1.176   5.961  0.1746 -0.4093 -0.2112
   66SAPC   O13 5425   6.470   1.092   6.003 -0.4199  0.9216  0.6735
   66SAPC   O14 5426   6.362   1.214   5.818 -0.0238  0.0706 -0.0604
   66SAPC   O12 5427   6.213   1.115   5.995  0.3911 -0.2217  0.1824
   66SAPC   O11 5428   6.357   1.305   6.038 -0.6480  0.2458 -0.2963
   66SAPC    C1 5429   6.365   1.314   6.186 -0.4462  0.0529  0.8463
   66SAPC    HA 5430   6.435   1.237   6.222  1.3375  1.4000  0.3814
   66SAPC    HB 5431   6.420   1.407   6.210 -0.3397  0.3709 -0.5346
   66SAPC    C2 5432   6.231   1.313   6.267  0.0020 -0.3049 -0.4185
   66SAPC    HS 5433   6.170   1.235   6.216  0.0237 -0.0336 -0.8619
   66SAPC   O21 5434   6.167   1.444   6.255  0.5307  0.4341  0.0668
   66SAPC   C21 5435   6.046   1.428   6.316 -0.4412 -1.7091 -0.0084
   66SAPC   O22 5436   5.996   1.326   6.351 -0.2257 -0.1849  0.3309
   66SAPC   C22 5437   5.996   1.578   6.346  0.1107 -0.0968  0.3706
   66SAPC   H2R 5438   6.073   1.622   6.413  0.9466  0.6623 -1.0243
   66SAPC   H2S 5439   6.010   1.639   6.255 -1.5746  0.3771  0.3947
   66SAPC    C3 5440   6.265   1.254   6.409  0.9782 -0.4612  0.1425
   66SAPC    HX 5441   6.301   1.151   6.387 -0.3066 -0.4588 -2.3753
   66SAPC    HY 5442   6.177   1.245   6.477 -1.9597  1.1616 -3.1179
   66SAPC   O31 5443   6.379   1.325   6.465 -0.2430  0.3906 -0.2571
   66SAPC   C31 5444   6.349   1.427   6.541 -0.9070  0.3053 -0.1997
   66SAPC   O32 5445   6.238   1.473   6.559  0.4411 -0.1682 -0.8575
   66SAPC   C32 5446   6.480   1.478   6.600 -0.6130  0.0825  0.7534
   66SAPC   H2X 5447   6.483   1.586   6.575 -0.7078 -0.3287 -1.1425
   66SAPC   H2Y 5448   6.559   1.420   6.548 -1.1192 -0.3387  0.4451
   66SAPC   C23 5449   5.848   1.605   6.390 -0.7339 -0.1231  0.2382
   66SAPC   H3R 5450   5.777   1.562   6.315  1.1496 -0.6139 -1.3438
   66SAPC   H3S 5451   5.832   1.715   6.393  3.8618  0.7363  0.6732
   66SAPC   C24 5452   5.827   1.534   6.525 -0.1399 -0.0554 -0.7085
   66SAPC   H4R 5453   5.893   1.576   6.604 -0.3204  1.6298 -1.4063
   66SAPC   H4S 5454   5.852   1.426   6.522  0.8937  0.1481 -0.0400
   66SAPC   C25 5455   5.687   1.549   6.572 -0.3141  0.1228  0.6296
   66SAPC   H5R 5456   5.612   1.486   6.523  1.9662 -1.2062 -1.3749
   66SAPC   C26 5457   5.640   1.637   6.666  0.0971  0.4727  0.2602
   66SAPC   H6R 5458   5.532   1.634   6.688  0.5324  1.1628  2.8078
   66SAPC   C27 5459   5.707   1.734   6.755 -0.2186 -0.4175 -0.0989
   66SAPC   H7R 5460   5.672   1.836   6.729 -2.9734 -1.2897 -0.2330
   66SAPC   H7S 5461   5.818   1.728   6.753 -0.2595 -1.2608 -0.2623
   66SAPC   C28 5462   5.658   1.721   6.901 -0.0115 -0.0196 -0.1384
   66SAPC   H8R 5463   5.562   1.766   6.930  1.4018  1.6832  2.2342
   66SAPC   C29 5464   5.741   1.699   7.003  0.2562  0.1812  0.0982
   66SAPC   H9R 5465   5.693   1.695   7.102  0.1990  0.7572  0.0967
   66SAPC  C210 5466   5.887   1.683   6.995 -0.3854 -0.1544  0.4530
   66SAPC  H10R 5467   5.938   1.782   6.996  0.0500 -0.3334 -1.0654
   66SAPC  H10S 5468   5.911   1.633   6.898 -0.7046 -0.7320  0.6638
   66SAPC  C211 5469   5.944   1.608   7.114 -0.1296  0.0825  0.1336
   66SAPC  H11R 5470   6.003   1.521   7.082  4.7845  2.4955  1.6472
   66SAPC  C212 5471   5.953   1.646   7.243  0.4135 -0.6760 -0.4734
   66SAPC  H12R 5472   6.005   1.588   7.321 -2.0582 -0.6569  1.3012
   66SAPC  C213 5473   5.889   1.777   7.292 -0.0555  0.9614 -0.6010
   66SAPC  H13R 5474   5.789   1.761   7.338  1.4812  0.3632  2.8387
   66SAPC  H13S 5475   5.882   1.848   7.207 -2.0062 -1.5136 -2.6932
   66SAPC  C214 5476   5.973   1.831   7.399  0.5966  0.2077  0.4258
   66SAPC  H14R 5477   6.064   1.877   7.358  0.1507  0.1794 -0.6204
   66SAPC  C215 5478   5.944   1.848   7.528  0.1689  0.3138 -0.5686
   66SAPC  H15R 5479   6.026   1.902   7.578  0.4279 -0.1500 -0.4892
   66SAPC  C216 5480   5.815   1.819   7.595 -0.0408 -0.2965  0.1864
   66SAPC  H16R 5481   5.836   1.761   7.687  1.0071 -1.8386 -0.9872
   66SAPC  H16S 5482   5.744   1.756   7.538  0.8347 -0.9163 -0.2358
   66SAPC  C217 5483   5.753   1.953   7.627  0.2439 -0.1943  0.9388
   66SAPC  H17R 5484   5.754   2.018   7.537 -0.3441 -0.7019  0.5578
   66SAPC  H17S 5485   5.814   2.014   7.697 -0.2435  1.6328 -0.1712
   66SAPC  C218 5486   5.607   1.948   7.677 -0.6223 -0.2058  0.3264
   66SAPC  H18R 5487   5.563   1.856   7.632  1.9355 -1.1017 -0.5202
   66SAPC  H18S 5488   5.550   2.034   7.635  0.3997  0.1498 -0.3792
   66SAPC  C219 5489   5.592   1.953   7.836 -0.1280  0.2328  1.0407
   66SAPC  H19R 5490   5.565   2.053   7.876  0.0462  0.0564  1.6137
   66SAPC  H19S 5491   5.689   1.939   7.889 -0.3411  1.5951  1.8323
   66SAPC  C220 5492   5.491   1.848   7.891 -0.3528 -0.7256 -0.0336
   66SAPC  H20R 5493   5.498   1.844   8.002  4.9325  1.0374 -0.0233
   66SAPC  H20S 5494   5.524   1.747   7.859  0.5214  0.3250 -2.7228
   66SAPC  H20T 5495   5.391   1.864   7.845  0.4583 -0.0923 -1.6760
   66SAPC   C33 5496   6.487   1.464   6.750  0.4265 -0.1792 -0.5224
   66SAPC   H3X 5497   6.448   1.364   6.775 -0.1263 -0.2153 -1.4760
   66SAPC   H3Y 5498   6.408   1.535   6.782  2.0287  2.1827 -1.4319
   66SAPC   C34 5499   6.613   1.507   6.825 -0.0260 -0.1918 -0.1173
   66SAPC   H4X 5500   6.646   1.602   6.778  0.6301  1.4981  3.4461
   66SAPC   H4Y 5501   6.694   1.431   6.817 -0.8142 -1.0063 -0.5775
   66SAPC   C35 5502   6.594   1.532   6.978  0.0699 -0.1949  1.0851
   66SAPC   H5X 5503   6.502   1.591   6.994 -0.4015 -0.4934 -0.3588
   66SAPC   H5Y 5504   6.685   1.588   7.010 -0.2153  0.9366 -0.0272
   66SAPC   C36 5505   6.587   1.408   7.061  0.5628  0.5875 -0.1011
   66SAPC   H6X 5506   6.683   1.354   7.068  0.6648  0.9445  3.5934
   66SAPC   H6Y 5507   6.527   1.324   7.019  0.6562  1.3363 -1.7935
   66SAPC   C37 5508   6.547   1.422   7.207  0.2725 -0.8404 -0.0652
   66SAPC   H7X 5509   6.527   1.324   7.256 -0.5918 -0.4762  0.3338
   66SAPC   H7Y 5510   6.457   1.486   7.210 -0.6331 -2.0821 -0.1077
   66SAPC   C38 5511   6.661   1.488   7.286  0.1613  0.4022 -0.2905
   66SAPC   H8X 5512   6.638   1.596   7.268 -1.5249  0.1155  0.0199
   66SAPC   H8Y 5513   6.758   1.459   7.239  0.0444  0.6642 -0.7015
   66SAPC   C39 5514   6.655   1.452   7.436 -0.3016 -0.2901 -0.1898
   66SAPC   H9X 5515   6.673   1.343   7.445  2.1894  0.1391  1.1001
   66SAPC   H9Y 5516   6.559   1.483   7.482  0.0371  0.3287  0.1193
   66SAPC  C310 5517   6.773   1.512   7.512  0.4640  0.3697 -0.2838
   66SAPC  H10X 5518   6.739   1.617   7.520 -1.2331 -0.2158  0.8698
   66SAPC  H10Y 5519   6.865   1.509   7.450  0.6321  1.7350 -0.1290
   66SAPC  C311 5520   6.805   1.458   7.654  0.0536 -0.6358 -0.4092
   66SAPC  H11X 5521   6.900   1.514   7.671 -0.2563 -0.1886 -0.1141
   66SAPC  H11Y 5522   6.813   1.348   7.663  4.8358 -0.4700 -0.0691
   66SAPC  C312 5523   6.708   1.504   7.768  0.4199  0.5978  0.4753
   66SAPC  H12X 5524   6.617   1.443   7.750  0.7011  0.6181 -1.2020
   66SAPC  H12Y 5525   6.672   1.608   7.749 -1.4645 -0.0202  0.4330
   66SAPC  C313 5526   6.751   1.494   7.916  0.3919 -0.4283  0.2793
   66SAPC  H13X 5527   6.820   1.577   7.943 -2.1042  2.7002 -2.1978
   66SAPC  H13Y 5528   6.807   1.401   7.938 -0.7283 -1.3623 -0.7170
   66SAPC  C314 5529   6.623   1.501   8.005  0.4114 -0.4202 -0.0916
   66SAPC  H14X 5530   6.549   1.425   7.973 -0.3164 -0.0884  0.7508
   66SAPC  H14Y 5531   6.581   1.603   7.990  0.2786 -0.7563 -2.2901
   66SAPC  C315 5532   6.646   1.479   8.154  0.2313  0.1828  0.4447
   66SAPC  H15X 5533   6.706   1.569   8.175 -1.1018  1.0337  0.7182
   66SAPC  H15Y 5534   6.711   1.389   8.165  2.7955  1.9452  0.4126
   66SAPC  C316 5535   6.511   1.479   8.234  0.0608 -0.3683  0.5222
   66SAPC  H16X 5536   6.442   1.403   8.192  1.5393 -1.1642 -0.5534
   66SAPC  H16Y 5537   6.466   1.580   8.225  0.7858  0.3094  3.4849
   66SAPC  C317 5538   6.526   1.465   8.387 -0.2788 -0.1299  0.6160
   66SAPC  H17X 5539   6.555   1.358   8.398 -1.5553 -0.6953 -1.1248
   66SAPC  H17Y 5540   6.430   1.491   8.436  0.1980  1.5948  0.7016
   66SAPC  C318 5541   6.631   1.556   8.449 -0.0230 -0.7883  0.7684
   66SAPC  H18X 5542   6.722   1.550   8.385 -0.8059  0.2654 -0.4963
   66SAPC  H18Y 5543   6.647   1.532   8.556 -0.4408 -0.0343  1.0068
   66SAPC  H18Z 5544   6.595   1.661   8.446  1.0834 -0.3521  1.9783
   67SAPC     N 5545   0.136   3.821   6.241  0.2251  0.1057  0.5600
   67SAPC   C12 5546   0.183   3.757   6.369 -0.2121  0.2043  0.4463
   67SAPC  H12A 5547   0.251   3.827   6.415  0.7767  1.7313 -3.0424
   67SAPC  H12B 5548   0.250   3.674   6.351 -0.0513 -0.5333  3.7008
   67SAPC   C13 5549   0.052   3.727   6.154  0.0164 -0.3109 -0.1044
   67SAPC  H13A 5550   0.039   3.750   6.049 -2.3149 -3.2406 -0.5836
   67SAPC  H13B 5551   0.101   3.631   6.151  1.5462  0.4652 -2.2168
   67SAPC  H13C 5552  -0.049   3.724   6.191  0.0686 -0.3600  0.0338
   67SAPC   C14 5553   0.057   3.946   6.260 -0.2293 -0.1392 -1.0254
   67SAPC  H14A 5554   0.104   4.006   6.337 -0.0543 -2.3054  0.6316
   67SAPC  H14B 5555   0.055   4.001   6.167  2.6457 -1.1122 -1.7419
   67SAPC  H14C 5556  -0.043   3.918   6.291  1.0537 -2.8044  1.1576
   67SAPC   C15 5557   0.256   3.850   6.155  0.3954 -0.0779 -0.2003
   67SAPC  H15A 5558   0.209   3.897   6.070 -0.4723 -0.2991  0.1404
   67SAPC  H15B 5559   0.328   3.916   6.200  0.3673  0.0408 -0.3268
   67SAPC  H15C 5560   0.307   3.760   6.124 -0.4607 -1.2947  1.7240
   67SAPC   C11 5561   0.076   3.714   6.479  0.5113 -0.4202  0.4214
   67SAPC  H11A 5562   0.123   3.655   6.561  0.1204 -2.4092 -0.7195
   67SAPC  H11B 5563   0.006   3.645   6.428 -1.2563  1.1959  0.5382
   67SAPC     P 5564   0.048   3.922   6.647  0.0288  0.3928  0.0950
   67SAPC   O13 5565   0.173   3.874   6.717  0.4466 -0.2589 -0.2456
   67SAPC   O14 5566   0.066   4.055   6.586 -0.5679  0.5710  0.1993
   67SAPC   O12 5567   0.007   3.832   6.523 -0.2793  0.1310  0.3088
   67SAPC   O11 5568  -0.068   3.929   6.752 -0.0315  0.6206  0.0520
   67SAPC    C1 5569  -0.171   3.828   6.770  0.1635  0.1309 -0.1370
   67SAPC    HA 5570  -0.256   3.891   6.803  0.4662 -0.4501  1.8791
   67SAPC    HB 5571  -0.200   3.775   6.677  1.6245  0.3436 -0.7388
   67SAPC    C2 5572  -0.140   3.733   6.887  0.8294 -0.0782  0.1718
   67SAPC    HS 5573  -0.235   3.679   6.905  0.1179  0.6122 -1.3762
   67SAPC   O21 5574  -0.093   3.811   7.004  0.0333 -0.3066  0.7880
   67SAPC   C21 5575  -0.181   3.887   7.055  0.4174 -0.4205 -0.5458
   67SAPC   O22 5576  -0.301   3.890   7.031  0.1862  0.3318  0.0893
   67SAPC   C22 5577  -0.102   3.996   7.134 -0.5578  0.1880 -0.1857
   67SAPC   H2R 5578  -0.003   4.000   7.083 -0.9202 -0.2211 -0.9424
   67SAPC   H2S 5579  -0.142   4.097   7.113  2.0745  0.8836 -2.4902
   67SAPC    C3 5580  -0.027   3.630   6.854 -0.2032 -0.5515 -0.0730
   67SAPC    HX 5581   0.061   3.683   6.813  0.4897 -0.8959  0.9549
   67SAPC    HY 5582  -0.066   3.564   6.774 -0.4869 -0.0815 -0.3283
   67SAPC   O31 5583   0.006   3.544   6.969  0.3195 -0.1194 -0.4142
   67SAPC   C31 5584   0.081   3.592   7.064  0.5472 -0.0670  0.2107
   67SAPC   O32 5585   0.150   3.695   7.065  0.2583  0.0928  0.4625
   67SAPC   C32 5586   0.079   3.494   7.179  0.6148 -0.3420 -0.0132
   67SAPC   H2X 5587   0.047   3.395   7.139 -0.1043 -0.1504  0.0659
   67SAPC   H2Y 5588   0.025   3.530   7.269  0.9733  0.6905 -0.1991
   67SAPC   C23 5589  -0.082   3.972   7.287 -0.3697 -0.2003  0.4212
   67SAPC   H3R 5590  -0.182   3.942   7.325 -1.2897 -0.2782 -1.8962
   67SAPC   H3S 5591  -0.053   4.066   7.338  2.0519 -1.3612  1.3263
   67SAPC   C24 5592   0.031   3.872   7.314  0.2365  0.8208  0.8017
   67SAPC   H4R 5593   0.132   3.906   7.283  1.0217 -0.2180  2.1199
   67SAPC   H4S 5594   0.008   3.782   7.253 -0.6661  0.6031  1.4365
   67SAPC   C25 5595   0.017   3.841   7.465  0.9521 -0.1365  0.7646
   67SAPC   H5R 5596  -0.089   3.833   7.494  0.0102  1.3897 -1.9401
   67SAPC   C26 5597   0.113   3.851   7.557 -0.6598 -0.7126  0.3368
   67SAPC   H6R 5598   0.089   3.808   7.656 -0.8585 -0.8684  0.2214
   67SAPC   C27 5599   0.259   3.882   7.530  0.2399 -0.6916  0.0009
   67SAPC   H7R 5600   0.274   3.919   7.426  0.2489  1.3665  0.6970
   67SAPC   H7S 5601   0.321   3.792   7.551  0.4337 -1.1493 -2.2289
   67SAPC   C28 5602   0.317   3.979   7.627 -0.0288  0.1084 -0.3078
   67SAPC   H8R 5603   0.364   3.941   7.719 -0.7588  2.3736  1.0781
   67SAPC   C29 5604   0.306   4.116   7.619 -0.3129 -0.1971  0.1385
   67SAPC   H9R 5605   0.339   4.175   7.705 -3.2068 -1.3817  2.1853
   67SAPC  C210 5606   0.245   4.200   7.507  0.4693 -0.4566  0.5834
   67SAPC  H10R 5607   0.183   4.277   7.557  0.4629  1.0684 -1.6420
   67SAPC  H10S 5608   0.182   4.133   7.444 -1.1429  0.2406  1.3980
   67SAPC  C211 5609   0.357   4.266   7.425  0.1221  1.1097 -0.4649
   67SAPC  H11R 5610   0.401   4.192   7.356  0.4915  2.1943 -1.4191
   67SAPC  C212 5611   0.389   4.390   7.406  0.2243 -0.1706  0.0169
   67SAPC  H12R 5612   0.471   4.405   7.334 -1.5522  0.3164 -2.0445
   67SAPC  C213 5613   0.329   4.511   7.477  0.0547  0.2021  0.4045
   67SAPC  H13R 5614   0.391   4.521   7.568 -0.5336  1.7511  0.6646
   67SAPC  H13S 5615   0.225   4.482   7.506 -0.5417  1.0359 -0.7844
   67SAPC  C214 5616   0.332   4.639   7.395  0.0253  0.7773  0.1928
   67SAPC  H14R 5617   0.390   4.630   7.302  0.8577 -2.2255  0.9161
   67SAPC  C215 5618   0.260   4.745   7.431 -0.5524 -0.5894  0.2660
   67SAPC  H15R 5619   0.253   4.837   7.371  2.1223  1.5056  2.8771
   67SAPC  C216 5620   0.176   4.765   7.550 -0.0108 -0.2152  0.4638
   67SAPC  H16R 5621   0.143   4.670   7.597 -0.4432 -0.3364 -0.0756
   67SAPC  H16S 5622   0.078   4.812   7.523  0.8269  0.2722 -1.9760
   67SAPC  C217 5623   0.231   4.851   7.664  0.3427 -0.2212 -0.2123
   67SAPC  H17R 5624   0.143   4.894   7.715  0.3470 -2.6798  2.0990
   67SAPC  H17S 5625   0.281   4.942   7.626 -2.7546  1.1192 -1.3519
   67SAPC  C218 5626   0.328   4.778   7.763  0.9868  0.5698  0.3868
   67SAPC  H18R 5627   0.351   4.853   7.842 -2.3223 -1.6932  3.8250
   67SAPC  H18S 5628   0.414   4.743   7.703 -1.3685 -0.3355 -2.7745
   67SAPC  C219 5629   0.259   4.665   7.835 -1.2393  0.2736 -0.3470
   67SAPC  H19R 5630   0.217   4.594   7.760 -1.4054  1.2776 -1.2338
   67SAPC  H19S 5631   0.176   4.709   7.894  1.2458  2.5124  1.7529
   67SAPC  C220 5632   0.355   4.587   7.929  0.5228 -0.7618  0.8401
   67SAPC  H20R 5633   0.369   4.638   8.027 -2.4175  3.2038 -0.5473
   67SAPC  H20S 5634   0.457   4.587   7.885  0.6200 -0.6802  1.0621
   67SAPC  H20T 5635   0.311   4.485   7.939 -1.1069 -0.2301 -0.5236
   67SAPC   C33 5636   0.223   3.462   7.228 -0.4351  0.0301 -0.0779
   67SAPC   H3X 5637   0.302   3.476   7.151 -0.0944  1.3401  0.4797
   67SAPC   H3Y 5638   0.216   3.356   7.261  0.0774  0.9544  3.3131
   67SAPC   C34 5639   0.263   3.539   7.356  0.5916 -0.6472 -0.5048
   67SAPC   H4X 5640   0.172   3.549   7.419  0.3143  1.2031 -1.1253
   67SAPC   H4Y 5641   0.296   3.642   7.329 -0.7144 -0.1101 -0.1279
   67SAPC   C35 5642   0.374   3.479   7.448 -0.0185 -0.1305 -0.2247
   67SAPC   H5X 5643   0.377   3.549   7.535 -1.0736  1.1250 -1.1502
   67SAPC   H5Y 5644   0.475   3.474   7.404  0.1172 -2.2773  0.2264
   67SAPC   C36 5645   0.346   3.329   7.484  0.0826  0.0219  0.2032
   67SAPC   H6X 5646   0.358   3.262   7.397 -0.9821 -0.5555  0.4840
   67SAPC   H6Y 5647   0.239   3.322   7.512 -0.3691 -1.3996 -1.6809
   67SAPC   C37 5648   0.432   3.274   7.599 -0.6970 -0.6680 -0.4583
   67SAPC   H7X 5649   0.540   3.297   7.591 -1.1711  2.3322  0.4974
   67SAPC   H7Y 5650   0.424   3.163   7.598 -0.2291 -0.7032 -1.7860
   67SAPC   C38 5651   0.380   3.327   7.743  0.3201  0.4587  0.1520
   67SAPC   H8X 5652   0.274   3.291   7.750  0.8451 -2.0155 -2.5665
   67SAPC   H8Y 5653   0.362   3.436   7.745 -0.2073  0.3732  0.4597
   67SAPC   C39 5654   0.468   3.290   7.845  0.2506  0.3136 -0.4245
   67SAPC   H9X 5655   0.570   3.334   7.834  1.2464 -0.5127  3.6484
   67SAPC   H9Y 5656   0.478   3.179   7.846 -2.4512 -0.0156  1.8156
   67SAPC  C310 5657   0.424   3.332   7.984  0.1268 -0.2926  0.2075
   67SAPC  H10X 5658   0.324   3.283   7.993 -0.4797  0.3540 -2.2943
   67SAPC  H10Y 5659   0.414   3.439   8.011  1.1219  0.3010 -1.6257
   67SAPC  C311 5660   0.501   3.262   8.096  0.0492 -0.2615  0.9612
   67SAPC  H11X 5661   0.586   3.330   8.119 -0.0232  0.2174 -0.1158
   67SAPC  H11Y 5662   0.529   3.159   8.065 -2.2957 -0.1561 -2.0840
   67SAPC  C312 5663   0.417   3.248   8.220  0.2453 -0.1434 -1.1276
   67SAPC  H12X 5664   0.325   3.194   8.187 -1.3973  2.2524 -0.6670
   67SAPC  H12Y 5665   0.382   3.343   8.265  1.7995  0.0148 -0.2182
   67SAPC  C313 5666   0.498   3.182   8.333  0.7390  0.0083  0.3027
   67SAPC  H13X 5667   0.587   3.248   8.339  0.3034  0.6739 -0.3163
   67SAPC  H13Y 5668   0.528   3.082   8.295  2.6257  0.7169 -0.2235
   67SAPC  C314 5669   0.423   3.182   8.465  0.3919  0.3702 -0.1686
   67SAPC  H14X 5670   0.323   3.140   8.443  0.0678  0.9403  0.1831
   67SAPC  H14Y 5671   0.385   3.282   8.495 -0.4033 -0.4770  1.7825
   67SAPC  C315 5672   0.511   3.120   8.580  0.6410 -0.5003  0.2207
   67SAPC  H15X 5673   0.598   3.188   8.586  1.2098 -1.2486  0.6065
   67SAPC  H15Y 5674   0.548   3.020   8.547 -0.2211 -0.3051 -1.4218
   67SAPC  C316 5675   0.435   3.109   8.710  0.4055 -0.0424 -0.3042
   67SAPC  H16X 5676   0.330   3.105   8.675  0.0498  1.7993  0.4485
   67SAPC  H16Y 5677   0.443   3.201   8.773 -2.5988 -1.2686  2.1210
   67SAPC  C317 5678   0.469   2.988   8.808  0.3927  0.0535  0.2034
   67SAPC  H17X 5679   0.440   2.893   8.758 -0.3574  0.1735  0.3979
   67SAPC  H17Y 5680   0.396   2.991   8.891  0.7648 -1.2217  0.5968
   67SAPC  C318 5681   0.610   2.969   8.861 -0.2751 -0.0734  0.4703
   67SAPC  H18X 5682   0.688   2.955   8.783  0.8519 -0.3643  1.6141
   67SAPC  H18Y 5683   0.613   2.886   8.934 -1.4601 -0.1762  0.4266
   67SAPC  H18Z 5684   0.654   3.056   8.914  2.1396 -0.9932  0.0928
   68SAPC     N 5685   2.900   3.500   6.264 -0.1182 -0.2250 -0.3576
   68SAPC   C12 5686   2.944   3.417   6.141 -0.5143  0.4617  0.3482
   68SAPC  H12A 5687   2.995   3.475   6.066 -2.1524  1.4469 -0.0595
   68SAPC  H12B 5688   2.857   3.384   6.086  0.3654  0.9153 -1.4057
   68SAPC   C13 5689   2.849   3.634   6.214  0.0647  0.3655  0.0359
   68SAPC  H13A 5690   2.925   3.666   6.144  0.1571 -1.2382 -0.6345
   68SAPC  H13B 5691   2.750   3.616   6.177 -0.1731 -3.1768  2.0260
   68SAPC  H13C 5692   2.862   3.705   6.294 -0.7063 -1.6581  2.0646
   68SAPC   C14 5693   2.791   3.431   6.343 -0.1531  0.2242  0.4808
   68SAPC  H14A 5694   2.710   3.418   6.274  0.8979  1.9228 -1.1692
   68SAPC  H14B 5695   2.822   3.336   6.384  0.8462  1.0455  1.7033
   68SAPC  H14C 5696   2.760   3.486   6.431  0.6859  1.6487 -0.0787
   68SAPC   C15 5697   3.028   3.523   6.348  0.7324  0.0452 -0.1410
   68SAPC  H15A 5698   3.099   3.579   6.288  0.6450  1.6125  1.1591
   68SAPC  H15B 5699   3.002   3.567   6.443 -0.7426  0.1370 -0.5645
   68SAPC  H15C 5700   3.067   3.424   6.365  0.5115 -0.4693 -2.2787
   68SAPC   C11 5701   3.033   3.293   6.162 -0.6222  0.6184  0.0232
   68SAPC  H11A 5702   3.043   3.235   6.068  1.7952  2.3313 -0.8818
   68SAPC  H11B 5703   2.999   3.222   6.240  0.0642  0.6035  0.3114
   68SAPC     P 5704   3.290   3.341   6.106  0.1608  0.3353 -0.0918
   68SAPC   O13 5705   3.267   3.264   5.987 -0.3161  0.5607  0.1637
   68SAPC   O14 5706   3.298   3.483   6.094  0.3011  0.6541  0.5500
   68SAPC   O12 5707   3.172   3.326   6.205  0.4111 -0.0075 -0.3155
   68SAPC   O11 5708   3.398   3.278   6.192 -0.4739 -0.7583 -0.2882
   68SAPC    C1 5709   3.400   3.150   6.253  0.3404  0.8915  0.3027
   68SAPC    HA 5710   3.337   3.079   6.196 -1.2155  3.2566 -1.0836
   68SAPC    HB 5711   3.505   3.113   6.252 -0.0144 -0.1862  0.8728
   68SAPC    C2 5712   3.342   3.148   6.393  0.3983 -0.2014 -0.2701
   68SAPC    HS 5713   3.240   3.192   6.390  0.0993 -0.8389  0.2833
   68SAPC   O21 5714   3.426   3.209   6.487 -0.3615  0.2287  0.0670
   68SAPC   C21 5715   3.369   3.247   6.593  0.3224 -0.9334 -0.4769
   68SAPC   O22 5716   3.248   3.270   6.613 -0.4268  0.0583  0.1801
   68SAPC   C22 5717   3.473   3.254   6.706  0.2950 -0.8766  0.2613
   68SAPC   H2R 5718   3.469   3.162   6.768  1.2325 -0.4180  1.0106
   68SAPC   H2S 5719   3.574   3.262   6.660 -0.8469  1.9244 -2.1170
   68SAPC    C3 5720   3.333   2.995   6.435 -0.7500  0.1014  0.5950
   68SAPC    HX 5721   3.440   2.966   6.432 -1.0350 -1.1277  1.6274
   68SAPC    HY 5722   3.279   2.937   6.358 -0.2405 -1.6261  1.4865
   68SAPC   O31 5723   3.295   2.966   6.574 -0.3780  0.0160 -0.0580
   68SAPC   C31 5724   3.163   2.958   6.587 -0.0410  0.0138  0.0232
   68SAPC   O32 5725   3.076   2.977   6.500 -0.0476 -0.1687 -0.5790
   68SAPC   C32 5726   3.135   2.929   6.735 -1.3946  0.7855  0.2761
   68SAPC   H2X 5727   3.195   3.007   6.787 -0.6677  2.1016 -2.3629
   68SAPC   H2Y 5728   3.179   2.830   6.758 -1.0752  0.6540 -0.8728
   68SAPC   C23 5729   3.458   3.377   6.803 -0.2661  0.6181 -0.9427
   68SAPC   H3R 5730   3.461   3.477   6.757  1.1574  1.9328  1.7942
   68SAPC   H3S 5731   3.546   3.381   6.870 -0.1689  2.8697 -1.1576
   68SAPC   C24 5732   3.334   3.387   6.891  0.6844  0.2977 -0.0204
   68SAPC   H4R 5733   3.246   3.402   6.826 -0.6941 -0.4846  1.5867
   68SAPC   H4S 5734   3.332   3.482   6.949 -1.4756  1.3026 -1.6280
   68SAPC   C25 5735   3.298   3.262   6.970 -0.0039 -0.8509 -1.1797
   68SAPC   H5R 5736   3.243   3.183   6.917 -1.0446 -0.9437 -0.0035
   68SAPC   C26 5737   3.333   3.236   7.098  0.6434 -0.1629 -0.3391
   68SAPC   H6R 5738   3.304   3.142   7.148  0.6650  0.6159  1.1972
   68SAPC   C27 5739   3.403   3.328   7.188  0.0118 -0.0779  1.0080
   68SAPC   H7R 5740   3.326   3.378   7.251 -1.5699 -0.5783 -0.4655
   68SAPC   H7S 5741   3.438   3.409   7.121 -0.2284  0.2820  1.3170
   68SAPC   C28 5742   3.516   3.272   7.272  0.0798  0.3369 -0.7342
   68SAPC   H8R 5743   3.603   3.247   7.211 -0.2577  1.0990 -1.5605
   68SAPC   C29 5744   3.535   3.266   7.411  0.3350 -0.2746  0.4786
   68SAPC   H9R 5745   3.635   3.225   7.433  0.9808  1.1776  0.4087
   68SAPC  C210 5746   3.438   3.313   7.523 -0.4346 -0.2399  0.2345
   68SAPC  H10R 5747   3.329   3.294   7.513 -0.8335  1.9937 -0.1256
   68SAPC  H10S 5748   3.442   3.423   7.535 -0.1416 -0.1430 -0.6999
   68SAPC  C211 5749   3.478   3.249   7.659 -0.6346  0.0205  0.9332
   68SAPC  H11R 5750   3.532   3.154   7.651  0.5237  0.7432 -0.4498
   68SAPC  C212 5751   3.452   3.300   7.787 -0.1630  0.7476  0.2954
   68SAPC  H12R 5752   3.493   3.255   7.879  1.7966 -1.0916 -1.3776
   68SAPC  C213 5753   3.371   3.422   7.829  1.0636  0.3246  0.0124
   68SAPC  H13R 5754   3.371   3.501   7.751 -1.4336  0.5303  0.1554
   68SAPC  H13S 5755   3.435   3.463   7.910 -0.9243  2.4239  0.6151
   68SAPC  C214 5756   3.232   3.375   7.874 -0.0554 -0.5326  1.0278
   68SAPC  H14R 5757   3.166   3.348   7.789  2.9196  0.1134 -1.6676
   68SAPC  C215 5758   3.189   3.351   7.996 -0.3524  0.4336  0.7209
   68SAPC  H15R 5759   3.089   3.305   8.006 -1.2031  1.9315 -0.4572
   68SAPC  C216 5760   3.263   3.364   8.129 -0.3667  0.8600 -0.2219
   68SAPC  H16R 5761   3.365   3.408   8.120  0.5057 -0.7078  1.2570
   68SAPC  H16S 5762   3.282   3.263   8.171  0.2075  1.7748  1.8708
   68SAPC  C217 5763   3.183   3.448   8.226  0.1815 -0.4005 -0.0339
   68SAPC  H17R 5764   3.178   3.550   8.182 -0.6771 -1.1290 -1.7068
   68SAPC  H17S 5765   3.233   3.453   8.325  3.0307 -3.5482 -1.1094
   68SAPC  C218 5766   3.037   3.402   8.246  0.2138 -0.2950  0.1770
   68SAPC  H18R 5767   3.043   3.295   8.274 -0.0400 -0.1718  0.7197
   68SAPC  H18S 5768   2.985   3.420   8.149  1.2085  0.4242 -0.2388
   68SAPC  C219 5769   2.968   3.482   8.350 -0.5417 -0.1153  0.6406
   68SAPC  H19R 5770   2.860   3.490   8.323  0.0035  1.5964 -1.2924
   68SAPC  H19S 5771   2.998   3.588   8.342  0.1301 -0.4220 -1.8030
   68SAPC  C220 5772   2.985   3.430   8.497  0.3171 -1.0574 -0.3138
   68SAPC  H20R 5773   2.944   3.327   8.500 -0.3192 -0.8086 -0.3528
   68SAPC  H20S 5774   2.941   3.507   8.563 -0.8299  0.1514 -2.3855
   68SAPC  H20T 5775   3.094   3.432   8.516  0.5184 -2.6355 -1.1491
   68SAPC   C33 5776   2.986   2.932   6.769 -0.0732 -0.1163  0.1094
   68SAPC   H3X 5777   2.939   2.844   6.721  0.1542  0.8622 -2.0392
   68SAPC   H3Y 5778   2.932   3.022   6.733  1.7430 -0.3242 -3.6431
   68SAPC   C34 5779   2.963   2.930   6.924 -0.1239 -0.1646  0.4612
   68SAPC   H4X 5780   3.055   2.881   6.965 -0.0338  0.3318  0.8548
   68SAPC   H4Y 5781   2.879   2.860   6.940  0.7950 -1.0116  1.8074
   68SAPC   C35 5782   2.956   3.067   7.004 -0.3971 -0.2866  0.0318
   68SAPC   H5X 5783   2.848   3.090   7.013 -0.4150 -0.9220  1.6208
   68SAPC   H5Y 5784   3.012   3.145   6.947  0.0077  0.6515  1.6682
   68SAPC   C36 5785   3.008   3.064   7.144 -0.2875  0.2439  0.0534
   68SAPC   H6X 5786   2.988   3.165   7.185 -0.1523  0.2514  0.1031
   68SAPC   H6Y 5787   3.117   3.045   7.160 -0.9557 -1.5747  3.3108
   68SAPC   C37 5788   2.940   2.964   7.246 -0.4228 -0.3523 -0.4383
   68SAPC   H7X 5789   2.974   2.863   7.214 -2.3575 -1.3459  0.4442
   68SAPC   H7Y 5790   2.829   2.971   7.233 -0.2838  0.4034 -1.3182
   68SAPC   C38 5791   2.969   3.005   7.394  0.1871 -0.0845  0.4659
   68SAPC   H8X 5792   3.076   3.011   7.423 -0.1883  1.5907  1.6743
   68SAPC   H8Y 5793   2.925   2.923   7.454  0.5222 -0.7303 -0.1670
   68SAPC   C39 5794   2.896   3.134   7.441 -0.2826 -0.1444  0.1125
   68SAPC   H9X 5795   2.786   3.136   7.422 -0.5893  1.1305  1.7993
   68SAPC   H9Y 5796   2.931   3.226   7.389 -0.0931  0.4316  1.2256
   68SAPC  C310 5797   2.919   3.167   7.584  0.5962 -0.2593  0.3259
   68SAPC  H10X 5798   2.845   3.245   7.612 -1.8485 -1.8101 -1.4187
   68SAPC  H10Y 5799   3.022   3.208   7.595  0.1857  0.5193  1.4299
   68SAPC  C311 5800   2.922   3.047   7.685  0.0041 -0.2509  0.1590
   68SAPC  H11X 5801   3.021   2.997   7.675  0.3988  0.2495  1.3043
   68SAPC  H11Y 5802   2.837   2.976   7.685 -1.9844  1.9836 -0.7852
   68SAPC  C312 5803   2.923   3.094   7.836  0.1544  0.4725 -0.2062
   68SAPC  H12X 5804   2.821   3.135   7.854 -0.1632  0.4560 -1.8489
   68SAPC  H12Y 5805   2.995   3.177   7.854  0.6232 -0.1936  1.1423
   68SAPC  C313 5806   2.966   2.998   7.946  0.2001  0.2772 -0.4372
   68SAPC  H13X 5807   3.020   3.046   8.030  3.0914 -2.5062 -0.5283
   68SAPC  H13Y 5808   3.047   2.933   7.907 -0.1011  0.5155 -1.5142
   68SAPC  C314 5809   2.842   2.914   7.989 -0.3719  0.6409 -0.2108
   68SAPC  H14X 5810   2.815   2.869   7.891  1.2255 -1.0997  0.0957
   68SAPC  H14Y 5811   2.763   2.983   8.027 -0.7174 -1.0306  2.3350
   68SAPC  C315 5812   2.853   2.805   8.096  0.0641 -0.5447  0.3805
   68SAPC  H15X 5813   2.924   2.725   8.067  0.4989  0.4592 -1.4467
   68SAPC  H15Y 5814   2.756   2.753   8.110 -0.1061 -0.5381 -0.6887
   68SAPC  C316 5815   2.899   2.861   8.232 -0.1253 -0.4326  0.1495
   68SAPC  H16X 5816   2.814   2.857   8.303  0.1671 -0.6453  0.4876
   68SAPC  H16Y 5817   2.916   2.970   8.226  1.8677 -0.5469  2.5232
   68SAPC  C317 5818   3.030   2.807   8.282  0.3545  0.2849 -0.6536
   68SAPC  H17X 5819   3.101   2.786   8.199  1.7417 -1.4097  0.8937
   68SAPC  H17Y 5820   3.008   2.706   8.322 -0.5263  1.0176  0.7972
   68SAPC  C318 5821   3.097   2.893   8.395  1.5474  0.3744 -0.0858
   68SAPC  H18X 5822   3.091   3.002   8.375 -0.2405  0.4944  0.9188
   68SAPC  H18Y 5823   3.200   2.856   8.417  2.5849  2.2938 -1.3659
   68SAPC  H18Z 5824   3.034   2.866   8.482 -0.5737 -2.2710 -2.2849
   69SLPC     N 5825   2.878   1.688  11.013 -0.3954 -0.3687 -0.1576
   69SLPC   C13 5826   2.879   1.540  11.046 -0.4952  0.3757  0.8099
   69SLPC  H13A 5827   2.787   1.489  11.066 -0.5641  0.1098 -0.1153
   69SLPC  H13B 5828   2.919   1.489  10.960 -1.1399 -0.8359  1.2092
   69SLPC  H13C 5829   2.942   1.521  11.131  0.3176 -1.4968 -0.1353
   69SLPC   C14 5830   2.802   1.760  11.116  0.3356  0.0274  0.5177
   69SLPC  H14A 5831   2.805   1.867  11.101 -2.2067  0.0317 -0.4909
   69SLPC  H14B 5832   2.698   1.735  11.105  0.9047 -1.9868 -0.8979
   69SLPC  H14C 5833   2.827   1.735  11.218  0.4690 -0.3701  0.3876
   69SLPC   C15 5834   2.810   1.724  10.880  0.2732 -0.4777 -0.0097
   69SLPC  H15A 5835   2.706   1.698  10.878 -0.1576  1.0920  0.5669
   69SLPC  H15B 5836   2.826   1.829  10.862  2.8550 -1.2276 -2.9422
   69SLPC  H15C 5837   2.853   1.665  10.800  2.6527  1.6491 -0.4273
   69SLPC   C12 5838   3.019   1.733  11.014  0.5719 -0.3779 -0.1948
   69SLPC  H12A 5839   3.086   1.659  10.972  2.2610  0.3812  1.0442
   69SLPC  H12B 5840   3.061   1.736  11.114 -1.7157  0.1707  0.8135
   69SLPC   C11 5841   3.058   1.877  10.966  0.5532  1.2388 -0.8646
   69SLPC  H11A 5842   3.054   1.884  10.855 -1.7594  1.0577 -0.8322
   69SLPC  H11B 5843   3.164   1.892  10.998 -0.2699  1.5813  1.9763
   69SLPC     P 5844   2.903   2.101  10.963 -0.2786 -0.1326  0.3226
   69SLPC   O13 5845   2.789   2.143  11.051 -0.1206  0.0495 -0.4596
   69SLPC   O14 5846   3.011   2.202  10.935  0.3545 -0.0344  0.1456
   69SLPC   O12 5847   2.976   1.977  11.030 -0.0251 -0.5208 -0.1254
   69SLPC   O11 5848   2.862   2.057  10.820  0.0767  0.3675 -0.4747
   69SLPC    C1 5849   2.721   2.065  10.785 -0.0900  0.4374 -0.6635
   69SLPC    HA 5850   2.661   2.002  10.853  0.2677  0.2513 -0.5151
   69SLPC    HB 5851   2.690   2.172  10.793 -0.6112  0.2959 -0.7916
   69SLPC    C2 5852   2.693   2.028  10.644  0.4255  0.1540 -0.2222
   69SLPC    HS 5853   2.598   2.071  10.606 -0.5335 -2.8467 -1.5444
   69SLPC   O21 5854   2.699   1.883  10.628  0.2842 -0.1365 -0.5838
   69SLPC   C21 5855   2.589   1.826  10.580  0.0708 -0.2772 -0.1739
   69SLPC   O22 5856   2.488   1.885  10.546  0.0775  0.0436 -0.3325
   69SLPC   C22 5857   2.609   1.675  10.574 -0.7099 -0.7381  0.2307
   69SLPC   H2R 5858   2.717   1.652  10.558 -1.0669 -0.8691 -2.3594
   69SLPC   H2S 5859   2.567   1.631  10.667 -1.9487 -0.3973 -0.1525
   69SLPC    C3 5860   2.798   2.093  10.549  0.2230  0.8602 -0.1214
   69SLPC    HX 5861   2.893   2.038  10.566 -0.6459 -1.0269 -0.9994
   69SLPC    HY 5862   2.798   2.195  10.593 -0.6697 -0.6097  3.6592
   69SLPC   O31 5863   2.764   2.093  10.408 -0.0000 -0.0184 -0.8055
   69SLPC   C31 5864   2.864   2.122  10.324  0.2136  0.0172 -0.3337
   69SLPC   O32 5865   2.985   2.145  10.348 -0.6891  0.0715 -0.0759
   69SLPC   C32 5866   2.808   2.108  10.180 -0.0632 -0.0919  0.4615
   69SLPC   H2X 5867   2.717   2.171  10.173  0.3195  0.4692  0.4511
   69SLPC   H2Y 5868   2.787   2.000  10.165 -3.9584  0.6312 -0.1616
   69SLPC   C23 5869   2.558   1.608  10.444  1.0627 -0.1779  0.0521
   69SLPC   H3R 5870   2.453   1.638  10.426  1.2611 -0.1927 -1.2562
   69SLPC   H3S 5871   2.560   1.500  10.472  0.4396 -0.1935  0.0383
   69SLPC   C24 5872   2.652   1.619  10.320 -0.8630 -0.1609 -0.0576
   69SLPC   H4R 5873   2.748   1.575  10.355 -1.6533 -1.0692  1.0443
   69SLPC   H4S 5874   2.676   1.725  10.296 -0.4192 -0.4924 -1.1251
   69SLPC   C25 5875   2.597   1.544  10.197  0.1874 -0.0074  0.2481
   69SLPC   H5R 5876   2.494   1.576  10.168  0.6617  0.4638 -0.9561
   69SLPC   H5S 5877   2.582   1.435  10.215  0.8507 -0.0841  0.3341
   69SLPC   C26 5878   2.676   1.550  10.072 -0.2139  0.3051 -1.5092
   69SLPC   H6R 5879   2.783   1.530  10.092 -0.2645  1.0837 -0.3492
   69SLPC   H6S 5880   2.667   1.652  10.028 -1.8832  0.4003 -1.0237
   69SLPC   C27 5881   2.631   1.449   9.959  0.3612  1.0368 -0.5960
   69SLPC   H7R 5882   2.638   1.352  10.013  0.8528  0.5713 -1.4760
   69SLPC   H7S 5883   2.692   1.441   9.867 -2.2110  0.2486 -2.3586
   69SLPC   C28 5884   2.479   1.466   9.910 -0.2819  0.0930 -0.7026
   69SLPC   H8R 5885   2.470   1.571   9.875  1.2521  0.9648  1.3358
   69SLPC   H8S 5886   2.411   1.463   9.998 -0.5370 -0.8593 -0.9122
   69SLPC   C29 5887   2.454   1.344   9.826  0.2031  0.5527  1.2805
   69SLPC   H9R 5888   2.453   1.248   9.879 -1.2012  0.4896  1.1560
   69SLPC  C210 5889   2.432   1.348   9.689  0.0721  0.1979  0.0477
   69SLPC  H10R 5890   2.410   1.251   9.642 -0.1638 -1.2147  2.8384
   69SLPC  C211 5891   2.440   1.469   9.588  0.0121 -0.4536 -0.4840
   69SLPC  H11R 5892   2.381   1.550   9.636 -0.3506 -0.6836 -0.5328
   69SLPC  H11S 5893   2.375   1.446   9.500 -0.2809 -0.5056 -0.2571
   69SLPC  C212 5894   2.575   1.509   9.546  0.3729 -0.2955  0.9869
   69SLPC  H12R 5895   2.655   1.504   9.621 -0.0718  2.3522  1.7278
   69SLPC  C213 5896   2.605   1.559   9.427 -0.4879 -0.4195  0.2927
   69SLPC  H13R 5897   2.708   1.588   9.403 -1.1389  0.8720 -1.0680
   69SLPC  C214 5898   2.507   1.581   9.314 -0.7107 -0.2692  0.0328
   69SLPC  H14R 5899   2.556   1.655   9.247 -1.1557  0.3855  0.4240
   69SLPC  H14S 5900   2.422   1.637   9.359  1.3555  1.7650  1.6761
   69SLPC  C215 5901   2.481   1.454   9.231  0.2214  0.0394 -0.1164
   69SLPC  H15R 5902   2.458   1.380   9.311  0.8050 -1.0143 -0.8858
   69SLPC  H15S 5903   2.575   1.420   9.182 -0.3493  0.8870 -1.8674
   69SLPC  C216 5904   2.380   1.483   9.118 -0.0285  0.2147 -0.3670
   69SLPC  H16R 5905   2.296   1.548   9.153 -3.3371 -2.3428 -2.9197
   69SLPC  H16S 5906   2.344   1.381   9.096  0.8803 -0.1160 -0.3421
   69SLPC  C217 5907   2.461   1.533   9.002 -0.3925 -0.6337 -0.2118
   69SLPC  H17R 5908   2.555   1.475   8.990 -0.5837 -0.6546 -1.8062
   69SLPC  H17S 5909   2.497   1.634   9.031  1.4123 -1.5657  0.9886
   69SLPC  C218 5910   2.392   1.526   8.867  0.1636 -0.3242 -0.1424
   69SLPC  H18R 5911   2.289   1.567   8.865 -1.0507 -3.1441  0.1001
   69SLPC  H18S 5912   2.378   1.416   8.856 -0.1108 -0.1808 -1.3608
   69SLPC  H18T 5913   2.463   1.558   8.788 -1.4559  1.4363 -0.9456
   69SLPC   C33 5914   2.917   2.150  10.081 -0.1027  0.2692  0.7684
   69SLPC   H3X 5915   3.012   2.095  10.094 -0.5832 -0.3062  1.9893
   69SLPC   H3Y 5916   2.926   2.261  10.088  1.4515  0.4318 -2.1194
   69SLPC   C34 5917   2.878   2.123   9.929  0.1148  0.8493 -0.6256
   69SLPC   H4X 5918   2.974   2.118   9.873  0.3102  0.1584 -0.2336
   69SLPC   H4Y 5919   2.809   2.203   9.893  0.1500  2.0396  1.7678
   69SLPC   C35 5920   2.824   1.981   9.919 -0.1749 -0.4046  0.0773
   69SLPC   H5X 5921   2.726   1.987   9.971  0.4093  1.9431  1.0327
   69SLPC   H5Y 5922   2.888   1.910   9.974  0.3765 -0.1890 -0.2695
   69SLPC   C36 5923   2.799   1.932   9.774 -1.0141 -0.0881  0.6144
   69SLPC   H6X 5924   2.774   2.025   9.719  1.0931 -0.2663 -0.7401
   69SLPC   H6Y 5925   2.725   1.851   9.760 -0.1450 -1.2260  2.2405
   69SLPC   C37 5926   2.923   1.883   9.699 -0.4408 -0.1280  0.3362
   69SLPC   H7X 5927   2.970   1.793   9.745 -1.4241 -0.9486 -0.2307
   69SLPC   H7Y 5928   2.999   1.963   9.710 -0.0609 -0.4014 -0.2560
   69SLPC   C38 5929   2.889   1.860   9.552 -0.0959  0.2594 -1.8847
   69SLPC   H8X 5930   2.850   1.957   9.513  1.1899  2.4132  1.7695
   69SLPC   H8Y 5931   2.814   1.779   9.537 -2.3971  1.8831  0.0282
   69SLPC   C39 5932   3.022   1.839   9.473 -1.0615 -0.2589 -1.1932
   69SLPC   H9X 5933   3.084   1.757   9.514 -3.8277 -1.9226 -0.0668
   69SLPC   H9Y 5934   3.083   1.930   9.491  0.3323 -1.5765  1.3228
   69SLPC  C310 5935   3.002   1.831   9.326 -0.1895 -0.1317  0.5574
   69SLPC  H10X 5936   2.969   1.928   9.283 -0.0434 -1.0577 -1.8228
   69SLPC  H10Y 5937   2.918   1.768   9.292  0.2664 -0.8389  0.7185
   69SLPC  C311 5938   3.128   1.777   9.255 -0.1407  0.6661  0.4334
   69SLPC  H11X 5939   3.147   1.678   9.303 -1.6000  0.0933 -0.1114
   69SLPC  H11Y 5940   3.216   1.841   9.276  0.4249 -0.3616  1.2850
   69SLPC  C312 5941   3.114   1.741   9.103  0.0787  0.0293  0.0186
   69SLPC  H12X 5942   3.020   1.682   9.102  0.3074 -0.5517 -4.0980
   69SLPC  H12Y 5943   3.200   1.682   9.066  0.6394  0.8041  0.0474
   69SLPC  C313 5944   3.098   1.869   9.013 -0.6390  0.2683 -0.2354
   69SLPC  H13X 5945   3.188   1.931   9.029  0.7347 -0.7652 -3.0985
   69SLPC  H13Y 5946   3.005   1.921   9.046 -1.1288 -0.8805  0.2454
   69SLPC  C314 5947   3.096   1.839   8.856 -0.1099  0.4633  0.3924
   69SLPC  H14X 5948   3.012   1.769   8.838  0.7490  0.0158 -2.4838
   69SLPC  H14Y 5949   3.187   1.782   8.826  0.1191  0.8883  0.2737
   69SLPC  C315 5950   3.083   1.968   8.775 -0.1192  0.1066 -0.3613
   69SLPC  H15X 5951   3.151   2.041   8.825 -1.4053  0.3808  1.0663
   69SLPC  H15Y 5952   2.980   2.008   8.787 -1.7441 -3.6343 -0.3377
   69SLPC  C316 5953   3.095   1.943   8.626 -0.6001 -0.2117 -0.4880
   69SLPC  H16X 5954   3.026   1.866   8.588 -0.8740  0.4019 -1.2739
   69SLPC  H16Y 5955   3.198   1.905   8.610 -1.3784 -2.3148 -0.7216
   69SLPC  C317 5956   3.078   2.075   8.544 -0.1654  0.6284  0.0257
   69SLPC  H17X 5957   3.113   2.058   8.440 -0.6286 -1.5851  0.1849
   69SLPC  H17Y 5958   3.152   2.149   8.582 -2.4198  2.0996  1.8506
   69SLPC  C318 5959   2.934   2.139   8.561 -0.0930  0.0203  1.2149
   69SLPC  H18X 5960   2.911   2.173   8.664 -0.6785  0.4580  0.9383
   69SLPC  H18Y 5961   2.853   2.068   8.534 -0.0612  0.1534  0.7724
   69SLPC  H18Z 5962   2.946   2.229   8.497  1.4852 -1.9160 -1.4433
   70SLPC     N 5963   2.849   4.653  10.866 -0.2097  0.4702  0.0669
   70SLPC   C13 5964   2.985   4.592  10.887 -0.9279  0.2000 -0.2684
   70SLPC  H13A 5965   3.063   4.650  10.839  2.7792 -2.9827  1.3328
   70SLPC  H13B 5966   3.019   4.582  10.989 -0.8678 -2.9585 -0.4944
   70SLPC  H13C 5967   2.998   4.496  10.839  2.5378  0.6602 -0.5186
   70SLPC   C14 5968   2.844   4.782  10.932  0.2507 -0.2461  0.7864
   70SLPC  H14A 5969   2.743   4.820  10.926  0.7702  0.9795 -1.0102
   70SLPC  H14B 5970   2.869   4.788  11.037 -0.4364 -1.1733  1.0110
   70SLPC  H14C 5971   2.904   4.856  10.880 -1.7890 -0.1672 -1.6368
   70SLPC   C15 5972   2.757   4.561  10.950 -0.1864 -0.0096 -0.3121
   70SLPC  H15A 5973   2.785   4.574  11.053 -0.9570  0.3203 -0.1412
   70SLPC  H15B 5974   2.651   4.580  10.944 -0.7527 -2.7847 -0.1967
   70SLPC  H15C 5975   2.787   4.466  10.909  1.7445  0.3344  0.1970
   70SLPC   C12 5976   2.818   4.650  10.715  0.6303 -0.2489 -0.2627
   70SLPC  H12A 5977   2.812   4.546  10.687  0.7846  0.0019 -1.2638
   70SLPC  H12B 5978   2.898   4.696  10.658  1.6694  0.1004  1.4085
   70SLPC   C11 5979   2.681   4.710  10.672  0.2503 -0.5221 -0.3799
   70SLPC  H11A 5980   2.677   4.725  10.562 -2.7902 -1.1456 -0.4442
   70SLPC  H11B 5981   2.667   4.810  10.720  1.7405  0.7542 -2.4645
   70SLPC     P 5982   2.529   4.503  10.627  0.1292  0.4287 -0.1214
   70SLPC   O13 5983   2.652   4.435  10.572  0.4628  0.0459  0.6440
   70SLPC   O14 5984   2.440   4.422  10.719 -0.4378 -0.4721  0.3589
   70SLPC   O12 5985   2.571   4.627  10.712 -0.7926 -0.3713 -0.7150
   70SLPC   O11 5986   2.445   4.561  10.509  0.5411  0.5829  0.4048
   70SLPC    C1 5987   2.366   4.676  10.514 -0.4100 -0.2721  0.0990
   70SLPC    HA 5988   2.322   4.700  10.613 -3.4287  1.5578 -1.5404
   70SLPC    HB 5989   2.420   4.770  10.489  0.2544  0.3729  3.3991
   70SLPC    C2 5990   2.236   4.654  10.426 -0.7152  0.1192  0.0865
   70SLPC    HS 5991   2.179   4.574  10.478 -0.9162 -0.0040 -0.3216
   70SLPC   O21 5992   2.272   4.626  10.294 -0.2812 -0.2373 -0.4230
   70SLPC   C21 5993   2.184   4.557  10.224  0.6756 -0.4432 -0.2097
   70SLPC   O22 5994   2.080   4.502  10.267 -0.4631  0.1880 -0.1443
   70SLPC   C22 5995   2.223   4.549  10.081  0.5814 -0.2754 -0.2343
   70SLPC   H2R 5996   2.312   4.609  10.051  0.3397  0.4768  0.5091
   70SLPC   H2S 5997   2.240   4.440  10.071  1.5542 -0.4614  2.6786
   70SLPC    C3 5998   2.143   4.778  10.435 -0.8127 -0.3075 -0.4630
   70SLPC    HX 5999   2.122   4.792  10.543  2.8597  1.2181  0.2230
   70SLPC    HY 6000   2.048   4.757  10.382 -0.5962 -0.4406 -0.8003
   70SLPC   O31 6001   2.218   4.898  10.396  0.2363 -0.0518  0.0142
   70SLPC   C31 6002   2.177   4.967  10.290  0.0148 -0.3616 -0.1393
   70SLPC   O32 6003   2.085   4.943  10.217 -0.4894  0.3304  0.1875
   70SLPC   C32 6004   2.280   5.079  10.269  0.0917 -0.2669 -0.1259
   70SLPC   H2X 6005   2.317   5.115  10.368  0.7110  2.0297 -1.1166
   70SLPC   H2Y 6006   2.220   5.165  10.231  0.0762  0.2787  1.0707
   70SLPC   C23 6007   2.100   4.572  10.000 -0.2218 -0.4140  0.0967
   70SLPC   H3R 6008   2.054   4.671  10.020 -0.0526 -0.1285 -0.8622
   70SLPC   H3S 6009   2.012   4.507  10.023 -1.8796  1.9175  0.6565
   70SLPC   C24 6010   2.127   4.580   9.855  0.4933  0.2830  0.4363
   70SLPC   H4R 6011   2.146   4.482   9.806 -0.9879 -0.2068  0.7754
   70SLPC   H4S 6012   2.216   4.640   9.825  0.7094 -0.1424  0.2077
   70SLPC   C25 6013   2.015   4.653   9.781 -0.3534  0.7839 -0.2481
   70SLPC   H5R 6014   1.987   4.740   9.844 -1.6040  2.1983 -2.6179
   70SLPC   H5S 6015   1.930   4.581   9.786 -1.2728  1.5806 -2.8228
   70SLPC   C26 6016   2.055   4.696   9.639  0.0234  0.4112  0.7326
   70SLPC   H6R 6017   2.163   4.723   9.635 -0.1910  1.1498 -0.7992
   70SLPC   H6S 6018   1.984   4.777   9.610  0.7797  1.1740  0.9678
   70SLPC   C27 6019   2.035   4.579   9.547 -0.0001 -0.0263  0.3119
   70SLPC   H7R 6020   1.933   4.537   9.539  1.3441 -3.3159 -2.5158
   70SLPC   H7S 6021   2.101   4.493   9.572 -1.3699 -2.1563 -2.7792
   70SLPC   C28 6022   2.071   4.618   9.400 -0.3472 -1.1626 -0.2742
   70SLPC   H8R 6023   2.179   4.645   9.402  0.0618 -2.6875 -0.9048
   70SLPC   H8S 6024   2.010   4.711   9.394  0.3775 -0.6130  0.5356
   70SLPC   C29 6025   2.040   4.504   9.304 -0.7779  0.5082 -0.5047
   70SLPC   H9R 6026   2.109   4.419   9.313  0.1491  1.3973  1.5326
   70SLPC  C210 6027   1.951   4.514   9.208  0.0433 -1.1030  0.3323
   70SLPC  H10R 6028   1.926   4.427   9.146  0.1640  0.4520 -2.0330
   70SLPC  C211 6029   1.856   4.627   9.178  0.2097  0.3524 -0.4693
   70SLPC  H11R 6030   1.811   4.664   9.272 -0.4790 -0.3309 -0.5245
   70SLPC  H11S 6031   1.783   4.584   9.106  1.2611 -1.6347 -0.4027
   70SLPC  C212 6032   1.920   4.747   9.095  0.4619  0.2818 -0.3731
   70SLPC  H12R 6033   1.968   4.825   9.157 -0.4544 -1.6116  2.9666
   70SLPC  C213 6034   1.923   4.752   8.960 -0.6473 -0.1351  0.0712
   70SLPC  H13R 6035   1.976   4.832   8.905 -0.9043  1.2940  1.7821
   70SLPC  C214 6036   1.878   4.655   8.858  0.0709  0.6175  0.1842
   70SLPC  H14R 6037   1.840   4.563   8.908  1.9914 -0.7449 -0.7246
   70SLPC  H14S 6038   1.961   4.604   8.804  1.0702  1.4377  0.9253
   70SLPC  C215 6039   1.773   4.717   8.773  0.2007  0.1661  0.9228
   70SLPC  H15R 6040   1.823   4.798   8.716 -0.0701 -1.9270 -2.5887
   70SLPC  H15S 6041   1.683   4.760   8.821  0.1390 -0.1198  1.0689
   70SLPC  C216 6042   1.738   4.614   8.665 -0.4572 -0.1457  0.5120
   70SLPC  H16R 6043   1.680   4.529   8.706  0.4802 -0.6518  0.8043
   70SLPC  H16S 6044   1.833   4.568   8.631  1.5777  2.2790  2.4014
   70SLPC  C217 6045   1.663   4.674   8.542 -0.5564  0.1151  0.6905
   70SLPC  H17R 6046   1.732   4.750   8.499  1.0705 -0.7152  1.7315
   70SLPC  H17S 6047   1.578   4.731   8.584 -1.2361 -0.4672  0.1137
   70SLPC  C218 6048   1.626   4.581   8.431 -0.6619  0.1026  0.1091
   70SLPC  H18R 6049   1.715   4.565   8.366 -1.7758 -0.7835 -1.2693
   70SLPC  H18S 6050   1.543   4.613   8.364  0.9220 -1.0574 -2.5879
   70SLPC  H18T 6051   1.595   4.480   8.464  0.3037  0.0038  0.7441
   70SLPC   C33 6052   2.389   5.041  10.164 -0.8049 -0.1497 -0.0176
   70SLPC   H3X 6053   2.402   4.932  10.177  0.2416 -0.0339  0.0094
   70SLPC   H3Y 6054   2.486   5.091  10.187 -0.4024 -1.0155  0.2340
   70SLPC   C34 6055   2.354   5.069  10.013 -0.4082 -0.0352 -0.4293
   70SLPC   H4X 6056   2.246   5.051   9.997 -0.2808 -1.5475  0.2369
   70SLPC   H4Y 6057   2.410   4.985   9.967 -0.3109 -1.3447  1.9101
   70SLPC   C35 6058   2.384   5.210   9.956 -0.8679 -0.0914  0.3375
   70SLPC   H5X 6059   2.488   5.238   9.980 -0.9268  1.1932 -0.7968
   70SLPC   H5Y 6060   2.318   5.283  10.007  1.4827  1.9050  0.6972
   70SLPC   C36 6061   2.373   5.212   9.805 -0.1244 -0.2804 -0.3004
   70SLPC   H6X 6062   2.401   5.316   9.780 -0.0670 -0.0606  0.6299
   70SLPC   H6Y 6063   2.272   5.192   9.764  0.2578 -1.9500 -0.5007
   70SLPC   C37 6064   2.467   5.113   9.735  0.3653  0.0268  0.1725
   70SLPC   H7X 6065   2.441   5.008   9.761 -0.5231  0.0838 -0.4640
   70SLPC   H7Y 6066   2.568   5.133   9.776  0.3322 -0.7188  0.6466
   70SLPC   C38 6067   2.446   5.122   9.584 -0.2224  0.0385  0.1411
   70SLPC   H8X 6068   2.539   5.093   9.529 -0.2799  1.3475 -0.6924
   70SLPC   H8Y 6069   2.431   5.222   9.538  0.0366  0.4109  0.8592
   70SLPC   C39 6070   2.327   5.035   9.532 -0.2225 -1.5914  0.2167
   70SLPC   H9X 6071   2.238   5.090   9.571 -0.9949 -2.7343  0.1108
   70SLPC   H9Y 6072   2.331   4.929   9.564 -2.7148 -2.3948 -1.7544
   70SLPC  C310 6073   2.304   5.041   9.380 -1.0862 -0.1108 -0.2443
   70SLPC  H10X 6074   2.287   5.149   9.361  1.2137  0.3268 -0.0672
   70SLPC  H10Y 6075   2.216   4.982   9.349 -1.3874 -0.6611  1.5386
   70SLPC  C311 6076   2.416   4.985   9.297  0.5826  0.1942 -0.1937
   70SLPC  H11X 6077   2.470   4.900   9.343  0.6543 -0.0585 -0.7383
   70SLPC  H11Y 6078   2.491   5.064   9.273 -0.8364  0.5466 -4.3783
   70SLPC  C312 6079   2.368   4.930   9.164 -0.2931  0.0297 -0.1143
   70SLPC  H12X 6080   2.308   4.839   9.188  1.1195 -0.9505 -0.2090
   70SLPC  H12Y 6081   2.458   4.886   9.116  0.6093  0.4989  1.1042
   70SLPC  C313 6082   2.288   5.028   9.073 -0.2736  0.4416 -0.0524
   70SLPC  H13X 6083   2.365   5.102   9.042 -0.4488  1.4916  1.8392
   70SLPC  H13Y 6084   2.204   5.070   9.133 -0.3148  1.0868 -0.5403
   70SLPC  C314 6085   2.240   4.971   8.938 -0.5253  0.1061 -0.4668
   70SLPC  H14X 6086   2.193   4.871   8.953  0.5433 -0.2035  0.9866
   70SLPC  H14Y 6087   2.338   4.943   8.894 -0.3083 -2.8238  1.5777
   70SLPC  C315 6088   2.160   5.060   8.842 -0.8159  0.7705 -0.5509
   70SLPC  H15X 6089   2.209   5.160   8.839 -1.0562  0.8691 -1.6780
   70SLPC  H15Y 6090   2.064   5.066   8.897  1.5481 -0.6070  4.3348
   70SLPC  C316 6091   2.140   5.003   8.703 -1.3032  0.5422 -0.1552
   70SLPC  H16X 6092   2.096   4.902   8.720  0.3172 -0.5157 -1.7882
   70SLPC  H16Y 6093   2.243   4.978   8.669 -1.3748  1.4498 -1.0600
   70SLPC  C317 6094   2.045   5.075   8.599 -0.4873 -0.0981 -0.1572
   70SLPC  H17X 6095   2.093   5.171   8.573 -1.4426 -0.1835 -2.5027
   70SLPC  H17Y 6096   1.944   5.090   8.642 -0.9717  2.3559 -1.9524
   70SLPC  C318 6097   2.025   4.996   8.465  0.9541 -0.3825 -0.3019
   70SLPC  H18X 6098   2.123   4.990   8.413 -0.0864 -0.1635 -2.4110
   70SLPC  H18Y 6099   1.955   5.050   8.397 -0.5361 -0.4696  1.1154
   70SLPC  H18Z 6100   2.000   4.892   8.493  1.0298 -0.3093  0.0339
   71SLPC     N 6101   1.517   2.993  10.866  0.6995  0.2903  0.3897
   71SLPC   C13 6102   1.566   2.867  10.937  0.4776  0.3928  0.7989
   71SLPC  H13A 6103   1.672   2.861  10.922  0.0921  1.2504 -3.2926
   71SLPC  H13B 6104   1.536   2.867  11.041  1.4176 -4.7339  1.2912
   71SLPC  H13C 6105   1.510   2.787  10.890 -1.8968  2.6596 -0.5290
   71SLPC   C14 6106   1.591   3.099  10.934 -0.4601  0.5685  0.5502
   71SLPC  H14A 6107   1.576   3.196  10.889  2.5970  0.0058 -2.0809
   71SLPC  H14B 6108   1.555   3.107  11.035 -1.7116  2.9889 -0.0067
   71SLPC  H14C 6109   1.698   3.083  10.934 -0.0336  2.9741  0.7383
   71SLPC   C15 6110   1.374   3.018  10.894 -0.0611 -0.5105 -0.4959
   71SLPC  H15A 6111   1.353   3.114  10.849 -0.5034 -0.4276 -0.1184
   71SLPC  H15B 6112   1.309   2.950  10.840 -0.5576  0.6065 -1.3350
   71SLPC  H15C 6113   1.348   3.021  10.998 -0.7497  1.4212 -0.6856
   71SLPC   C12 6114   1.539   2.983  10.716  0.3853  1.0190 -0.3608
   71SLPC  H12A 6115   1.490   2.891  10.688  0.7272 -0.6061  3.6845
   71SLPC  H12B 6116   1.641   2.952  10.698 -0.2143 -3.0496  2.0002
   71SLPC   C11 6117   1.486   3.100  10.630 -0.8410 -0.1649  0.5035
   71SLPC  H11A 6118   1.523   3.085  10.526  3.2719 -0.3633  1.7952
   71SLPC  H11B 6119   1.541   3.192  10.659  0.0471 -0.3762 -0.4674
   71SLPC     P 6120   1.292   3.266  10.611  0.1004 -0.2136 -0.3710
   71SLPC   O13 6121   1.162   3.264  10.539  0.1672  0.3723  0.8382
   71SLPC   O14 6122   1.302   3.334  10.743  0.1714  0.1530  0.0348
   71SLPC   O12 6123   1.345   3.121  10.630 -0.5124  0.4074 -0.0720
   71SLPC   O11 6124   1.401   3.336  10.513 -0.2638  0.3029  0.0464
   71SLPC    C1 6125   1.376   3.325  10.368 -0.3499 -0.4110  0.2763
   71SLPC    HA 6126   1.349   3.222  10.338 -1.9031  0.3894 -1.2868
   71SLPC    HB 6127   1.285   3.386  10.349 -2.2643 -2.5235  1.9861
   71SLPC    C2 6128   1.497   3.373  10.289 -0.2156 -0.0189  0.6488
   71SLPC    HS 6129   1.534   3.476  10.306  0.1019  0.2940 -1.6638
   71SLPC   O21 6130   1.477   3.354  10.154  0.1205  0.1229  0.1812
   71SLPC   C21 6131   1.402   3.444  10.093 -0.7058  0.4768  0.4070
   71SLPC   O22 6132   1.369   3.546  10.143  0.2311 -0.3496 -0.2352
   71SLPC   C22 6133   1.375   3.397   9.945 -0.1969  0.1480 -0.3372
   71SLPC   H2R 6134   1.471   3.365   9.898  0.5707 -0.5750  1.6117
   71SLPC   H2S 6135   1.312   3.308   9.960  2.8290 -1.7863  2.1865
   71SLPC    C3 6136   1.616   3.284  10.337 -0.0037 -0.4781  0.0293
   71SLPC    HX 6137   1.584   3.182  10.307 -0.4197 -0.2447 -0.3225
   71SLPC    HY 6138   1.619   3.306  10.446 -0.3084 -1.5407  0.2632
   71SLPC   O31 6139   1.744   3.325  10.288 -0.6993  0.3805  0.6902
   71SLPC   C31 6140   1.794   3.246  10.196  0.3270  0.5545  0.7899
   71SLPC   O32 6141   1.743   3.147  10.154 -0.9311  0.6062  0.7461
   71SLPC   C32 6142   1.939   3.286  10.159  0.7051 -0.0618  0.8504
   71SLPC   H2X 6143   2.003   3.221  10.222  1.0281  0.1201  0.7149
   71SLPC   H2Y 6144   1.963   3.390  10.191 -0.7074  1.2644 -2.0080
   71SLPC   C23 6145   1.294   3.494   9.857 -0.2171 -0.3567 -0.3494
   71SLPC   H3R 6146   1.352   3.588   9.860 -0.7413  0.0367 -1.8588
   71SLPC   H3S 6147   1.197   3.523   9.902  0.4595  2.4563 -0.5119
   71SLPC   C24 6148   1.278   3.459   9.712  0.3308 -0.6615  0.4733
   71SLPC   H4R 6149   1.233   3.545   9.658 -1.7500 -2.9128 -1.6564
   71SLPC   H4S 6150   1.204   3.376   9.700  0.1039 -0.5429  1.0162
   71SLPC   C25 6151   1.400   3.406   9.636  0.0768 -0.6386 -0.2355
   71SLPC   H5R 6152   1.420   3.299   9.656  1.6507 -0.1177  1.1572
   71SLPC   H5S 6153   1.489   3.465   9.666 -0.1026  1.6474 -3.6725
   71SLPC   C26 6154   1.396   3.425   9.483  0.0165  0.1089  0.4832
   71SLPC   H6R 6155   1.494   3.394   9.439  0.3587  0.8814  0.6961
   71SLPC   H6S 6156   1.379   3.531   9.456 -0.6156 -0.1070 -0.0049
   71SLPC   C27 6157   1.283   3.336   9.421 -0.3551 -0.0997 -0.4196
   71SLPC   H7R 6158   1.186   3.351   9.471 -0.6182 -0.2287 -0.8832
   71SLPC   H7S 6159   1.307   3.228   9.432  2.0838  0.5644  1.9540
   71SLPC   C28 6160   1.253   3.377   9.279 -0.0561  0.4952 -0.9562
   71SLPC   H8R 6161   1.246   3.487   9.282 -0.9518  0.4806 -2.0030
   71SLPC   H8S 6162   1.151   3.348   9.245 -1.3731  1.7217  1.6646
   71SLPC   C29 6163   1.346   3.317   9.173  0.1453  0.4489 -0.9239
   71SLPC   H9R 6164   1.438   3.273   9.214 -1.3054 -0.2715  1.7562
   71SLPC  C210 6165   1.317   3.313   9.040 -0.2565  0.0806  0.1171
   71SLPC  H10R 6166   1.383   3.265   8.966 -1.0724 -1.2464  0.2330
   71SLPC  C211 6167   1.192   3.369   8.976  0.7592 -0.9223 -0.6261
   71SLPC  H11R 6168   1.167   3.449   9.049  1.7872 -0.1831 -1.0613
   71SLPC  H11S 6169   1.107   3.302   9.001 -2.2177  2.3996 -1.1605
   71SLPC  C212 6170   1.191   3.419   8.824 -0.5323 -0.5759 -0.3659
   71SLPC  H12R 6171   1.282   3.474   8.800  0.3095 -1.3175  1.0148
   71SLPC  C213 6172   1.095   3.402   8.737 -0.1888 -1.2537 -0.3133
   71SLPC  H13R 6173   1.124   3.435   8.636  1.8143  0.1300  0.6400
   71SLPC  C214 6174   0.973   3.322   8.758 -0.1903 -0.4133  0.7455
   71SLPC  H14R 6175   0.943   3.333   8.865 -2.0331 -0.6124  0.2734
   71SLPC  H14S 6176   0.995   3.213   8.748  1.3485  0.0063 -1.0463
   71SLPC  C215 6177   0.866   3.382   8.666 -0.2915  0.1949 -0.3451
   71SLPC  H15R 6178   0.885   3.491   8.673  0.5258  0.1352 -1.4251
   71SLPC  H15S 6179   0.765   3.367   8.710  0.0432 -2.0058 -0.2203
   71SLPC  C216 6180   0.881   3.332   8.521  0.5109 -0.2996  0.4244
   71SLPC  H16R 6181   0.849   3.226   8.518 -1.8057  0.3319  0.8363
   71SLPC  H16S 6182   0.989   3.331   8.497  0.5192  0.2539  0.4296
   71SLPC  C217 6183   0.805   3.428   8.428 -0.4529  0.1349 -0.3574
   71SLPC  H17R 6184   0.814   3.532   8.466 -1.0925 -0.1598  0.6333
   71SLPC  H17S 6185   0.697   3.404   8.439 -0.5928  1.4244  1.5453
   71SLPC  C218 6186   0.849   3.439   8.279 -0.1673 -0.0437 -0.9743
   71SLPC  H18R 6187   0.953   3.476   8.277  0.7244 -2.2709  0.3190
   71SLPC  H18S 6188   0.779   3.504   8.223 -3.5591 -1.8621  0.8220
   71SLPC  H18T 6189   0.845   3.346   8.218  0.8648  0.0506 -1.2018
   71SLPC   C33 6190   1.985   3.244  10.014  1.0902 -0.3134 -0.5704
   71SLPC   H3X 6191   1.931   3.149   9.992 -1.2388  1.1048 -1.3258
   71SLPC   H3Y 6192   2.095   3.226  10.016  1.0949 -0.3097 -0.8272
   71SLPC   C34 6193   1.944   3.327   9.894 -0.0358 -0.3630 -0.6563
   71SLPC   H4X 6194   1.983   3.431   9.899 -3.1034  0.8399  1.7044
   71SLPC   H4Y 6195   1.839   3.362   9.890  0.2376  0.4105 -1.6499
   71SLPC   C35 6196   1.992   3.249   9.771  0.5540 -0.1437 -0.3232
   71SLPC   H5X 6197   1.944   3.149   9.758 -0.3737  0.5780 -3.4990
   71SLPC   H5Y 6198   2.103   3.254   9.767  0.5264  1.8429  0.1856
   71SLPC   C36 6199   1.930   3.318   9.648 -0.4190  0.3310  1.0718
   71SLPC   H6X 6200   1.949   3.427   9.655  0.0009  0.4088 -0.6812
   71SLPC   H6Y 6201   1.821   3.303   9.639 -0.1857 -2.7655  2.2941
   71SLPC   C37 6202   2.019   3.284   9.517 -0.3474 -0.1449 -0.3654
   71SLPC   H7X 6203   2.027   3.174   9.505 -1.8547 -0.4703  1.2298
   71SLPC   H7Y 6204   2.120   3.327   9.535 -0.7259  1.1681 -1.1556
   71SLPC   C38 6205   1.963   3.327   9.387 -0.0270 -0.3391  0.0117
   71SLPC   H8X 6206   1.923   3.431   9.395 -0.0140 -0.3962  1.0471
   71SLPC   H8Y 6207   1.885   3.253   9.361  0.3271 -0.3946 -0.9381
   71SLPC   C39 6208   2.063   3.320   9.273  0.0390  0.1878  0.0292
   71SLPC   H9X 6209   2.095   3.216   9.251  1.2824  1.0056 -2.3729
   71SLPC   H9Y 6210   2.157   3.374   9.297  1.6580 -1.8247 -1.4457
   71SLPC  C310 6211   2.018   3.370   9.133 -0.1660  0.0369  0.3767
   71SLPC  H10X 6212   2.095   3.376   9.053 -1.6288 -1.3791 -1.2104
   71SLPC  H10Y 6213   1.995   3.477   9.150  0.3290 -0.2370  3.2369
   71SLPC  C311 6214   1.902   3.293   9.068  0.7208  0.2186 -0.0710
   71SLPC  H11X 6215   1.823   3.305   9.145  0.1076 -1.2713 -0.4378
   71SLPC  H11Y 6216   1.942   3.190   9.057  0.1798 -0.4048  3.0091
   71SLPC  C312 6217   1.852   3.353   8.938 -0.4442  0.1867  0.2270
   71SLPC  H12X 6218   1.923   3.337   8.854 -0.4485  1.6803 -0.0803
   71SLPC  H12Y 6219   1.833   3.461   8.956  1.4003  0.8319 -1.3553
   71SLPC  C313 6220   1.713   3.299   8.890  0.2250  0.5033  0.7019
   71SLPC  H13X 6221   1.682   3.341   8.792 -1.2501 -3.2950 -0.6524
   71SLPC  H13Y 6222   1.633   3.320   8.965  0.3336 -1.0049  1.2928
   71SLPC  C314 6223   1.714   3.148   8.869 -0.7699 -0.9775  0.3076
   71SLPC  H14X 6224   1.606   3.127   8.858 -1.0478  0.3412  0.3733
   71SLPC  H14Y 6225   1.750   3.107   8.966  3.2983  3.3215  0.9778
   71SLPC  C315 6226   1.781   3.106   8.734  0.6768  0.2448 -0.5751
   71SLPC  H15X 6227   1.885   3.146   8.726  1.1125 -0.4305  1.2863
   71SLPC  H15Y 6228   1.727   3.148   8.647  1.7793  1.4845 -0.6959
   71SLPC  C316 6229   1.783   2.952   8.707 -0.5284  0.0406 -0.3622
   71SLPC  H16X 6230   1.832   2.942   8.608  0.0696  4.6127 -0.7842
   71SLPC  H16Y 6231   1.678   2.920   8.689 -0.8263  1.2433 -0.9114
   71SLPC  C317 6232   1.869   2.883   8.813  0.2384 -0.0472 -0.0200
   71SLPC  H17X 6233   1.825   2.890   8.915  1.3464  1.4997  0.3726
   71SLPC  H17Y 6234   1.954   2.950   8.835  2.7046 -1.9026 -3.1172
   71SLPC  C318 6235   1.913   2.740   8.788  0.6592 -0.3893 -0.4305
   71SLPC  H18X 6236   1.820   2.681   8.807  0.5144  0.3628  1.4593
   71SLPC  H18Y 6237   1.984   2.709   8.868 -0.3511  0.3098  0.7742
   71SLPC  H18Z 6238   1.958   2.739   8.687  0.8589 -0.6555 -0.3392
   72SLPC     N 6239   4.455   2.367  10.810  0.2085 -0.5065 -0.1496
   72SLPC   C13 6240   4.366   2.490  10.815  0.8171  0.5129 -0.1337
   72SLPC  H13A 6241   4.265   2.464  10.788  1.1408 -0.8744 -0.0547
   72SLPC  H13B 6242   4.361   2.535  10.913  1.5736 -1.1402  0.7145
   72SLPC  H13C 6243   4.404   2.567  10.749 -0.5040 -0.2202 -1.8271
   72SLPC   C14 6244   4.445   2.302  10.676  0.6849 -0.3321 -0.2688
   72SLPC  H14A 6245   4.352   2.248  10.667 -1.3561  2.8179  0.0879
   72SLPC  H14B 6246   4.453   2.369  10.592 -2.0260 -1.0403 -1.1996
   72SLPC  H14C 6247   4.522   2.227  10.668  1.2398 -0.1377  2.4575
   72SLPC   C15 6248   4.418   2.270  10.914  0.5472 -0.6525 -0.3988
   72SLPC  H15A 6249   4.311   2.258  10.921  0.4131  1.0809  1.8325
   72SLPC  H15B 6250   4.467   2.174  10.910 -2.4205 -2.4641  2.2436
   72SLPC  H15C 6251   4.434   2.307  11.015 -0.7385  1.3141 -0.8554
   72SLPC   C12 6252   4.597   2.414  10.823  0.3947 -0.6431 -0.1810
   72SLPC  H12A 6253   4.666   2.336  10.852  0.3814 -0.7347 -0.3877
   72SLPC  H12B 6254   4.597   2.472  10.914 -0.7366  0.2347 -0.7244
   72SLPC   C11 6255   4.666   2.509  10.714  0.1299 -0.5350  0.0784
   72SLPC  H11A 6256   4.659   2.448  10.622  1.2766 -0.5186 -0.0325
   72SLPC  H11B 6257   4.774   2.526  10.732  0.3365  2.2091 -2.9753
   72SLPC     P 6258   4.626   2.765  10.774 -0.2359 -0.0978  0.4046
   72SLPC   O13 6259   4.512   2.856  10.763  0.2642 -0.0029 -0.1123
   72SLPC   O14 6260   4.666   2.733  10.908 -0.3038 -0.1600  0.6935
   72SLPC   O12 6261   4.592   2.629  10.700 -0.0694 -0.3144 -0.7003
   72SLPC   O11 6262   4.741   2.826  10.688  0.3129 -0.1356  0.4102
   72SLPC    C1 6263   4.820   2.766  10.588 -0.5600  0.5664  0.2203
   72SLPC    HA 6264   4.902   2.836  10.564 -0.7519  1.5160  2.0973
   72SLPC    HB 6265   4.865   2.670  10.623 -0.1168  1.1871  1.3940
   72SLPC    C2 6266   4.741   2.760  10.454 -0.0184  0.1612 -0.0993
   72SLPC    HS 6267   4.674   2.672  10.462 -0.2207  0.3600  0.4205
   72SLPC   O21 6268   4.841   2.744  10.352  0.1621  0.5010  0.3181
   72SLPC   C21 6269   4.891   2.620  10.335  0.7436  0.1002  1.0655
   72SLPC   O22 6270   4.874   2.522  10.403 -0.3178 -0.0087 -0.4199
   72SLPC   C22 6271   4.979   2.624  10.209 -0.2440 -0.4408 -0.1137
   72SLPC   H2R 6272   4.998   2.729  10.178  0.4604 -0.2460  0.9125
   72SLPC   H2S 6273   5.074   2.569  10.230  1.3591  1.3497 -2.2113
   72SLPC    C3 6274   4.648   2.889  10.431  0.0817  0.0267 -0.2460
   72SLPC    HX 6275   4.702   2.984  10.451  1.0071 -0.3904 -0.7505
   72SLPC    HY 6276   4.560   2.895  10.499  0.9183 -0.6458  0.9508
   72SLPC   O31 6277   4.606   2.905  10.295 -0.1683  0.5408  0.3037
   72SLPC   C31 6278   4.537   2.802  10.240 -0.2349 -0.6264 -0.2845
   72SLPC   O32 6279   4.509   2.697  10.289 -0.0455  0.3542 -0.2792
   72SLPC   C32 6280   4.484   2.855  10.103 -0.1927  0.0932 -0.2727
   72SLPC   H2X 6281   4.523   2.957  10.087 -2.1083  1.0934  1.0119
   72SLPC   H2Y 6282   4.373   2.858  10.107 -0.2897 -1.9083 -0.2805
   72SLPC   C23 6283   4.916   2.554  10.082 -0.5720 -0.3882 -0.2138
   72SLPC   H3R 6284   4.807   2.568  10.096 -0.3435 -0.5744  2.1747
   72SLPC   H3S 6285   4.941   2.450  10.111 -2.2118 -0.0035  3.0747
   72SLPC   C24 6286   4.964   2.605   9.942 -0.0915 -0.1024 -0.3916
   72SLPC   H4R 6287   5.073   2.625   9.939  0.1058 -1.2718 -1.4431
   72SLPC   H4S 6288   4.923   2.708   9.929 -2.7580 -1.0367 -0.1493
   72SLPC   C25 6289   4.915   2.519   9.822 -0.3819 -0.2569  0.2294
   72SLPC   H5R 6290   4.806   2.504   9.832 -0.1294 -0.8585  2.5224
   72SLPC   H5S 6291   4.960   2.418   9.827  0.6894  0.1086 -1.2837
   72SLPC   C26 6292   4.940   2.586   9.686 -0.0788  0.1209 -0.1708
   72SLPC   H6R 6293   5.047   2.615   9.687 -0.2536  0.8362 -1.2464
   72SLPC   H6S 6294   4.876   2.676   9.674 -1.9375 -0.9936  0.8909
   72SLPC   C27 6295   4.917   2.481   9.579  0.2856  0.4754  0.6126
   72SLPC   H7R 6296   4.811   2.450   9.580 -0.0492  1.6045  0.6313
   72SLPC   H7S 6297   4.980   2.393   9.605  1.3745  1.2933  0.8185
   72SLPC   C28 6298   4.952   2.532   9.441 -0.2557 -0.2940 -0.3018
   72SLPC   H8R 6299   4.885   2.619   9.423 -0.8015 -0.7921 -0.7073
   72SLPC   H8S 6300   4.916   2.447   9.380 -0.2607 -2.2933  2.2925
   72SLPC   C29 6301   5.096   2.555   9.398  0.1878 -0.2205  0.8750
   72SLPC   H9R 6302   5.174   2.505   9.457  1.3500 -0.9557 -1.1890
   72SLPC  C210 6303   5.136   2.642   9.304 -0.0991 -0.5755 -0.0452
   72SLPC  H10R 6304   5.242   2.647   9.275 -0.1725 -3.4637 -1.1113
   72SLPC  C211 6305   5.046   2.733   9.217 -0.5394  0.2436  0.0262
   72SLPC  H11R 6306   5.112   2.820   9.198  1.7421 -0.9904  1.7469
   72SLPC  H11S 6307   4.967   2.779   9.281  0.4315  0.4568  1.1040
   72SLPC  C212 6308   4.974   2.671   9.103  0.2251  0.4090  0.4959
   72SLPC  H12R 6309   4.883   2.621   9.140  0.9314  0.4641  2.4290
   72SLPC  C213 6310   5.017   2.677   8.974 -0.3661 -0.4051 -0.2617
   72SLPC  H13R 6311   4.966   2.625   8.891 -0.4745 -2.7648  1.1820
   72SLPC  C214 6312   5.149   2.745   8.936 -0.0217 -0.2221 -0.5696
   72SLPC  H14R 6313   5.226   2.725   9.013 -1.0120  2.0149  1.1133
   72SLPC  H14S 6314   5.138   2.855   8.933 -0.1576 -0.2385 -0.6869
   72SLPC  C215 6315   5.219   2.688   8.804 -0.3175 -0.4630 -0.1136
   72SLPC  H15R 6316   5.219   2.578   8.817 -2.2927 -0.4034  0.7903
   72SLPC  H15S 6317   5.322   2.728   8.798 -1.2106  2.4904  1.9872
   72SLPC  C216 6318   5.147   2.739   8.679 -0.1525  0.5325  0.7208
   72SLPC  H16R 6319   5.044   2.697   8.672 -0.2873  1.0985 -1.6778
   72SLPC  H16S 6320   5.212   2.704   8.595 -0.5062  0.3325  0.5281
   72SLPC  C217 6321   5.133   2.892   8.665  0.1769 -0.1071  0.1364
   72SLPC  H17R 6322   5.235   2.934   8.678  0.1505 -0.1938  0.6677
   72SLPC  H17S 6323   5.068   2.921   8.751  2.5714 -0.8935  2.3552
   72SLPC  C218 6324   5.069   2.940   8.539 -0.0239  0.6933  0.3460
   72SLPC  H18R 6325   4.962   2.913   8.530 -0.0796 -0.8995  4.0851
   72SLPC  H18S 6326   5.114   2.902   8.445  0.7370 -2.5156  1.8624
   72SLPC  H18T 6327   5.066   3.051   8.546 -0.2757  0.7092  0.0168
   72SLPC   C33 6328   4.525   2.757   9.990 -0.3657 -0.2379  0.2906
   72SLPC   H3X 6329   4.482   2.656  10.003  1.1378 -0.8646  0.6426
   72SLPC   H3Y 6330   4.636   2.750   9.985 -0.4195 -0.4834 -0.7893
   72SLPC   C34 6331   4.485   2.794   9.840  0.4604 -0.3565 -0.3466
   72SLPC   H4X 6332   4.531   2.895   9.833 -1.4048  0.5702  0.3205
   72SLPC   H4Y 6333   4.375   2.786   9.832  0.4579  0.8466 -1.9206
   72SLPC   C35 6334   4.544   2.702   9.733  0.4758 -0.5344  0.5270
   72SLPC   H5X 6335   4.481   2.612   9.719 -0.3527  0.1950 -0.6114
   72SLPC   H5Y 6336   4.648   2.665   9.747 -0.4360 -3.3157  0.6351
   72SLPC   C36 6337   4.537   2.769   9.596  0.8453  0.7855 -0.0187
   72SLPC   H6X 6338   4.605   2.855   9.583  1.4272  0.1905 -1.0494
   72SLPC   H6Y 6339   4.434   2.809   9.584  0.5249 -0.3074 -1.1657
   72SLPC   C37 6340   4.582   2.682   9.484  0.0367  1.0151  0.7846
   72SLPC   H7X 6341   4.524   2.588   9.500  1.1015  0.4411  1.3894
   72SLPC   H7Y 6342   4.688   2.648   9.485 -0.7512 -1.7889  0.3155
   72SLPC   C38 6343   4.562   2.739   9.339  0.3986  0.4580  0.0980
   72SLPC   H8X 6344   4.613   2.837   9.333 -0.2000  0.7432 -0.4686
   72SLPC   H8Y 6345   4.453   2.756   9.326  0.3838 -0.7882 -1.7804
   72SLPC   C39 6346   4.611   2.662   9.222 -0.0756 -0.0365  0.5253
   72SLPC   H9X 6347   4.556   2.565   9.220 -0.9722  0.4683  0.1761
   72SLPC   H9Y 6348   4.716   2.634   9.248  0.0283 -0.1938 -0.0453
   72SLPC  C310 6349   4.600   2.731   9.085  0.4590  0.5638  0.4350
   72SLPC  H10X 6350   4.676   2.813   9.083 -0.0036  0.9807 -0.5718
   72SLPC  H10Y 6351   4.503   2.785   9.076 -1.0575 -1.6794  2.0721
   72SLPC  C311 6352   4.615   2.641   8.962  0.0052 -0.7816 -0.6596
   72SLPC  H11X 6353   4.540   2.559   8.962 -2.0728  0.9949  1.5529
   72SLPC  H11Y 6354   4.716   2.594   8.957  0.3635 -0.1110  0.0745
   72SLPC  C312 6355   4.597   2.720   8.828  0.2502  0.1048  0.3216
   72SLPC  H12X 6356   4.622   2.828   8.831  0.9964  0.0311 -1.6344
   72SLPC  H12Y 6357   4.496   2.716   8.784  0.0503  0.2364  0.7635
   72SLPC  C313 6358   4.697   2.664   8.722  0.3910 -0.5400  0.2705
   72SLPC  H13X 6359   4.671   2.556   8.722 -0.2802 -0.4603 -2.3739
   72SLPC  H13Y 6360   4.798   2.691   8.758 -0.8701  3.5663  1.3497
   72SLPC  C314 6361   4.662   2.707   8.569  0.3037 -0.1641  0.5395
   72SLPC  H14X 6362   4.566   2.658   8.540  0.1136  0.5680 -0.1018
   72SLPC  H14Y 6363   4.740   2.661   8.504  0.1416  0.7854 -0.3404
   72SLPC  C315 6364   4.660   2.854   8.545  0.0431 -0.1502  0.7200
   72SLPC  H15X 6365   4.746   2.909   8.591 -0.0137  1.3931 -0.8962
   72SLPC  H15Y 6366   4.571   2.889   8.602 -0.0324 -2.2020  1.9587
   72SLPC  C316 6367   4.641   2.888   8.398  0.2080  1.0173 -0.5400
   72SLPC  H16X 6368   4.543   2.842   8.374  0.6547 -0.7101  0.7213
   72SLPC  H16Y 6369   4.713   2.821   8.346  0.0194 -0.4653  1.0348
   72SLPC  C317 6370   4.645   3.031   8.350 -0.2330 -0.4649 -0.1148
   72SLPC  H17X 6371   4.614   3.033   8.243  0.9387 -2.7718 -0.5718
   72SLPC  H17Y 6372   4.752   3.060   8.347 -0.5374  0.7460  0.2864
   72SLPC  C318 6373   4.573   3.132   8.435  0.4461  0.2174  0.2397
   72SLPC  H18X 6374   4.469   3.095   8.424  0.6875 -0.6629  0.7982
   72SLPC  H18Y 6375   4.581   3.231   8.385  0.8763  0.4261  0.7151
   72SLPC  H18Z 6376   4.610   3.141   8.539 -0.2405 -1.4537  0.6547
   73SLPC     N 6377   5.465   1.299  10.900  0.7273  0.1039 -0.1230
   73SLPC   C13 6378   5.430   1.422  10.986  0.4061  0.4837 -0.6157
   73SLPC  H13A 6379   5.457   1.509  10.926  0.1043  1.4720  0.6449
   73SLPC  H13B 6380   5.323   1.424  10.995  0.5420  0.8710  1.2556
   73SLPC  H13C 6381   5.483   1.430  11.079 -0.8785 -1.1568  0.2932
   73SLPC   C14 6382   5.447   1.182  10.980  0.8055  0.6174  0.3741
   73SLPC  H14A 6383   5.504   1.184  11.071 -1.2392 -3.4020  1.9987
   73SLPC  H14B 6384   5.343   1.166  11.005  0.9358 -0.1837  0.4348
   73SLPC  H14C 6385   5.483   1.095  10.926  1.4764  1.6834 -0.9726
   73SLPC   C15 6386   5.599   1.318  10.845  0.5513  0.0848 -0.5962
   73SLPC  H15A 6387   5.675   1.315  10.921  0.2265 -1.2782 -0.2937
   73SLPC  H15B 6388   5.626   1.234  10.782  0.9443  0.9588 -1.6213
   73SLPC  H15C 6389   5.611   1.410  10.790 -1.6794  1.2289  0.7237
   73SLPC   C12 6390   5.369   1.297  10.778  0.2435 -0.0941  0.3585
   73SLPC  H12A 6391   5.385   1.209  10.717  0.3576 -0.4045  0.8309
   73SLPC  H12B 6392   5.392   1.373  10.705  3.0292 -0.4468  0.7812
   73SLPC   C11 6393   5.214   1.302  10.807 -0.2798 -0.3375 -0.4109
   73SLPC  H11A 6394   5.195   1.217  10.876 -1.0069  0.8981  0.9511
   73SLPC  H11B 6395   5.159   1.271  10.715  1.7581 -0.2382 -1.7106
   73SLPC     P 6396   5.152   1.549  10.757 -0.0902  0.3423  0.1586
   73SLPC   O13 6397   5.084   1.653  10.835  0.0977 -0.5406  0.2768
   73SLPC   O14 6398   5.285   1.580  10.697 -0.0127 -0.1022 -0.5535
   73SLPC   O12 6399   5.169   1.432  10.857 -0.2750  0.1904  0.6454
   73SLPC   O11 6400   5.056   1.491  10.644  0.1954  0.4394  0.3134
   73SLPC    C1 6401   5.003   1.570  10.537  1.1796 -0.0874  0.1813
   73SLPC    HA 6402   4.893   1.554  10.534  0.5639  3.1134  1.0889
   73SLPC    HB 6403   5.006   1.679  10.562 -0.2574  0.1125 -0.4061
   73SLPC    C2 6404   5.058   1.549  10.395 -0.1644 -0.0723  0.5750
   73SLPC    HS 6405   5.161   1.592  10.389 -0.2544  0.1560  0.6319
   73SLPC   O21 6406   4.973   1.604  10.295  0.3857 -0.4976  0.1146
   73SLPC   C21 6407   5.031   1.649  10.184  0.7052  0.9461  0.7123
   73SLPC   O22 6408   5.149   1.655  10.166  0.6543  0.3133  0.6881
   73SLPC   C22 6409   4.922   1.679  10.074  0.1075  0.7651 -0.5324
   73SLPC   H2R 6410   4.829   1.623  10.100  0.1546  0.8658 -0.1318
   73SLPC   H2S 6411   4.903   1.788  10.077 -0.3852  0.6959 -1.0056
   73SLPC    C3 6412   5.077   1.393  10.358  0.5662  0.3291 -0.5017
   73SLPC    HX 6413   4.982   1.342  10.385  0.4498  0.5631 -0.4681
   73SLPC    HY 6414   5.151   1.345  10.426 -1.1623 -2.9599 -0.7451
   73SLPC   O31 6415   5.104   1.367  10.221  0.2747  0.2071 -0.1764
   73SLPC   C31 6416   5.240   1.370  10.193 -0.4005  0.6635 -0.1227
   73SLPC   O32 6417   5.324   1.360  10.281  0.0276 -0.1962  0.5188
   73SLPC   C32 6418   5.258   1.364  10.038 -0.6279  0.2520  0.0672
   73SLPC   H2X 6419   5.175   1.419   9.989 -0.0759 -0.7213 -2.0541
   73SLPC   H2Y 6420   5.257   1.260   9.999  0.3391  0.5330 -0.7403
   73SLPC   C23 6421   4.977   1.628   9.939 -0.3341 -0.4764  1.4102
   73SLPC   H3R 6422   4.997   1.518   9.937  1.2980 -0.2362 -1.7300
   73SLPC   H3S 6423   5.073   1.677   9.913 -1.2058  0.0941 -1.0637
   73SLPC   C24 6424   4.890   1.648   9.827  0.7910  0.3146  0.6740
   73SLPC   H4R 6425   4.897   1.752   9.789 -0.9516 -0.1828 -1.1918
   73SLPC   H4S 6426   4.781   1.631   9.841  0.3003 -0.4987 -2.9175
   73SLPC   C25 6427   4.931   1.570   9.699  0.3241  0.1432  0.3192
   73SLPC   H5R 6428   4.904   1.466   9.727  0.6114  0.0076  0.0904
   73SLPC   H5S 6429   5.042   1.576   9.704  0.5272 -2.9773  2.4096
   73SLPC   C26 6430   4.878   1.621   9.562  0.4311 -0.0542 -0.1932
   73SLPC   H6R 6431   4.899   1.730   9.561 -0.9299  0.2300 -0.3813
   73SLPC   H6S 6432   4.768   1.605   9.552  0.2616  0.9859 -0.1406
   73SLPC   C27 6433   4.936   1.539   9.453 -0.4053 -0.9681  1.1365
   73SLPC   H7R 6434   4.912   1.431   9.460 -0.4990 -0.9427  1.1993
   73SLPC   H7S 6435   5.047   1.550   9.459 -0.2933 -0.1551 -1.1757
   73SLPC   C28 6436   4.894   1.598   9.316 -0.4802  0.5338 -0.0134
   73SLPC   H8R 6437   4.932   1.702   9.313 -1.5869  0.9134 -1.1607
   73SLPC   H8S 6438   4.784   1.596   9.305 -0.5036  2.3881 -0.3170
   73SLPC   C29 6439   4.966   1.522   9.202  0.0084 -0.9947  0.8373
   73SLPC   H9R 6440   5.029   1.438   9.235 -1.3525 -3.0738 -1.5053
   73SLPC  C210 6441   4.962   1.553   9.069  0.7959  0.9988 -0.5433
   73SLPC  H10R 6442   5.006   1.481   8.999 -0.0910  0.2440 -0.3519
   73SLPC  C211 6443   4.884   1.663   9.003 -0.2052  0.5783 -1.1801
   73SLPC  H11R 6444   4.945   1.745   8.961 -2.0568  2.4876 -0.3592
   73SLPC  H11S 6445   4.831   1.706   9.091  2.1767  1.3682 -0.0601
   73SLPC  C212 6446   4.785   1.609   8.908  0.7437 -0.4074  0.0274
   73SLPC  H12R 6447   4.700   1.552   8.948  0.7454  0.0516  0.6976
   73SLPC  C213 6448   4.768   1.643   8.778  0.3332  0.0854  0.0488
   73SLPC  H13R 6449   4.685   1.599   8.721 -0.2355 -1.5188  1.9942
   73SLPC  C214 6450   4.852   1.748   8.700  0.3287  0.1946 -0.6009
   73SLPC  H14R 6451   4.878   1.715   8.597 -0.6268  0.3186 -0.8879
   73SLPC  H14S 6452   4.941   1.773   8.761  0.8544  1.4328 -1.8177
   73SLPC  C215 6453   4.745   1.857   8.683  0.3004 -0.5927  0.1924
   73SLPC  H15R 6454   4.806   1.944   8.650  1.3667 -2.2122 -2.4741
   73SLPC  H15S 6455   4.702   1.876   8.784 -1.1405  0.9062 -0.6606
   73SLPC  C216 6456   4.633   1.835   8.577 -0.2774  0.6238 -0.3677
   73SLPC  H16R 6457   4.571   1.926   8.595 -1.2298 -0.1381  0.3240
   73SLPC  H16S 6458   4.554   1.761   8.605 -0.3874  1.5049  1.9079
   73SLPC  C217 6459   4.690   1.797   8.432  0.2856 -1.2484 -0.5111
   73SLPC  H17R 6460   4.793   1.837   8.431 -0.6829  1.7515  2.1628
   73SLPC  H17S 6461   4.628   1.854   8.359  1.3674 -0.3120 -0.7089
   73SLPC  C218 6462   4.686   1.650   8.404 -0.6906  0.7756  0.5240
   73SLPC  H18R 6463   4.716   1.592   8.494 -0.3851  0.8494  0.4676
   73SLPC  H18S 6464   4.761   1.618   8.328 -0.4376  1.2010  0.5949
   73SLPC  H18T 6465   4.583   1.611   8.384  0.2724 -1.8770  0.2863
   73SLPC   C33 6466   5.389   1.430   9.995 -0.0848  0.0402  0.6078
   73SLPC   H3X 6467   5.479   1.367   9.981 -0.9464 -0.9536 -0.8104
   73SLPC   H3Y 6468   5.405   1.514  10.066  2.3969  2.3150 -2.3876
   73SLPC   C34 6469   5.369   1.504   9.860  0.0720  0.2458  0.8264
   73SLPC   H4X 6470   5.467   1.552   9.839  0.1765 -0.1441  0.3996
   73SLPC   H4Y 6471   5.284   1.576   9.867 -1.7083 -1.7395  0.4164
   73SLPC   C35 6472   5.326   1.411   9.736 -0.2906 -0.2730 -0.9067
   73SLPC   H5X 6473   5.224   1.372   9.755 -0.4862  0.6614  0.0402
   73SLPC   H5Y 6474   5.393   1.322   9.732  0.4693  0.2139  0.4523
   73SLPC   C36 6475   5.345   1.499   9.615 -0.5813  0.7934  0.3804
   73SLPC   H6X 6476   5.446   1.546   9.622  0.1042 -0.0903 -2.1805
   73SLPC   H6Y 6477   5.277   1.587   9.620  0.0309  1.2553  0.7499
   73SLPC   C37 6478   5.333   1.417   9.485  0.4493  0.0120  0.5250
   73SLPC   H7X 6479   5.246   1.348   9.494  1.6018 -1.9809 -2.1955
   73SLPC   H7Y 6480   5.414   1.340   9.490  0.5908  0.0752 -0.6020
   73SLPC   C38 6481   5.335   1.502   9.356  0.6523 -0.2176 -0.0241
   73SLPC   H8X 6482   5.424   1.567   9.358  0.2153  0.4813 -1.6208
   73SLPC   H8Y 6483   5.252   1.576   9.360  1.4250  0.5964  1.8471
   73SLPC   C39 6484   5.362   1.417   9.225 -0.1960  0.3975 -0.3612
   73SLPC   H9X 6485   5.283   1.340   9.212  1.3252 -1.3159  0.1254
   73SLPC   H9Y 6486   5.453   1.358   9.250  0.1618  0.8371 -0.6087
   73SLPC  C310 6487   5.367   1.489   9.089  0.6587  0.2386  0.3503
   73SLPC  H10X 6488   5.456   1.556   9.085  1.6839 -1.0569  0.9505
   73SLPC  H10Y 6489   5.280   1.556   9.075 -0.9034 -1.9681 -0.9157
   73SLPC  C311 6490   5.373   1.398   8.966  0.2583 -0.4178  0.5610
   73SLPC  H11X 6491   5.272   1.352   8.957  0.5809 -1.0185 -0.0839
   73SLPC  H11Y 6492   5.450   1.318   8.974 -0.4176 -1.1893 -0.3419
   73SLPC  C312 6493   5.383   1.479   8.828  0.1955  0.1723 -0.3195
   73SLPC  H12X 6494   5.482   1.520   8.797  0.5661  0.1797  0.7963
   73SLPC  H12Y 6495   5.311   1.563   8.840 -0.8418 -0.4419 -1.9548
   73SLPC  C313 6496   5.326   1.384   8.719  0.6314 -0.0419 -0.1023
   73SLPC  H13X 6497   5.272   1.297   8.762  0.3658 -0.8444 -1.9717
   73SLPC  H13Y 6498   5.412   1.337   8.668  0.4696  0.3186 -0.7199
   73SLPC  C314 6499   5.250   1.468   8.612 -0.1516  0.7187  0.1089
   73SLPC  H14X 6500   5.171   1.533   8.656  1.6491  1.4803  2.4618
   73SLPC  H14Y 6501   5.184   1.402   8.553 -0.6135 -0.0871  1.4791
   73SLPC  C315 6502   5.344   1.528   8.510  1.1846 -0.1711 -0.3335
   73SLPC  H15X 6503   5.397   1.443   8.461 -0.1012  0.1254 -2.3689
   73SLPC  H15Y 6504   5.420   1.594   8.557  0.8289 -0.3313  0.4706
   73SLPC  C316 6505   5.265   1.611   8.409 -0.3159  0.5395 -0.0847
   73SLPC  H16X 6506   5.181   1.545   8.377 -1.2997  0.4105  2.4855
   73SLPC  H16Y 6507   5.339   1.632   8.329  0.8468  1.1644  1.1279
   73SLPC  C317 6508   5.223   1.748   8.461  0.1037 -0.3246 -0.0787
   73SLPC  H17X 6509   5.323   1.794   8.478  1.9063 -3.3107 -1.7793
   73SLPC  H17Y 6510   5.159   1.741   8.552 -2.6060  0.5499 -1.8090
   73SLPC  C318 6511   5.131   1.828   8.362  0.1352  1.1098 -0.1260
   73SLPC  H18X 6512   5.028   1.785   8.361  0.8869 -0.7609 -0.2081
   73SLPC  H18Y 6513   5.177   1.811   8.263  0.5044 -0.4685  0.2949
   73SLPC  H18Z 6514   5.132   1.934   8.397  0.4408  1.2922 -0.6865
   74SLPC     N 6515   6.132   2.260  10.859 -0.0912 -0.1963  0.2317
   74SLPC   C13 6516   6.258   2.339  10.848  0.5907 -0.9171  0.1854
   74SLPC  H13A 6517   6.254   2.413  10.770 -0.3556 -0.3387  0.7695
   74SLPC  H13B 6518   6.286   2.375  10.946  0.1256  0.0872 -0.0423
   74SLPC  H13C 6519   6.334   2.275  10.805  1.4048  0.9911 -1.4037
   74SLPC   C14 6520   6.028   2.337  10.935 -0.4536 -1.2597  0.4765
   74SLPC  H14A 6521   5.929   2.293  10.927 -0.8857  0.0163 -3.4445
   74SLPC  H14B 6522   6.063   2.329  11.037 -1.0169 -1.1542  0.6859
   74SLPC  H14C 6523   6.025   2.441  10.908 -0.5291 -0.8560  1.9909
   74SLPC   C15 6524   6.173   2.134  10.934  0.5237 -0.4407 -0.0493
   74SLPC  H15A 6525   6.093   2.070  10.966  0.8837 -1.2234 -0.6555
   74SLPC  H15B 6526   6.247   2.076  10.881 -0.0843 -1.7456  0.4818
   74SLPC  H15C 6527   6.210   2.164  11.030 -2.5654 -2.6658  2.0132
   74SLPC   C12 6528   6.087   2.212  10.719 -0.3792 -0.2540  0.7970
   74SLPC  H12A 6529   6.043   2.296  10.669  0.0383 -0.0775  0.7228
   74SLPC  H12B 6530   6.005   2.142  10.726  0.2463 -1.1051 -0.1784
   74SLPC   C11 6531   6.194   2.160  10.620 -0.4381  0.1694  0.1292
   74SLPC  H11A 6532   6.143   2.102  10.541  0.8885 -2.9396  1.3924
   74SLPC  H11B 6533   6.257   2.088  10.677  0.5455 -1.6109 -2.9781
   74SLPC     P 6534   6.218   2.359  10.463 -0.5927  0.4495 -0.2489
   74SLPC   O13 6535   6.089   2.414  10.509 -0.2274  0.1444  0.3945
   74SLPC   O14 6536   6.325   2.462  10.451 -0.3292  0.2339  0.0011
   74SLPC   O12 6537   6.277   2.263  10.570 -0.1070 -0.5101 -0.2154
   74SLPC   O11 6538   6.196   2.272  10.338 -0.1483 -0.0465  0.7882
   74SLPC    C1 6539   6.297   2.223  10.249 -0.4099  0.2651  0.3749
   74SLPC    HA 6540   6.384   2.185  10.306 -0.2674  3.0603  2.2567
   74SLPC    HB 6541   6.249   2.148  10.182  0.5415  0.1549 -0.1967
   74SLPC    C2 6542   6.346   2.339  10.156 -0.0589  0.0587  0.0134
   74SLPC    HS 6543   6.364   2.425  10.224  0.2275  0.9331 -1.1603
   74SLPC   O21 6544   6.244   2.362  10.050  0.3222  0.4777 -0.2636
   74SLPC   C21 6545   6.196   2.489  10.052 -0.1887 -0.4908 -0.4033
   74SLPC   O22 6546   6.235   2.579  10.128  0.1089  0.2496 -0.0702
   74SLPC   C22 6547   6.102   2.516   9.935 -0.7217  0.2387  0.6043
   74SLPC   H2R 6548   6.061   2.417   9.904  0.0377  1.2297 -4.3967
   74SLPC   H2S 6549   6.021   2.581   9.972  0.8198  2.8980 -0.4327
   74SLPC    C3 6550   6.492   2.313  10.095 -0.6160 -0.0380  0.4802
   74SLPC    HX 6551   6.485   2.214  10.045  1.9496 -0.9812  1.7951
   74SLPC    HY 6552   6.564   2.314  10.179  1.3017  2.1461 -1.0800
   74SLPC   O31 6553   6.525   2.409   9.993 -0.3486 -0.0396 -0.6889
   74SLPC   C31 6554   6.599   2.517  10.032 -1.0158  0.4774  0.6143
   74SLPC   O32 6555   6.644   2.545  10.140  0.1536  0.2572 -0.2597
   74SLPC   C32 6556   6.634   2.594   9.909 -0.3048  0.5676  0.8031
   74SLPC   H2X 6557   6.560   2.677   9.905 -2.7076 -1.4699  1.2061
   74SLPC   H2Y 6558   6.617   2.529   9.820  0.4317 -0.1770  1.1981
   74SLPC   C23 6559   6.185   2.599   9.825 -0.0611 -0.1853  0.2367
   74SLPC   H3R 6560   6.248   2.535   9.761 -1.0295 -0.2018 -0.7274
   74SLPC   H3S 6561   6.240   2.681   9.876  0.3482  0.2899 -0.9513
   74SLPC   C24 6562   6.091   2.676   9.729 -0.5458 -0.2491  0.8274
   74SLPC   H4R 6563   6.157   2.739   9.665 -0.1565 -0.4107  1.0618
   74SLPC   H4S 6564   6.031   2.750   9.786  0.5555  0.3119  1.2936
   74SLPC   C25 6565   5.999   2.590   9.646  0.8282 -0.3464  0.4027
   74SLPC   H5R 6566   5.908   2.644   9.611  0.6321 -1.0914 -0.2722
   74SLPC   H5S 6567   5.964   2.507   9.711  2.6050 -0.4571  1.2746
   74SLPC   C26 6568   6.061   2.525   9.521  0.2581  0.1513  0.7567
   74SLPC   H6R 6569   6.015   2.424   9.517 -3.7673  1.8360 -1.0092
   74SLPC   H6S 6570   6.169   2.510   9.539  0.0664 -1.6357  0.5149
   74SLPC   C27 6571   6.027   2.607   9.394  0.2586  0.1844  0.0971
   74SLPC   H7R 6572   6.074   2.707   9.402 -0.1033  0.4306 -0.7360
   74SLPC   H7S 6573   5.919   2.632   9.386  0.1330 -0.7032 -1.3964
   74SLPC   C28 6574   6.063   2.538   9.268 -0.6318  0.5217  0.9222
   74SLPC   H8R 6575   6.001   2.449   9.245 -1.4772  0.7530  2.1778
   74SLPC   H8S 6576   6.166   2.505   9.293 -0.0579  1.9194  0.4727
   74SLPC   C29 6577   6.063   2.632   9.145 -0.4324 -0.1669  0.2246
   74SLPC   H9R 6578   5.976   2.696   9.123  0.0443  0.0669 -1.0949
   74SLPC  C210 6579   6.163   2.627   9.048  0.3125  0.0600 -0.7224
   74SLPC  H10R 6580   6.152   2.687   8.956 -0.5408  0.6442 -0.2591
   74SLPC  C211 6581   6.282   2.530   9.051 -0.3250 -0.4118  0.0513
   74SLPC  H11R 6582   6.321   2.512   9.153  1.3057  0.6900 -0.3384
   74SLPC  H11S 6583   6.369   2.567   8.994 -0.5528 -0.5261 -0.3799
   74SLPC  C212 6584   6.266   2.402   8.972  0.4519  0.4638 -0.0926
   74SLPC  H12R 6585   6.228   2.317   9.030  1.5133  0.3162  0.4095
   74SLPC  C213 6586   6.262   2.377   8.842 -0.9566 -0.3783 -0.0102
   74SLPC  H13R 6587   6.260   2.273   8.807 -1.0650 -0.8895  1.4170
   74SLPC  C214 6588   6.284   2.476   8.730 -0.5898 -0.0986 -0.6370
   74SLPC  H14R 6589   6.376   2.463   8.669  0.1680 -0.1696  0.4944
   74SLPC  H14S 6590   6.309   2.574   8.775 -1.3146 -0.4539  0.5897
   74SLPC  C215 6591   6.158   2.480   8.646 -0.4712 -0.4243 -0.2788
   74SLPC  H15R 6592   6.180   2.554   8.565 -1.6774 -0.7595 -0.9265
   74SLPC  H15S 6593   6.076   2.515   8.712 -0.2074  2.0267 -1.1369
   74SLPC  C216 6594   6.124   2.358   8.568 -1.2761 -0.1970  0.4120
   74SLPC  H16R 6595   6.111   2.272   8.637 -1.0279  1.5596  2.7640
   74SLPC  H16S 6596   6.197   2.319   8.493 -0.3492  2.3772 -0.1081
   74SLPC  C217 6597   5.987   2.367   8.496 -0.7530  0.1285 -0.2623
   74SLPC  H17R 6598   5.912   2.385   8.577  1.1312  2.0750  1.1666
   74SLPC  H17S 6599   5.964   2.267   8.453  3.0265 -0.0927 -2.2103
   74SLPC  C218 6600   5.978   2.474   8.389  0.3863  0.2383  0.5588
   74SLPC  H18R 6601   5.987   2.570   8.444 -2.0900  0.0931  1.3368
   74SLPC  H18S 6602   5.879   2.464   8.340 -0.1285  2.0960  1.1739
   74SLPC  H18T 6603   6.064   2.464   8.318  1.8174 -1.2753  2.3834
   74SLPC   C33 6604   6.777   2.647   9.914 -0.0842 -0.0269  0.2468
   74SLPC   H3X 6605   6.863   2.577   9.924  1.5917  2.0710  1.2087
   74SLPC   H3Y 6606   6.779   2.694  10.015 -0.3322  1.0081 -0.2171
   74SLPC   C34 6607   6.797   2.751   9.812  0.2323  0.4389 -0.5542
   74SLPC   H4X 6608   6.887   2.808   9.844  0.3392  0.9708 -1.7630
   74SLPC   H4Y 6609   6.714   2.826   9.813 -0.3522 -0.1986 -0.8121
   74SLPC   C35 6610   6.829   2.698   9.674  0.3217 -0.2447 -0.3070
   74SLPC   H5X 6611   6.903   2.616   9.681  1.1055  0.4898  0.2297
   74SLPC   H5Y 6612   6.886   2.777   9.619  1.9704  0.5869  2.4101
   74SLPC   C36 6613   6.700   2.651   9.607  0.1724  0.3013  0.6443
   74SLPC   H6X 6614   6.615   2.709   9.649 -0.1460 -0.1616  0.6348
   74SLPC   H6Y 6615   6.687   2.546   9.640 -1.7224  0.0828 -0.6801
   74SLPC   C37 6616   6.697   2.663   9.459  1.0162  0.5656  0.4980
   74SLPC   H7X 6617   6.683   2.765   9.416  2.0528 -0.1106 -1.5584
   74SLPC   H7Y 6618   6.601   2.612   9.438  2.1375 -1.2970 -0.3350
   74SLPC   C38 6619   6.815   2.600   9.398 -0.7222 -0.0103  0.1547
   74SLPC   H8X 6620   6.817   2.491   9.419  2.2951  0.3221  2.2067
   74SLPC   H8Y 6621   6.911   2.637   9.438 -0.4227 -0.4512 -0.1508
   74SLPC   C39 6622   6.818   2.615   9.245  0.0634 -0.0489  0.9019
   74SLPC   H9X 6623   6.917   2.572   9.216 -0.8533 -2.1846  0.7929
   74SLPC   H9Y 6624   6.840   2.722   9.226  0.6370 -0.2762  0.2310
   74SLPC  C310 6625   6.698   2.552   9.169  0.5585  0.4062  0.0848
   74SLPC  H10X 6626   6.603   2.558   9.226  0.1326 -0.8397 -0.4565
   74SLPC  H10Y 6627   6.724   2.444   9.174 -0.5535  0.1489  0.5791
   74SLPC  C311 6628   6.675   2.607   9.025  0.2495  0.0077 -0.5937
   74SLPC  H11X 6629   6.764   2.664   8.991 -0.2211  1.4839  0.5377
   74SLPC  H11Y 6630   6.586   2.673   9.031  1.0097  1.0731 -0.7447
   74SLPC  C312 6631   6.632   2.513   8.916  1.0470 -0.1501 -0.1309
   74SLPC  H12X 6632   6.602   2.587   8.839  0.4815  0.9025  1.0704
   74SLPC  H12Y 6633   6.547   2.451   8.952  0.3925  0.4570 -0.6093
   74SLPC  C313 6634   6.730   2.422   8.851 -0.8543 -1.0383  0.6168
   74SLPC  H13X 6635   6.709   2.325   8.901 -1.4042 -0.8356  0.7824
   74SLPC  H13Y 6636   6.832   2.456   8.878 -1.3571 -0.9832  2.6642
   74SLPC  C314 6637   6.714   2.424   8.697 -0.8044 -0.2851  0.1110
   74SLPC  H14X 6638   6.723   2.524   8.649 -0.2315  0.4961  1.7997
   74SLPC  H14Y 6639   6.611   2.401   8.664 -1.4597  3.0946 -0.5381
   74SLPC  C315 6640   6.820   2.333   8.632  0.4771 -0.0377 -0.4175
   74SLPC  H15X 6641   6.813   2.237   8.687 -0.6494  0.9487  1.2119
   74SLPC  H15Y 6642   6.925   2.360   8.658  0.3549  0.2711 -0.2406
   74SLPC  C316 6643   6.810   2.311   8.476  1.1850 -0.5875 -0.6079
   74SLPC  H16X 6644   6.831   2.412   8.434 -0.9088  0.8599  1.6180
   74SLPC  H16Y 6645   6.701   2.294   8.466  0.8634  1.2449 -0.6270
   74SLPC  C317 6646   6.902   2.206   8.415 -0.0182 -0.4762 -0.3116
   74SLPC  H17X 6647   6.888   2.113   8.475  0.7736 -0.0430  0.5695
   74SLPC  H17Y 6648   7.008   2.235   8.427 -0.1148  0.0461 -0.6734
   74SLPC  C318 6649   6.883   2.178   8.268  0.1712  0.4291  0.1125
   74SLPC  H18X 6650   6.943   2.089   8.241  0.3104 -0.1897  2.2438
   74SLPC  H18Y 6651   6.932   2.264   8.217  0.6946 -0.0544 -0.2067
   74SLPC  H18Z 6652   6.774   2.173   8.245 -0.1819 -0.3141  1.7805
   75SLPC     N 6653   4.188   4.962   6.283 -0.0520  0.1603 -0.4307
   75SLPC   C13 6654   4.211   5.069   6.181 -0.7184  0.8577  0.0695
   75SLPC  H13A 6655   4.140   5.147   6.204 -0.1147  1.1868  0.8602
   75SLPC  H13B 6656   4.313   5.103   6.169 -0.3727 -0.7936 -2.3362
   75SLPC  H13C 6657   4.181   5.033   6.083  2.3998 -0.6145 -0.4767
   75SLPC   C14 6658   4.256   5.014   6.410 -0.0955  0.8871 -0.1986
   75SLPC  H14A 6659   4.207   5.103   6.447 -0.3531  0.6350  0.0847
   75SLPC  H14B 6660   4.234   4.945   6.490 -0.2098  2.2720  1.0122
   75SLPC  H14C 6661   4.362   5.022   6.395 -0.1510 -0.8981 -2.0608
   75SLPC   C15 6662   4.250   4.831   6.246 -0.2120 -0.3861  0.4296
   75SLPC  H15A 6663   4.357   4.843   6.248 -0.1278 -0.0071 -2.4296
   75SLPC  H15B 6664   4.225   4.749   6.311 -0.4866 -1.4468 -0.9742
   75SLPC  H15C 6665   4.227   4.796   6.147 -0.4508  0.9976 -0.0244
   75SLPC   C12 6666   4.043   4.939   6.306  0.4950 -0.1842 -0.2098
   75SLPC  H12A 6667   4.044   4.853   6.371  1.9289 -2.2830 -2.7862
   75SLPC  H12B 6668   3.992   4.903   6.218  1.2775 -1.0762 -0.3272
   75SLPC   C11 6669   3.952   5.048   6.362 -0.1022 -0.2922 -0.6176
   75SLPC  H11A 6670   3.944   5.126   6.282 -0.4066 -2.4303 -2.7771
   75SLPC  H11B 6671   3.992   5.101   6.451  0.3921 -0.3584 -0.7926
   75SLPC     P 6672   3.792   4.918   6.514  0.2944  0.2612  0.1344
   75SLPC   O13 6673   3.645   4.917   6.514  0.0966 -0.4686  0.7817
   75SLPC   O14 6674   3.857   4.781   6.524 -0.6532 -0.2690  0.3925
   75SLPC   O12 6675   3.825   4.984   6.380 -0.3731 -0.2498 -0.6191
   75SLPC   O11 6676   3.849   5.017   6.629  0.2818 -0.0739  0.4126
   75SLPC    C1 6677   3.771   5.123   6.675 -0.1057 -0.7023  1.0788
   75SLPC    HA 6678   3.784   5.204   6.601 -0.5505 -1.8719 -0.3288
   75SLPC    HB 6679   3.662   5.100   6.685 -0.1990 -0.4756  0.5707
   75SLPC    C2 6680   3.821   5.190   6.816  0.8354 -0.1545 -0.2237
   75SLPC    HS 6681   3.925   5.224   6.796  0.9907 -1.4153 -1.7579
   75SLPC   O21 6682   3.829   5.087   6.917 -0.5317 -0.1387 -0.0675
   75SLPC   C21 6683   3.892   5.114   7.027 -0.3276  0.9450 -0.6572
   75SLPC   O22 6684   3.959   5.217   7.047  0.5690  0.3197  0.3385
   75SLPC   C22 6685   3.863   4.996   7.126  0.2931  0.0406  0.4481
   75SLPC   H2R 6686   3.754   4.993   7.147  0.1383  0.8226 -0.1714
   75SLPC   H2S 6687   3.900   4.902   7.081  0.9657  0.7857 -0.6100
   75SLPC    C3 6688   3.727   5.309   6.860 -0.4310  0.1897  0.1077
   75SLPC    HX 6689   3.747   5.384   6.781  0.9969 -0.7610 -0.4782
   75SLPC    HY 6690   3.757   5.342   6.962  0.0936 -1.4274  0.5069
   75SLPC   O31 6691   3.590   5.275   6.854  0.1416  0.0263  0.5444
   75SLPC   C31 6692   3.548   5.199   6.966 -0.4889 -0.1800  0.5241
   75SLPC   O32 6693   3.609   5.196   7.067 -0.8740  0.0722 -0.1989
   75SLPC   C32 6694   3.413   5.149   6.941 -0.2355 -0.1536  0.5497
   75SLPC   H2X 6695   3.424   5.055   6.882  2.1251  1.1819 -1.2987
   75SLPC   H2Y 6696   3.358   5.215   6.871 -0.9566 -0.4924  0.7808
   75SLPC   C23 6697   3.925   4.998   7.264 -0.5275 -0.4726  0.8805
   75SLPC   H3R 6698   3.905   5.081   7.335  2.2663 -0.8124  2.1896
   75SLPC   H3S 6699   4.033   5.021   7.247 -0.3805 -0.5657  1.6573
   75SLPC   C24 6700   3.905   4.870   7.337  0.0913 -0.0158  0.3317
   75SLPC   H4R 6701   3.915   4.784   7.268  0.7692  0.7526 -0.5521
   75SLPC   H4S 6702   3.797   4.869   7.365  0.0599 -1.3573  0.2117
   75SLPC   C25 6703   3.986   4.848   7.470 -0.0224 -0.2332  0.0157
   75SLPC   H5R 6704   4.097   4.842   7.462  0.1624  1.2197  1.1201
   75SLPC   H5S 6705   3.949   4.751   7.510  0.5067 -0.2064  0.5961
   75SLPC   C26 6706   3.947   4.950   7.574 -0.1310  0.4462 -0.0446
   75SLPC   H6R 6707   3.841   4.930   7.604 -1.0977  2.7403 -1.6510
   75SLPC   H6S 6708   3.954   5.051   7.528  0.7326  0.8153  0.8633
   75SLPC   C27 6709   4.037   4.956   7.702 -0.3275  0.3154  0.7632
   75SLPC   H7R 6710   4.028   5.055   7.752  1.9926  0.8398  0.2604
   75SLPC   H7S 6711   4.138   4.968   7.658 -1.5026  0.7584 -1.9771
   75SLPC   C28 6712   4.019   4.841   7.803  0.2709  0.8175 -0.8423
   75SLPC   H8R 6713   4.009   4.744   7.749  1.5052  0.3501 -0.2707
   75SLPC   H8S 6714   3.918   4.845   7.848  0.0335 -0.8257 -1.1542
   75SLPC   C29 6715   4.126   4.822   7.916 -0.0826 -1.1921 -0.1615
   75SLPC   H9R 6716   4.229   4.847   7.886  0.5128 -1.0634  1.8301
   75SLPC  C210 6717   4.093   4.788   8.045 -1.0478  0.5143  0.4735
   75SLPC  H10R 6718   4.178   4.795   8.114 -1.6842  1.7883  1.1804
   75SLPC  C211 6719   3.965   4.766   8.103  0.4598  0.1785  0.2159
   75SLPC  H11R 6720   3.976   4.680   8.172 -3.1478 -1.2985 -0.8044
   75SLPC  H11S 6721   3.904   4.728   8.018  1.2652  0.7686 -0.6368
   75SLPC  C212 6722   3.909   4.883   8.176  0.2421  0.4348  0.8944
   75SLPC  H12R 6723   3.977   4.925   8.252 -0.6653  0.2255  1.8463
   75SLPC  C213 6724   3.783   4.928   8.166  0.5732  0.8020  1.0861
   75SLPC  H13R 6725   3.755   5.021   8.217 -0.7036  0.5610  0.8509
   75SLPC  C214 6726   3.670   4.869   8.076  0.1596  0.1152 -0.3955
   75SLPC  H14R 6727   3.581   4.840   8.135  1.6714 -2.5544  0.7742
   75SLPC  H14S 6728   3.704   4.772   8.034 -2.2828 -1.1424  0.3551
   75SLPC  C215 6729   3.625   4.947   7.948 -0.1052  0.4510 -0.0580
   75SLPC  H15R 6730   3.712   4.993   7.896 -0.9536  1.4791 -0.5970
   75SLPC  H15S 6731   3.565   5.034   7.981  0.5743  0.9886 -0.1972
   75SLPC  C216 6732   3.529   4.875   7.851  0.6577 -0.7151  0.1991
   75SLPC  H16R 6733   3.435   4.857   7.908  0.9410  1.0400  1.3005
   75SLPC  H16S 6734   3.571   4.782   7.808  0.2617  0.4024 -2.8667
   75SLPC  C217 6735   3.480   4.955   7.731 -0.0940 -0.3456 -0.5636
   75SLPC  H17R 6736   3.445   5.055   7.764 -1.1082 -1.1308  0.8713
   75SLPC  H17S 6737   3.385   4.906   7.700  0.5372 -0.5973 -2.1621
   75SLPC  C218 6738   3.588   4.978   7.620 -0.3455 -0.8432 -0.4432
   75SLPC  H18R 6739   3.625   4.881   7.580  1.1287 -0.0110 -1.1890
   75SLPC  H18S 6740   3.670   5.037   7.665 -1.0054 -1.6625  1.9548
   75SLPC  H18T 6741   3.541   5.040   7.540  0.5802 -0.1717 -0.4702
   75SLPC   C33 6742   3.322   5.137   7.069  0.2101  0.7755 -0.0390
   75SLPC   H3X 6743   3.308   5.231   7.126 -2.1098  1.6116 -1.8427
   75SLPC   H3Y 6744   3.220   5.120   7.028  0.7814 -2.8033 -0.2818
   75SLPC   C34 6745   3.364   5.010   7.144 -0.1235 -0.2180  0.2614
   75SLPC   H4X 6746   3.469   5.018   7.179 -0.1992 -0.4645  0.5494
   75SLPC   H4Y 6747   3.370   4.914   7.090 -0.5353  0.2083 -0.5614
   75SLPC   C35 6748   3.273   4.979   7.262  0.5552  0.0048 -0.7490
   75SLPC   H5X 6749   3.283   4.876   7.303 -1.5785 -0.0413 -0.2561
   75SLPC   H5Y 6750   3.164   4.989   7.243  0.0793  2.3474  2.4062
   75SLPC   C36 6751   3.307   5.066   7.391  0.9082  0.7721  0.4057
   75SLPC   H6X 6752   3.388   5.140   7.373  2.6378 -0.5398  2.4137
   75SLPC   H6Y 6753   3.338   5.007   7.480  1.8518  1.6024  0.6499
   75SLPC   C37 6754   3.175   5.134   7.450 -0.7024 -0.1372  0.4402
   75SLPC   H7X 6755   3.111   5.056   7.496 -0.5143 -0.4343  0.1978
   75SLPC   H7Y 6756   3.117   5.186   7.371  1.9558  0.0651 -1.5285
   75SLPC   C38 6757   3.219   5.229   7.567  0.5917  0.1949 -0.0089
   75SLPC   H8X 6758   3.280   5.319   7.543 -1.7559  2.2872  1.4324
   75SLPC   H8Y 6759   3.293   5.171   7.627 -0.4076 -0.0443  1.0098
   75SLPC   C39 6760   3.098   5.280   7.653 -0.2475  0.5403  0.9008
   75SLPC   H9X 6761   3.025   5.199   7.675  0.0876  0.2471  0.9450
   75SLPC   H9Y 6762   3.042   5.353   7.591 -1.2793 -0.9421  0.0190
   75SLPC  C310 6763   3.136   5.323   7.797  0.1848  0.0931  0.6640
   75SLPC  H10X 6764   3.215   5.401   7.787 -0.1634  0.3840  0.1481
   75SLPC  H10Y 6765   3.191   5.239   7.844  1.3356  1.0073  0.9894
   75SLPC  C311 6766   3.021   5.379   7.885 -0.0094  0.5629 -0.0158
   75SLPC  H11X 6767   2.935   5.308   7.890  1.9829 -1.9363  0.7659
   75SLPC  H11Y 6768   2.988   5.475   7.840  0.8018 -0.1406 -2.2083
   75SLPC  C312 6769   3.069   5.406   8.029  0.2094  0.4312  0.0730
   75SLPC  H12X 6770   3.131   5.496   8.048 -0.1148  0.6769 -0.0314
   75SLPC  H12Y 6771   3.130   5.318   8.061  0.9548  1.2387  0.9549
   75SLPC  C313 6772   2.954   5.396   8.128 -0.0104 -0.4591 -0.0984
   75SLPC  H13X 6773   2.900   5.299   8.126  1.1596 -1.1212 -0.1138
   75SLPC  H13Y 6774   2.892   5.483   8.095  0.4072 -0.9031 -2.1909
   75SLPC  C314 6775   3.008   5.419   8.275 -0.4526  0.6549  0.6742
   75SLPC  H14X 6776   2.929   5.456   8.345 -3.0272 -1.3372 -0.9796
   75SLPC  H14Y 6777   3.078   5.504   8.262  0.3048 -0.2465 -1.5451
   75SLPC  C315 6778   3.087   5.299   8.342  0.5972 -0.3605 -0.7930
   75SLPC  H15X 6779   3.141   5.344   8.428 -0.0995 -0.5111 -0.2682
   75SLPC  H15Y 6780   3.165   5.249   8.280  0.1106 -0.7712 -1.0862
   75SLPC  C316 6781   2.977   5.197   8.385  0.1507  0.8721  0.9425
   75SLPC  H16X 6782   2.932   5.160   8.290 -0.4334  2.2868  0.6407
   75SLPC  H16Y 6783   2.897   5.237   8.451 -0.2765  2.1207 -0.2730
   75SLPC  C317 6784   3.040   5.086   8.480 -0.3286  0.4337  0.7702
   75SLPC  H17X 6785   3.103   5.136   8.556  1.7042 -1.0834  0.1686
   75SLPC  H17Y 6786   3.111   5.028   8.418  0.5652  2.4631 -0.1963
   75SLPC  C318 6787   2.951   4.983   8.547  0.6424  0.0879  0.1397
   75SLPC  H18X 6788   2.862   5.029   8.596 -0.4609 -2.0548  0.2529
   75SLPC  H18Y 6789   2.994   4.916   8.625 -2.1706  0.3337  2.0853
   75SLPC  H18Z 6790   2.912   4.912   8.472  1.7715 -0.8928  0.4575
   76SLPC     N 6791   5.587   3.425   5.981  1.0643  0.0210 -0.4377
   76SLPC   C13 6792   5.567   3.511   5.858 -0.1145  0.3321 -0.0248
   76SLPC  H13A 6793   5.520   3.604   5.887 -0.5169 -0.2182  1.1675
   76SLPC  H13B 6794   5.665   3.525   5.817  0.3260  0.7908  1.1369
   76SLPC  H13C 6795   5.498   3.462   5.790  1.0821 -0.7891 -0.4578
   76SLPC   C14 6796   5.680   3.483   6.077 -0.1347 -0.2340 -0.3535
   76SLPC  H14A 6797   5.683   3.428   6.169 -0.1611  0.7775  0.2627
   76SLPC  H14B 6798   5.777   3.479   6.030  0.0937  0.3062  0.0661
   76SLPC  H14C 6799   5.656   3.588   6.083  1.3960  0.1925 -1.1264
   76SLPC   C15 6800   5.634   3.296   5.930 -0.1660 -0.0336 -0.0522
   76SLPC  H15A 6801   5.615   3.221   6.006  0.2798 -0.1088 -0.0087
   76SLPC  H15B 6802   5.570   3.261   5.851 -2.2359  0.0521  1.4856
   76SLPC  H15C 6803   5.741   3.293   5.916 -0.1605  0.4417 -0.0991
   76SLPC   C12 6804   5.447   3.414   6.049 -0.1306 -0.2364  0.0399
   76SLPC  H12A 6805   5.379   3.372   5.976  1.6438  0.3747 -2.0833
   76SLPC  H12B 6806   5.420   3.514   6.080  2.4626 -0.3874  3.3893
   76SLPC   C11 6807   5.440   3.331   6.183  0.1206 -0.3660 -0.2121
   76SLPC  H11A 6808   5.335   3.336   6.219  0.2816  0.1701  0.2027
   76SLPC  H11B 6809   5.491   3.378   6.270  0.1162 -0.7489 -0.0004
   76SLPC     P 6810   5.383   3.090   6.102 -0.0958 -0.2308 -0.2716
   76SLPC   O13 6811   5.305   3.158   5.999  0.1967 -0.1783 -0.1758
   76SLPC   O14 6812   5.460   2.972   6.058 -0.9736 -0.1333 -0.4067
   76SLPC   O12 6813   5.478   3.193   6.164 -0.8684 -0.3641 -0.1091
   76SLPC   O11 6814   5.291   3.047   6.226 -0.0327 -0.3612  0.1848
   76SLPC    C1 6815   5.351   3.022   6.353  0.3323 -1.3032  0.8801
   76SLPC    HA 6816   5.438   2.952   6.353  0.7480 -0.7880  1.1816
   76SLPC    HB 6817   5.389   3.120   6.388  0.4014  0.0148 -2.4557
   76SLPC    C2 6818   5.257   2.974   6.461 -0.0515 -0.0462  0.0598
   76SLPC    HS 6819   5.179   3.053   6.474 -0.7618 -0.3357 -2.0047
   76SLPC   O21 6820   5.331   2.952   6.583 -0.2695  0.4525 -0.4239
   76SLPC   C21 6821   5.349   3.062   6.655 -0.0650  0.2256  0.7626
   76SLPC   O22 6822   5.309   3.175   6.632 -0.3477 -0.1837 -0.2809
   76SLPC   C22 6823   5.432   3.036   6.780 -0.1824 -0.2917 -0.4812
   76SLPC   H2R 6824   5.505   2.955   6.757 -0.5286 -0.6352 -0.3756
   76SLPC   H2S 6825   5.481   3.132   6.809 -2.0524  1.1244 -1.7467
   76SLPC    C3 6826   5.181   2.846   6.422  0.0503 -0.3016 -0.8615
   76SLPC    HX 6827   5.244   2.754   6.423 -1.8605 -1.6662 -1.2235
   76SLPC    HY 6828   5.150   2.854   6.316  1.7194 -1.0439 -1.4374
   76SLPC   O31 6829   5.077   2.823   6.517 -0.2414  0.6081 -0.0719
   76SLPC   C31 6830   4.954   2.889   6.503 -0.1334  0.0235 -0.1856
   76SLPC   O32 6831   4.937   2.974   6.414 -0.6975 -0.1446  0.3279
   76SLPC   C32 6832   4.858   2.847   6.609  1.0335  0.2669 -0.3098
   76SLPC   H2X 6833   4.831   2.743   6.583  0.9319  0.4949 -1.1308
   76SLPC   H2Y 6834   4.762   2.898   6.588  0.4072 -1.9376 -3.5777
   76SLPC   C23 6835   5.351   2.990   6.902  0.3025 -0.2268  0.2954
   76SLPC   H3R 6836   5.276   2.911   6.879 -1.3977  1.0545  1.1984
   76SLPC   H3S 6837   5.286   3.077   6.925  1.4307  0.7403 -0.1000
   76SLPC   C24 6838   5.437   2.938   7.009 -0.6192 -0.5697 -0.6925
   76SLPC   H4R 6839   5.536   2.920   6.963  0.4695  1.0427  0.8833
   76SLPC   H4S 6840   5.406   2.836   7.040  4.4005 -1.6180  1.9602
   76SLPC   C25 6841   5.458   3.049   7.116 -0.0980  0.0841  0.7286
   76SLPC   H5R 6842   5.365   3.065   7.175 -0.6084 -0.2857  0.0332
   76SLPC   H5S 6843   5.498   3.135   7.057  0.4637 -1.5016 -1.2968
   76SLPC   C26 6844   5.563   3.005   7.213  0.1827 -0.1493  0.1086
   76SLPC   H6R 6845   5.658   2.974   7.165  0.0324 -0.8780  0.2729
   76SLPC   H6S 6846   5.530   2.911   7.262 -0.0040 -0.7859 -1.1996
   76SLPC   C27 6847   5.611   3.115   7.312 -0.4007 -0.7431 -0.3773
   76SLPC   H7R 6848   5.528   3.129   7.384  0.2918  1.9870  0.0242
   76SLPC   H7S 6849   5.621   3.206   7.249  1.5273 -0.8389 -0.2859
   76SLPC   C28 6850   5.734   3.077   7.393  0.7615  0.0733 -0.1865
   76SLPC   H8R 6851   5.710   2.996   7.465  1.4672 -1.0087 -1.1466
   76SLPC   H8S 6852   5.821   3.041   7.335  2.0908  0.2587  1.5864
   76SLPC   C29 6853   5.768   3.207   7.471 -0.0453  0.2378 -0.2978
   76SLPC   H9R 6854   5.821   3.285   7.414  0.7797  1.7027  2.3152
   76SLPC  C210 6855   5.765   3.226   7.604  0.3237  0.1699  0.3921
   76SLPC  H10R 6856   5.800   3.322   7.644 -2.2639  0.2991  2.6057
   76SLPC  C211 6857   5.720   3.125   7.701  0.3137 -0.2465  0.0194
   76SLPC  H11R 6858   5.665   3.037   7.662  0.1872 -2.1288  3.9540
   76SLPC  H11S 6859   5.653   3.168   7.777  0.9748 -2.1687  1.8107
   76SLPC  C212 6860   5.841   3.062   7.764 -0.8468 -0.3919 -0.5265
   76SLPC  H12R 6861   5.872   2.974   7.705  1.8702 -0.1808  0.4281
   76SLPC  C213 6862   5.916   3.106   7.864 -0.0730 -0.1481 -0.3361
   76SLPC  H13R 6863   5.995   3.041   7.903 -1.8114 -1.2291  1.5485
   76SLPC  C214 6864   5.900   3.231   7.949  0.1279 -0.4901  1.5501
   76SLPC  H14R 6865   5.821   3.295   7.904  0.5757 -0.2388  1.0966
   76SLPC  H14S 6866   5.991   3.293   7.963 -0.1070  0.3342 -0.2655
   76SLPC  C215 6867   5.848   3.195   8.087  0.0649  0.0836 -0.4537
   76SLPC  H15R 6868   5.907   3.112   8.130  1.5688  2.4803  2.4879
   76SLPC  H15S 6869   5.743   3.165   8.065  0.4314 -0.3712 -1.6517
   76SLPC  C216 6870   5.856   3.318   8.182 -0.2849  0.0541 -0.0464
   76SLPC  H16R 6871   5.781   3.391   8.145 -0.9271 -0.4797  0.1761
   76SLPC  H16S 6872   5.961   3.354   8.172  0.5726 -2.0250  0.7760
   76SLPC  C217 6873   5.826   3.298   8.333 -0.0313  0.4837 -0.4524
   76SLPC  H17R 6874   5.908   3.241   8.381 -0.2261  1.2512  0.8360
   76SLPC  H17S 6875   5.729   3.246   8.350 -0.1256  0.9702  0.5277
   76SLPC  C218 6876   5.803   3.428   8.408 -0.1461  0.5373  0.3050
   76SLPC  H18R 6877   5.715   3.483   8.368  0.2017  0.3287 -0.7588
   76SLPC  H18S 6878   5.895   3.491   8.410 -1.1415  2.0539  2.0801
   76SLPC  H18T 6879   5.777   3.399   8.512  0.6816 -1.8078 -0.0902
   76SLPC   C33 6880   4.913   2.840   6.755 -0.3108  0.0622 -0.6284
   76SLPC   H3X 6881   5.001   2.773   6.760  0.5027  1.1499  0.3755
   76SLPC   H3Y 6882   4.836   2.791   6.819 -1.5478  1.8796 -0.6238
   76SLPC   C34 6883   4.929   2.973   6.824 -0.4955  0.3048 -0.5493
   76SLPC   H4X 6884   4.838   3.035   6.815 -0.7372 -0.1446 -1.2763
   76SLPC   H4Y 6885   5.018   3.020   6.777 -0.5842 -0.2983 -1.3542
   76SLPC   C35 6886   4.961   2.958   6.977  0.4713  0.0898 -0.1577
   76SLPC   H5X 6887   5.061   2.915   6.996  0.5294 -0.1793 -1.0375
   76SLPC   H5Y 6888   4.882   2.894   7.021  0.1785 -0.1512 -1.0142
   76SLPC   C36 6889   4.964   3.088   7.058 -0.1230 -0.0639 -0.2089
   76SLPC   H6X 6890   4.858   3.120   7.067 -0.6717 -0.8452 -2.9018
   76SLPC   H6Y 6891   5.018   3.174   7.014  1.6529 -1.5618 -1.0949
   76SLPC   C37 6892   5.012   3.067   7.202 -0.2792 -0.1130 -0.4152
   76SLPC   H7X 6893   5.122   3.052   7.197  0.1187  1.7548  1.3285
   76SLPC   H7Y 6894   4.979   2.972   7.250  2.9806 -0.2845  1.8180
   76SLPC   C38 6895   4.985   3.185   7.288  0.4320 -0.2649 -0.0267
   76SLPC   H8X 6896   4.874   3.194   7.294  0.3636  0.5190 -1.7155
   76SLPC   H8Y 6897   5.010   3.281   7.238  0.1462 -0.8582 -1.3516
   76SLPC   C39 6898   5.048   3.187   7.430 -0.8016  0.4827  0.2193
   76SLPC   H9X 6899   5.041   3.283   7.487 -0.9928 -1.3431  3.5400
   76SLPC   H9Y 6900   5.157   3.179   7.407 -0.7450  0.7606  0.3861
   76SLPC  C310 6901   5.001   3.078   7.519 -1.2874 -0.3280 -0.5044
   76SLPC  H10X 6902   5.056   2.987   7.487 -1.0427 -1.2482  2.2618
   76SLPC  H10Y 6903   4.891   3.061   7.522 -1.5169  0.7701 -1.6182
   76SLPC  C311 6904   5.036   3.086   7.666  0.6744  0.4149 -0.1351
   76SLPC  H11X 6905   4.970   3.153   7.725 -0.6355 -1.2867  0.4196
   76SLPC  H11Y 6906   5.134   3.134   7.683  1.5302 -1.6200  1.1455
   76SLPC  C312 6907   5.032   2.950   7.735  0.0482  0.2599  0.1697
   76SLPC  H12X 6908   5.118   2.888   7.704  0.4262  1.4188 -1.2044
   76SLPC  H12Y 6909   4.939   2.893   7.710 -0.0625  0.8211 -0.7287
   76SLPC  C313 6910   5.060   2.980   7.886  0.3238  0.1659  0.0381
   76SLPC  H13X 6911   4.977   3.045   7.922 -1.1007 -0.8191 -1.2963
   76SLPC  H13Y 6912   5.144   3.048   7.908 -1.6699  2.1728  1.9905
   76SLPC  C314 6913   5.069   2.849   7.959 -0.3950  0.7367  0.0943
   76SLPC  H14X 6914   5.146   2.787   7.909  1.0629  1.1476  1.7231
   76SLPC  H14Y 6915   4.970   2.799   7.952  0.8780 -1.7152 -2.0216
   76SLPC  C315 6916   5.099   2.854   8.113 -0.4131  0.3142  0.0123
   76SLPC  H15X 6917   5.000   2.878   8.157 -2.2324 -1.5706 -2.7365
   76SLPC  H15Y 6918   5.176   2.932   8.132 -0.3320  0.2826 -0.1867
   76SLPC  C316 6919   5.148   2.721   8.171  1.0056  0.1780  0.1760
   76SLPC  H16X 6920   5.169   2.743   8.277 -2.1737 -0.8209  1.1435
   76SLPC  H16Y 6921   5.240   2.675   8.129  0.3710 -1.2579  0.3013
   76SLPC  C317 6922   5.048   2.601   8.160 -0.3706 -0.4063 -0.9580
   76SLPC  H17X 6923   5.101   2.522   8.218 -0.8278  0.8485  1.2848
   76SLPC  H17Y 6924   5.031   2.574   8.054  0.4438  3.3067 -2.1938
   76SLPC  C318 6925   4.913   2.643   8.226 -0.1907  0.2754  0.5721
   76SLPC  H18X 6926   4.931   2.677   8.330  1.9307 -0.7900  0.5894
   76SLPC  H18Y 6927   4.843   2.558   8.236 -1.4814  0.9269 -1.9922
   76SLPC  H18Z 6928   4.858   2.722   8.169 -0.5695 -1.0945 -1.0404
   77SLPC     N 6929   0.804   3.230   6.569  0.2360 -0.0704  0.7974
   77SLPC   C13 6930   0.695   3.187   6.654 -0.3969 -0.1376 -0.1423
   77SLPC  H13A 6931   0.613   3.257   6.659 -0.2403 -0.0196  1.0551
   77SLPC  H13B 6932   0.652   3.093   6.624  1.5462 -1.2935  0.5193
   77SLPC  H13C 6933   0.726   3.180   6.757  2.5595  0.5351 -0.8712
   77SLPC   C14 6934   0.917   3.138   6.588  0.7977 -0.6548 -0.6464
   77SLPC  H14A 6935   1.000   3.154   6.521  2.0300 -0.4763  0.8638
   77SLPC  H14B 6936   0.964   3.156   6.684  1.2584  0.9772 -1.1554
   77SLPC  H14C 6937   0.884   3.035   6.586  0.3932 -0.5528  0.3952
   77SLPC   C15 6938   0.831   3.374   6.616  1.1938  0.3665  0.1780
   77SLPC  H15A 6939   0.748   3.438   6.588 -0.4009 -2.4991 -2.1446
   77SLPC  H15B 6940   0.825   3.373   6.724  0.6093  3.0411  0.2465
   77SLPC  H15C 6941   0.927   3.415   6.589  2.1398 -1.8389 -0.0213
   77SLPC   C12 6942   0.768   3.226   6.418  0.1621 -0.3000  0.0092
   77SLPC  H12A 6943   0.768   3.119   6.401 -3.6197 -0.7158  1.6248
   77SLPC  H12B 6944   0.844   3.269   6.355 -0.2184  0.9358  0.3739
   77SLPC   C11 6945   0.634   3.289   6.382 -0.2135 -0.4992  0.0820
   77SLPC  H11A 6946   0.556   3.218   6.414 -0.2710 -1.1381 -1.3747
   77SLPC  H11B 6947   0.648   3.306   6.273  1.8819  2.3700  0.6660
   77SLPC     P 6948   0.459   3.481   6.451 -0.0268  0.1607 -0.3719
   77SLPC   O13 6949   0.466   3.607   6.531  0.7192 -0.1785  0.7070
   77SLPC   O14 6950   0.391   3.484   6.322  0.0769 -0.3232 -0.6211
   77SLPC   O12 6951   0.607   3.423   6.434 -0.6637 -0.5481 -0.2515
   77SLPC   O11 6952   0.400   3.367   6.545 -0.8370  0.2741  0.2124
   77SLPC    C1 6953   0.383   3.391   6.684 -0.1063 -0.3462  0.2145
   77SLPC    HA 6954   0.478   3.433   6.725 -1.6126  3.0637  0.5211
   77SLPC    HB 6955   0.296   3.457   6.703 -0.1876 -0.7068  1.1538
   77SLPC    C2 6956   0.368   3.257   6.760  0.1065 -0.5517  0.0507
   77SLPC    HS 6957   0.457   3.202   6.724  0.8604  0.9081 -0.4112
   77SLPC   O21 6958   0.247   3.198   6.725  0.4534 -0.2295  0.4711
   77SLPC   C21 6959   0.251   3.062   6.719  0.4875  0.5221  0.1695
   77SLPC   O22 6960   0.355   3.000   6.745 -0.2832 -0.0779 -0.1537
   77SLPC   C22 6961   0.111   3.014   6.680 -0.6701  0.0757 -0.1584
   77SLPC   H2R 6962   0.079   3.046   6.579  0.6005  0.9756 -0.3053
   77SLPC   H2S 6963   0.107   2.903   6.673 -0.3726  0.1284 -1.4013
   77SLPC    C3 6964   0.378   3.282   6.912 -1.0471 -0.2644 -0.3630
   77SLPC    HX 6965   0.310   3.365   6.940 -1.0052 -0.1492 -0.5991
   77SLPC    HY 6966   0.481   3.323   6.919 -1.4982  0.8387 -0.0905
   77SLPC   O31 6967   0.363   3.171   7.000  0.1605 -0.0396  0.6474
   77SLPC   C31 6968   0.464   3.092   7.009 -0.0594 -0.4345  0.2467
   77SLPC   O32 6969   0.574   3.119   6.963  0.3205 -0.2699  0.1574
   77SLPC   C32 6970   0.429   2.964   7.088 -0.1630 -0.2541  0.0674
   77SLPC   H2X 6971   0.513   2.895   7.065 -1.4734 -1.2144 -2.1031
   77SLPC   H2Y 6972   0.330   2.923   7.059 -1.2155 -0.0824  3.0543
   77SLPC   C23 6973   0.009   3.065   6.780  0.5351  0.0687  0.0873
   77SLPC   H3R 6974  -0.088   3.013   6.767  0.6015  0.4710 -2.5213
   77SLPC   H3S 6975  -0.008   3.175   6.779  2.5155  0.4753  2.0259
   77SLPC   C24 6976   0.050   3.039   6.921  0.0103 -0.0318  0.2997
   77SLPC   H4R 6977   0.151   3.079   6.942  1.0669 -2.6739  0.7003
   77SLPC   H4S 6978   0.051   2.928   6.929  1.0427 -0.0276  0.2851
   77SLPC   C25 6979  -0.033   3.105   7.024  0.5468 -0.1685  0.0084
   77SLPC   H5R 6980  -0.140   3.087   7.000  1.0951 -1.1002 -1.8625
   77SLPC   H5S 6981  -0.014   3.214   7.011 -0.3668  0.1404  1.1065
   77SLPC   C26 6982  -0.004   3.092   7.171 -0.0936 -0.1840 -1.0574
   77SLPC   H6R 6983   0.103   3.118   7.185  0.3548 -0.5288 -3.3766
   77SLPC   H6S 6984  -0.030   2.986   7.191 -1.1861  0.3256  0.3626
   77SLPC   C27 6985  -0.089   3.164   7.267 -0.1090  0.3020 -0.3292
   77SLPC   H7R 6986  -0.192   3.125   7.282  0.0461  0.2903  0.7655
   77SLPC   H7S 6987  -0.109   3.268   7.234  2.3244  1.5825  1.8434
   77SLPC   C28 6988  -0.011   3.172   7.405 -0.2019  0.3513  0.1876
   77SLPC   H8R 6989  -0.073   3.230   7.475 -0.7908  0.2080 -0.2075
   77SLPC   H8S 6990   0.085   3.222   7.381 -0.6340 -0.2279 -3.3698
   77SLPC   C29 6991   0.000   3.030   7.452 -0.6100 -0.0291 -0.4092
   77SLPC   H9R 6992   0.054   2.976   7.373  1.4056  0.2363  0.7242
   77SLPC  C210 6993  -0.044   2.976   7.567  0.3286  0.5191  0.1191
   77SLPC  H10R 6994  -0.027   2.868   7.581 -1.5075  0.1197 -0.3843
   77SLPC  C211 6995  -0.120   3.039   7.685 -0.2274 -0.0296 -0.1296
   77SLPC  H11R 6996  -0.201   2.970   7.716 -1.0053 -0.1559 -2.2492
   77SLPC  H11S 6997  -0.165   3.135   7.653  2.8500  1.4014 -0.5037
   77SLPC  C212 6998  -0.015   3.080   7.789  0.9374  0.5260 -0.1987
   77SLPC  H12R 6999   0.069   3.142   7.753  0.4563  0.7852 -0.8767
   77SLPC  C213 7000  -0.020   3.051   7.918  0.4011  0.2116 -0.7423
   77SLPC  H13R 7001   0.067   3.084   7.977  2.1133 -1.9183 -1.9566
   77SLPC  C214 7002  -0.132   2.972   7.985 -0.2507 -0.1072 -0.1654
   77SLPC  H14R 7003  -0.100   2.866   7.991 -1.2554 -0.3894  0.4716
   77SLPC  H14S 7004  -0.223   2.981   7.921  1.3323  0.6306 -2.4479
   77SLPC  C215 7005  -0.175   3.034   8.121 -0.5266 -0.7824 -0.7231
   77SLPC  H15R 7006  -0.268   2.982   8.152 -0.0588  0.0655  2.5572
   77SLPC  H15S 7007  -0.202   3.141   8.110 -1.8820 -0.9834  0.3448
   77SLPC  C216 7008  -0.061   3.035   8.232  1.1072  0.1648  0.1465
   77SLPC  H16R 7009   0.033   3.089   8.206  1.3041  0.1292  0.7676
   77SLPC  H16S 7010  -0.035   2.927   8.242  0.5361 -0.0349 -0.4627
   77SLPC  C217 7011  -0.102   3.100   8.369 -0.5201  0.9145 -0.6184
   77SLPC  H17R 7012  -0.125   3.207   8.352  1.0107  1.9399  2.9588
   77SLPC  H17S 7013  -0.019   3.095   8.443  0.4081 -0.1632 -1.6906
   77SLPC  C218 7014  -0.221   3.026   8.447 -0.4438 -0.0594  0.2069
   77SLPC  H18R 7015  -0.247   3.085   8.538 -1.4724  0.9411 -0.7043
   77SLPC  H18S 7016  -0.196   2.920   8.464 -0.3552  0.2210  2.0260
   77SLPC  H18T 7017  -0.319   3.033   8.397 -1.7323 -1.7412  2.3338
   77SLPC   C33 7018   0.422   2.994   7.234 -0.6005  0.3243  0.0834
   77SLPC   H3X 7019   0.342   3.071   7.241 -0.2981  0.4787  2.3170
   77SLPC   H3Y 7020   0.512   3.030   7.288 -0.9522  0.6677  0.4518
   77SLPC   C34 7021   0.358   2.879   7.310 -0.7864  0.4227 -0.5058
   77SLPC   H4X 7022   0.416   2.785   7.298  1.1972  0.8742  3.6041
   77SLPC   H4Y 7023   0.254   2.872   7.270 -0.7653 -0.5986 -0.3883
   77SLPC   C35 7024   0.358   2.912   7.458 -0.8242 -0.1259  1.1026
   77SLPC   H5X 7025   0.306   3.007   7.480  0.7868  1.2369 -0.6620
   77SLPC   H5Y 7026   0.463   2.932   7.488  0.0801 -0.0937 -1.8086
   77SLPC   C36 7027   0.290   2.805   7.539  0.2818 -0.2330 -0.0005
   77SLPC   H6X 7028   0.336   2.705   7.524  1.1418  0.1622 -0.0183
   77SLPC   H6Y 7029   0.185   2.796   7.503  0.5719 -0.0924 -0.9119
   77SLPC   C37 7030   0.291   2.841   7.691 -0.1994 -0.4327 -0.0536
   77SLPC   H7X 7031   0.264   2.748   7.745  2.1826 -2.4613 -2.1195
   77SLPC   H7Y 7032   0.213   2.920   7.706  1.1682  1.4875 -2.3308
   77SLPC   C38 7033   0.425   2.897   7.743 -0.4049  0.5418  0.1050
   77SLPC   H8X 7034   0.448   3.001   7.713  2.3764  0.3374  1.2441
   77SLPC   H8Y 7035   0.508   2.828   7.714 -1.4209 -0.4307 -0.5962
   77SLPC   C39 7036   0.417   2.891   7.895 -0.0952  0.4735 -0.0998
   77SLPC   H9X 7037   0.345   2.811   7.921  0.2567 -0.2904 -1.3979
   77SLPC   H9Y 7038   0.373   2.984   7.937 -0.8064  0.3069 -0.4620
   77SLPC  C310 7039   0.545   2.860   7.961 -0.1654  0.6071 -0.5270
   77SLPC  H10X 7040   0.625   2.934   7.938  0.7554 -0.0033  0.6092
   77SLPC  H10Y 7041   0.579   2.756   7.946 -0.1925  0.5462 -0.1838
   77SLPC  C311 7042   0.533   2.861   8.112 -0.4615 -0.1903  0.0603
   77SLPC  H11X 7043   0.471   2.943   8.154 -1.2565 -1.1681  0.8399
   77SLPC  H11Y 7044   0.635   2.867   8.155 -1.5599  1.3054  2.6694
   77SLPC  C312 7045   0.465   2.726   8.170 -0.2195 -0.3476 -0.0221
   77SLPC  H12X 7046   0.488   2.642   8.101 -0.1924  0.1164 -0.5897
   77SLPC  H12Y 7047   0.356   2.736   8.188 -0.4419 -0.6083 -1.1665
   77SLPC  C313 7048   0.529   2.687   8.302  0.1480 -0.0068 -0.7553
   77SLPC  H13X 7049   0.512   2.775   8.369 -0.4826 -1.4392  1.0440
   77SLPC  H13Y 7050   0.638   2.686   8.284  0.1726 -0.4997 -0.5794
   77SLPC  C314 7051   0.472   2.567   8.368 -0.3267 -0.1533 -0.4527
   77SLPC  H14X 7052   0.543   2.541   8.450  0.9530  0.8854 -1.2027
   77SLPC  H14Y 7053   0.466   2.490   8.288 -0.8870  0.7933 -1.3330
   77SLPC  C315 7054   0.328   2.585   8.423  0.6062  0.2530 -0.4897
   77SLPC  H15X 7055   0.286   2.485   8.449 -1.5369  1.3087  0.3476
   77SLPC  H15Y 7056   0.255   2.628   8.351 -0.1984  2.5381  1.5763
   77SLPC  C316 7057   0.319   2.678   8.549 -0.5465  0.0568  1.2416
   77SLPC  H16X 7058   0.363   2.777   8.523  3.2426 -1.4204  1.3017
   77SLPC  H16Y 7059   0.381   2.634   8.630  1.0231 -0.6148 -0.2421
   77SLPC  C317 7060   0.175   2.694   8.595 -0.1539 -0.4998 -0.0176
   77SLPC  H17X 7061   0.120   2.602   8.569 -1.1546  0.2911 -0.7598
   77SLPC  H17Y 7062   0.131   2.779   8.539 -2.0571 -0.2887  1.6672
   77SLPC  C318 7063   0.168   2.715   8.748  0.1107 -0.2648  1.3881
   77SLPC  H18X 7064   0.063   2.723   8.782 -0.9250 -3.0835 -0.7182
   77SLPC  H18Y 7065   0.218   2.808   8.782 -0.5696  0.5233  0.3133
   77SLPC  H18Z 7066   0.212   2.631   8.806 -0.5106  0.1724  2.5162
   78SLPC     N 7067   4.409   3.874   5.746  0.0157  0.3300 -0.7343
   78SLPC   C13 7068   4.470   3.773   5.645 -0.4074  0.0411  0.9163
   78SLPC  H13A 7069   4.391   3.733   5.584  0.3268 -0.5475  0.3398
   78SLPC  H13B 7070   4.533   3.842   5.589  2.5004 -0.7554  2.9542
   78SLPC  H13C 7071   4.524   3.687   5.682 -2.3196 -0.2837  3.1766
   78SLPC   C14 7072   4.331   3.978   5.665 -0.2706 -0.4182  0.0757
   78SLPC  H14A 7073   4.393   4.039   5.602 -1.4440 -0.8648 -1.5943
   78SLPC  H14B 7074   4.262   3.926   5.599 -1.4094  0.9830  0.1219
   78SLPC  H14C 7075   4.273   4.047   5.724 -1.1023 -1.8386  1.0045
   78SLPC   C15 7076   4.513   3.946   5.824  0.6575 -0.2266 -0.5851
   78SLPC  H15A 7077   4.467   4.043   5.840  0.0272 -0.3612 -1.4540
   78SLPC  H15B 7078   4.541   3.901   5.917 -0.0103 -1.6645 -1.0589
   78SLPC  H15C 7079   4.606   3.965   5.772  0.7445 -2.4309 -1.3425
   78SLPC   C12 7080   4.317   3.806   5.844  0.2850 -0.4274  0.0390
   78SLPC  H12A 7081   4.227   3.778   5.790 -0.1003 -0.5339  0.7337
   78SLPC  H12B 7082   4.290   3.876   5.921 -0.5829 -0.3064 -0.3543
   78SLPC   C11 7083   4.384   3.682   5.908 -0.1979 -0.2929 -0.6238
   78SLPC  H11A 7084   4.444   3.621   5.837  0.1861  0.8588 -1.3129
   78SLPC  H11B 7085   4.305   3.614   5.947  0.6543  0.1165  2.0945
   78SLPC     P 7086   4.418   3.755   6.168  0.2944  0.1335  0.1656
   78SLPC   O13 7087   4.526   3.822   6.235  0.0146 -0.2988  0.1188
   78SLPC   O14 7088   4.299   3.834   6.164  0.2328 -0.5150 -0.1895
   78SLPC   O12 7089   4.466   3.712   6.030 -0.2625  0.2075  0.1468
   78SLPC   O11 7090   4.394   3.619   6.236 -0.7658 -0.1876 -0.2551
   78SLPC    C1 7091   4.270   3.543   6.214 -0.0950  0.2029  0.2948
   78SLPC    HA 7092   4.217   3.552   6.117 -3.5078 -0.4518  1.9769
   78SLPC    HB 7093   4.296   3.435   6.224  0.7763  0.5146  1.7508
   78SLPC    C2 7094   4.167   3.563   6.329  0.5639 -0.0473 -0.2295
   78SLPC    HS 7095   4.150   3.672   6.331 -2.0253 -0.3667 -0.6119
   78SLPC   O21 7096   4.216   3.510   6.453  0.0241  0.3791  0.5354
   78SLPC   C21 7097   4.244   3.595   6.540 -0.2708 -0.0104 -0.3001
   78SLPC   O22 7098   4.236   3.717   6.524  0.3412 -0.5431  0.1764
   78SLPC   C22 7099   4.297   3.525   6.663  0.0711 -0.7631 -0.7062
   78SLPC   H2R 7100   4.266   3.418   6.660 -0.4301 -0.6159 -0.8200
   78SLPC   H2S 7101   4.408   3.523   6.658  0.1039 -2.3974  0.0225
   78SLPC    C3 7102   4.030   3.499   6.298 -0.1840 -0.3348 -0.8686
   78SLPC    HX 7103   4.055   3.392   6.309 -0.0494 -0.2622 -0.4419
   78SLPC    HY 7104   3.986   3.528   6.200 -1.4412  0.9776  0.0295
   78SLPC   O31 7105   3.940   3.545   6.398 -0.2343  0.5028 -0.1353
   78SLPC   C31 7106   3.882   3.664   6.382 -0.8244 -0.6210 -0.1405
   78SLPC   O32 7107   3.894   3.736   6.288 -0.2575  0.5400  0.0540
   78SLPC   C32 7108   3.786   3.697   6.496  0.4970  0.4657 -0.3453
   78SLPC   H2X 7109   3.720   3.607   6.502  0.1463  0.7268 -0.2564
   78SLPC   H2Y 7110   3.721   3.784   6.475 -0.1563  0.2955  0.8522
   78SLPC   C23 7111   4.257   3.600   6.798 -0.4664  0.1835 -0.2347
   78SLPC   H3R 7112   4.148   3.606   6.819 -0.5780  0.4090 -0.8446
   78SLPC   H3S 7113   4.298   3.704   6.804  2.1095 -0.6623 -1.6109
   78SLPC   C24 7114   4.322   3.534   6.922  0.3188 -0.2282  0.7612
   78SLPC   H4R 7115   4.432   3.522   6.921  0.1356 -3.9201 -2.8350
   78SLPC   H4S 7116   4.285   3.429   6.925 -2.6220  0.7492  1.9584
   78SLPC   C25 7117   4.272   3.596   7.052  0.2604 -0.2232  0.0119
   78SLPC   H5R 7118   4.165   3.570   7.067 -0.1637  1.0492 -0.5714
   78SLPC   H5S 7119   4.257   3.706   7.043  0.0182 -0.3041 -0.6707
   78SLPC   C26 7120   4.347   3.553   7.182 -0.3600  0.1087 -0.3769
   78SLPC   H6R 7121   4.454   3.581   7.167 -0.5957 -0.0327 -2.6360
   78SLPC   H6S 7122   4.348   3.443   7.196  0.9119  0.2979  1.3295
   78SLPC   C27 7123   4.298   3.624   7.310 -0.4091 -0.8992  0.6074
   78SLPC   H7R 7124   4.219   3.559   7.353  0.5497 -1.0677  2.2212
   78SLPC   H7S 7125   4.255   3.721   7.278 -3.8851 -2.9032 -1.4181
   78SLPC   C28 7126   4.413   3.649   7.408 -0.2512  0.2172  0.7779
   78SLPC   H8R 7127   4.375   3.722   7.482  0.1199  0.7852  0.4146
   78SLPC   H8S 7128   4.485   3.712   7.352 -2.7937 -0.7736 -4.1883
   78SLPC   C29 7129   4.468   3.532   7.475 -0.4559  0.2249  0.4476
   78SLPC   H9R 7130   4.553   3.481   7.428 -1.7344 -0.4347 -1.2729
   78SLPC  C210 7131   4.410   3.475   7.581 -0.2903 -0.3599  0.3461
   78SLPC  H10R 7132   4.464   3.400   7.640  1.7445  1.4090  0.8681
   78SLPC  C211 7133   4.273   3.511   7.647 -0.2403  0.1948  0.3807
   78SLPC  H11R 7134   4.210   3.422   7.669  0.9354 -0.7183  0.1410
   78SLPC  H11S 7135   4.210   3.562   7.571 -0.4066  0.3367  0.6133
   78SLPC  C212 7136   4.282   3.594   7.773 -0.0170  0.2287  0.9763
   78SLPC  H12R 7137   4.308   3.697   7.745  1.6321 -0.7693 -1.5017
   78SLPC  C213 7138   4.275   3.559   7.907  0.3575  0.4844  0.5330
   78SLPC  H13R 7139   4.278   3.634   7.987  1.3574  0.2781  0.7076
   78SLPC  C214 7140   4.268   3.414   7.955  0.0101  0.1279  0.4500
   78SLPC  H14R 7141   4.369   3.386   7.990  1.2908  3.9576  0.2261
   78SLPC  H14S 7142   4.238   3.339   7.879  0.5774  1.7148 -1.4033
   78SLPC  C215 7143   4.168   3.376   8.075 -0.3047 -0.7784 -0.1369
   78SLPC  H15R 7144   4.168   3.266   8.088  1.5479 -0.8603 -0.5626
   78SLPC  H15S 7145   4.070   3.416   8.041  0.5249 -0.0889 -1.8137
   78SLPC  C216 7146   4.201   3.441   8.212 -0.8271  1.1127 -0.8709
   78SLPC  H16R 7147   4.117   3.408   8.276 -0.4462  2.4112  0.3311
   78SLPC  H16S 7148   4.196   3.552   8.207  2.4248  1.4686  0.8609
   78SLPC  C217 7149   4.340   3.391   8.266 -0.3927  0.1981 -0.0811
   78SLPC  H17R 7150   4.416   3.422   8.192 -1.1410  1.7631 -0.2349
   78SLPC  H17S 7151   4.331   3.281   8.279 -0.8960  0.4242  1.8093
   78SLPC  C218 7152   4.376   3.441   8.404  0.8373  0.1960 -0.1794
   78SLPC  H18R 7153   4.290   3.411   8.468  0.7477 -0.5857 -0.6596
   78SLPC  H18S 7154   4.389   3.551   8.404  2.0306  0.1071  1.9090
   78SLPC  H18T 7155   4.469   3.399   8.450 -0.5939 -1.3065  1.5193
   78SLPC   C33 7156   3.862   3.719   6.634  0.4992 -0.1817 -0.3652
   78SLPC   H3X 7157   3.892   3.826   6.626  1.1836 -0.3832 -0.5728
   78SLPC   H3Y 7158   3.954   3.658   6.642  0.3667 -0.2468  0.8610
   78SLPC   C34 7159   3.765   3.702   6.756 -0.4936 -0.1983  1.3406
   78SLPC   H4X 7160   3.710   3.605   6.758 -1.8110  0.3692 -1.8021
   78SLPC   H4Y 7161   3.696   3.787   6.741 -0.4089 -0.3605 -0.1373
   78SLPC   C35 7162   3.845   3.707   6.881  0.7435 -0.0091 -0.0962
   78SLPC   H5X 7163   3.893   3.808   6.890  0.2505  0.2863 -0.7030
   78SLPC   H5Y 7164   3.930   3.637   6.865  2.4287  2.4267 -3.2178
   78SLPC   C36 7165   3.766   3.684   7.010  0.5683 -0.4586 -0.6678
   78SLPC   H6X 7166   3.705   3.591   7.006 -1.8103  1.0125 -1.0666
   78SLPC   H6Y 7167   3.700   3.773   7.019  1.1524  0.0780 -1.5227
   78SLPC   C37 7168   3.850   3.668   7.143  0.2667  0.3795 -0.5866
   78SLPC   H7X 7169   3.927   3.748   7.150  0.0140  0.5309  0.8750
   78SLPC   H7Y 7170   3.908   3.573   7.137  0.8993  0.8181 -1.6809
   78SLPC   C38 7171   3.764   3.680   7.262 -0.1395  0.2612  0.0289
   78SLPC   H8X 7172   3.685   3.601   7.260  0.3298 -0.1957 -1.1741
   78SLPC   H8Y 7173   3.716   3.780   7.268 -0.7779 -0.0797  0.8041
   78SLPC   C39 7174   3.831   3.629   7.388  0.3559 -0.0077 -0.3368
   78SLPC   H9X 7175   3.929   3.682   7.392 -0.2064  1.0951 -0.6974
   78SLPC   H9Y 7176   3.848   3.520   7.382 -2.1222 -0.4896  0.4223
   78SLPC  C310 7177   3.756   3.672   7.516 -0.3258 -0.2956 -0.0070
   78SLPC  H10X 7178   3.647   3.653   7.506 -0.2853 -1.8772  1.8218
   78SLPC  H10Y 7179   3.759   3.782   7.529 -0.5498 -0.1773 -0.9308
   78SLPC  C311 7180   3.802   3.612   7.652 -0.5895 -0.8156 -0.5948
   78SLPC  H11X 7181   3.910   3.627   7.675 -0.8667  0.3947 -0.0344
   78SLPC  H11Y 7182   3.799   3.501   7.643 -0.5280 -0.7257 -1.9072
   78SLPC  C312 7183   3.726   3.681   7.771  0.0330 -0.0666  0.5705
   78SLPC  H12X 7184   3.618   3.681   7.743 -0.0843 -0.0689  1.0128
   78SLPC  H12Y 7185   3.776   3.780   7.778 -1.7320  0.8422  1.1634
   78SLPC  C313 7186   3.746   3.610   7.910 -0.3670  0.4624 -0.9723
   78SLPC  H13X 7187   3.854   3.587   7.917 -0.6585 -0.5339  1.0881
   78SLPC  H13Y 7188   3.684   3.517   7.912 -0.9616  0.8680  0.7323
   78SLPC  C314 7189   3.705   3.713   8.013  0.7104  0.2092 -0.5316
   78SLPC  H14X 7190   3.597   3.736   8.013  0.7244  0.2841  0.4276
   78SLPC  H14Y 7191   3.760   3.807   7.993  1.6223 -0.0370  0.6944
   78SLPC  C315 7192   3.739   3.668   8.159  0.2303 -0.0252  0.7313
   78SLPC  H15X 7193   3.844   3.634   8.171 -0.6106 -2.9416  0.6981
   78SLPC  H15Y 7194   3.673   3.581   8.181  0.5059 -0.1107  1.2166
   78SLPC  C316 7195   3.697   3.765   8.269 -0.6794  0.1284 -0.8359
   78SLPC  H16X 7196   3.590   3.784   8.250 -0.9598 -0.0560  0.4768
   78SLPC  H16Y 7197   3.756   3.857   8.248  1.0678 -0.3067  1.7611
   78SLPC  C317 7198   3.709   3.719   8.414 -0.3505  0.8998  0.4391
   78SLPC  H17X 7199   3.704   3.815   8.471  1.3698 -0.6264  3.3787
   78SLPC  H17Y 7200   3.807   3.670   8.427  0.3778  1.8922 -0.9837
   78SLPC  C318 7201   3.596   3.633   8.471  0.7279  0.3806  0.2222
   78SLPC  H18X 7202   3.626   3.611   8.576  0.7899 -1.4565 -0.1582
   78SLPC  H18Y 7203   3.571   3.536   8.423 -1.6296  1.8519 -1.7254
   78SLPC  H18Z 7204   3.511   3.703   8.454  2.7499  2.7274 -0.9656
   79SLPC     N 7205   0.724   5.842   6.115  0.5465  0.0486  0.0481
   79SLPC   C13 7206   0.631   5.950   6.084  0.3686 -0.1233  0.3170
   79SLPC  H13A 7207   0.614   5.952   5.977  0.8026 -0.0149  0.2489
   79SLPC  H13B 7208   0.536   5.935   6.135 -0.5099  0.5254 -1.0569
   79SLPC  H13C 7209   0.668   6.047   6.112  0.2289 -0.5940  2.2793
   79SLPC   C14 7210   0.847   5.866   6.027  0.6594  0.0038  0.1405
   79SLPC  H14A 7211   0.933   5.803   6.047  1.0508  0.4284 -0.1689
   79SLPC  H14B 7212   0.817   5.852   5.924 -0.6324 -2.1160  0.7418
   79SLPC  H14C 7213   0.866   5.971   6.039 -2.5989  0.8376 -1.0905
   79SLPC   C15 7214   0.656   5.715   6.075 -0.5760 -0.7047  0.4394
   79SLPC  H15A 7215   0.716   5.630   6.104 -3.4088 -2.3717  1.9544
   79SLPC  H15B 7216   0.561   5.707   6.126 -0.2356 -0.4531  1.1209
   79SLPC  H15C 7217   0.641   5.710   5.968  0.0384  0.1954  0.3031
   79SLPC   C12 7218   0.770   5.836   6.259  0.1177  0.6215 -0.1090
   79SLPC  H12A 7219   0.845   5.913   6.268 -1.1557  1.8943 -0.1430
   79SLPC  H12B 7220   0.824   5.742   6.265 -0.6084  0.1352 -0.9606
   79SLPC   C11 7221   0.667   5.844   6.370 -0.4224  0.0325  0.5597
   79SLPC  H11A 7222   0.718   5.840   6.469  1.0600  1.3848 -0.1162
   79SLPC  H11B 7223   0.604   5.752   6.374 -0.0331 -0.3165 -0.9266
   79SLPC     P 7224   0.634   6.098   6.414  0.8897 -0.0629 -0.1162
   79SLPC   O13 7225   0.778   6.115   6.377 -0.1702  0.4093  0.6511
   79SLPC   O14 7226   0.545   6.210   6.360 -0.7702 -0.2126  0.4287
   79SLPC   O12 7227   0.589   5.960   6.355  0.0103 -0.1565 -0.6729
   79SLPC   O11 7228   0.607   6.083   6.575 -0.3340  0.2227 -0.6723
   79SLPC    C1 7229   0.465   6.052   6.606 -1.3518 -0.5147 -0.0224
   79SLPC    HA 7230   0.415   5.981   6.536  0.4347 -0.6244 -1.2502
   79SLPC    HB 7231   0.470   5.989   6.698  0.8104  0.6766  0.7587
   79SLPC    C2 7232   0.374   6.171   6.645  0.7638 -0.0319  0.6031
   79SLPC    HS 7233   0.376   6.246   6.563 -1.8585  0.0577  0.5352
   79SLPC   O21 7234   0.406   6.237   6.766 -0.1574 -0.2553  0.0554
   79SLPC   C21 7235   0.509   6.318   6.762 -0.0091  1.2142 -1.0618
   79SLPC   O22 7236   0.566   6.359   6.664 -0.0335  0.0684  0.4677
   79SLPC   C22 7237   0.551   6.369   6.898 -0.0167  0.7218  0.4416
   79SLPC   H2R 7238   0.463   6.418   6.946 -0.6851  1.5283 -1.5243
   79SLPC   H2S 7239   0.592   6.288   6.961 -1.7069  0.1571  0.8521
   79SLPC    C3 7240   0.230   6.127   6.653 -0.3921 -0.0855 -0.0139
   79SLPC    HX 7241   0.197   6.093   6.553 -0.7376 -2.4034  0.8238
   79SLPC    HY 7242   0.162   6.209   6.684 -1.3610 -1.5677  1.9732
   79SLPC   O31 7243   0.225   6.015   6.746  0.1346 -0.9255 -0.5953
   79SLPC   C31 7244   0.186   5.902   6.718  0.4404  0.8610  0.0572
   79SLPC   O32 7245   0.138   5.863   6.610  0.5310 -0.0528 -0.0896
   79SLPC   C32 7246   0.195   5.815   6.840 -0.5427 -0.1044  0.1749
   79SLPC   H2X 7247   0.192   5.881   6.929 -0.6802 -1.2872  1.0703
   79SLPC   H2Y 7248   0.299   5.776   6.828 -0.0715  0.7185  1.4154
   79SLPC   C23 7249   0.669   6.468   6.894  0.1389  0.0747 -0.4628
   79SLPC   H3R 7250   0.633   6.566   6.856 -2.2555 -0.5260  0.1260
   79SLPC   H3S 7251   0.736   6.409   6.827 -0.5296 -1.9030  0.5128
   79SLPC   C24 7252   0.719   6.499   7.038 -0.1559  0.7678 -0.0186
   79SLPC   H4R 7253   0.802   6.573   7.031  2.2968 -1.5221  2.1706
   79SLPC   H4S 7254   0.771   6.402   7.058 -1.0751  0.3944  0.6210
   79SLPC   C25 7255   0.629   6.547   7.152 -0.0767 -0.7793 -0.2240
   79SLPC   H5R 7256   0.709   6.556   7.229  0.6607 -0.6919 -0.9955
   79SLPC   H5S 7257   0.562   6.462   7.176  1.9788 -1.6979  2.8747
   79SLPC   C26 7258   0.562   6.680   7.126 -0.2132  0.0898 -0.2443
   79SLPC   H6R 7259   0.517   6.664   7.026 -0.8625 -4.1284  0.5243
   79SLPC   H6S 7260   0.629   6.768   7.115 -1.9835  1.4475 -0.4548
   79SLPC   C27 7261   0.468   6.722   7.237  0.3341  0.0670 -0.1826
   79SLPC   H7R 7262   0.383   6.651   7.245  1.6395 -1.5410 -0.1232
   79SLPC   H7S 7263   0.421   6.821   7.222 -1.6809 -0.5421  1.5839
   79SLPC   C28 7264   0.538   6.728   7.372 -0.2724 -0.0022 -0.2340
   79SLPC   H8R 7265   0.641   6.769   7.365 -0.3684  0.6767  1.5636
   79SLPC   H8S 7266   0.567   6.623   7.395  1.3852  1.0162  2.9560
   79SLPC   C29 7267   0.465   6.785   7.493 -0.5836 -0.1913 -0.0270
   79SLPC   H9R 7268   0.372   6.840   7.473 -0.0896  0.2323 -1.1935
   79SLPC  C210 7269   0.508   6.757   7.619  0.2016  0.3184 -0.0346
   79SLPC  H10R 7270   0.449   6.808   7.698  0.7081  0.8915 -0.0196
   79SLPC  C211 7271   0.633   6.670   7.657  0.7305  0.2972 -0.0104
   79SLPC  H11R 7272   0.728   6.726   7.642  1.2974 -0.6393 -0.0274
   79SLPC  H11S 7273   0.658   6.587   7.588  3.4857 -0.0923  1.2956
   79SLPC  C212 7274   0.613   6.608   7.792  0.2324 -0.7870  0.0811
   79SLPC  H12R 7275   0.556   6.515   7.789 -0.2966 -0.4598 -2.1254
   79SLPC  C213 7276   0.646   6.667   7.909 -0.5561  0.1474  0.4237
   79SLPC  H13R 7277   0.654   6.600   7.997  1.7010 -0.8042 -0.4239
   79SLPC  C214 7278   0.724   6.795   7.922  0.7456  0.0534  0.0373
   79SLPC  H14R 7279   0.730   6.861   7.833  0.1909 -1.3813 -1.0803
   79SLPC  H14S 7280   0.831   6.779   7.950  0.5367  1.4489  1.8575
   79SLPC  C215 7281   0.662   6.883   8.039 -0.0818  1.1537  0.1726
   79SLPC  H15R 7282   0.554   6.896   8.016 -0.5478 -2.7218 -0.4183
   79SLPC  H15S 7283   0.708   6.984   8.034  1.1162  0.6236 -0.0123
   79SLPC  C216 7284   0.685   6.820   8.184  0.6767 -0.3585 -0.6229
   79SLPC  H16R 7285   0.791   6.788   8.195  1.1445  1.6418  1.5048
   79SLPC  H16S 7286   0.633   6.722   8.188  1.4937 -0.7754  1.1458
   79SLPC  C217 7287   0.646   6.925   8.296  0.1393 -0.4288  0.1147
   79SLPC  H17R 7288   0.701   7.018   8.270  1.3134 -0.2677  2.9080
   79SLPC  H17S 7289   0.682   6.891   8.395 -2.7208 -2.8968  0.4463
   79SLPC  C218 7290   0.501   6.957   8.287 -0.2374  0.2749 -0.0942
   79SLPC  H18R 7291   0.445   6.870   8.328  2.6991 -0.9949  1.5460
   79SLPC  H18S 7292   0.469   6.972   8.182  0.1939 -1.2021 -0.4677
   79SLPC  H18T 7293   0.469   7.042   8.351  1.2604  0.0128  1.0694
   79SLPC   C33 7294   0.088   5.706   6.861  0.7669  0.2924 -0.3851
   79SLPC   H3X 7295   0.101   5.629   6.782 -0.2601 -0.1985 -0.0891
   79SLPC   H3Y 7296  -0.009   5.754   6.835  0.5287  0.4951  0.8164
   79SLPC   C34 7297   0.068   5.654   6.996 -0.2237 -0.3802  0.4628
   79SLPC   H4X 7298   0.046   5.744   7.058  0.5089  0.4076 -0.3904
   79SLPC   H4Y 7299   0.167   5.616   7.031  1.0549  0.5638 -1.8817
   79SLPC   C35 7300  -0.054   5.561   7.012 -0.1605  0.0553 -0.2930
   79SLPC   H5X 7301  -0.042   5.478   6.939  0.6099 -0.7362  0.7036
   79SLPC   H5Y 7302  -0.136   5.634   6.990 -1.6549 -1.7699 -1.0535
   79SLPC   C36 7303  -0.079   5.502   7.156 -0.6310 -1.0907  0.1812
   79SLPC   H6X 7304   0.008   5.434   7.169  0.3421 -0.0285 -0.5512
   79SLPC   H6Y 7305  -0.168   5.436   7.157 -1.3820 -0.2620 -2.8510
   79SLPC   C37 7306  -0.086   5.602   7.270 -0.0808  0.3093  0.1887
   79SLPC   H7X 7307  -0.152   5.682   7.230 -0.5097 -0.3608 -0.4770
   79SLPC   H7Y 7308   0.012   5.639   7.306  0.9274 -0.3739 -1.7042
   79SLPC   C38 7309  -0.151   5.531   7.387 -0.5804 -0.1612 -0.2822
   79SLPC   H8X 7310  -0.131   5.422   7.395 -0.5536 -0.2843 -1.7274
   79SLPC   H8Y 7311  -0.262   5.530   7.384 -0.5555 -0.7438 -1.5483
   79SLPC   C39 7312  -0.095   5.584   7.524  0.1701 -0.0108  0.0825
   79SLPC   H9X 7313  -0.063   5.689   7.505  1.6110 -0.6260 -1.1410
   79SLPC   H9Y 7314  -0.006   5.526   7.554 -0.5322 -1.0757  0.1583
   79SLPC  C310 7315  -0.203   5.570   7.638 -0.2868 -0.4937  0.2507
   79SLPC  H10X 7316  -0.247   5.468   7.637  3.0158 -2.1735  3.2949
   79SLPC  H10Y 7317  -0.280   5.648   7.625  0.1326 -0.3763 -1.9336
   79SLPC  C311 7318  -0.137   5.585   7.782  0.9011  0.3386 -0.0904
   79SLPC  H11X 7319  -0.067   5.671   7.776  0.3374  0.6975 -2.7933
   79SLPC  H11Y 7320  -0.077   5.498   7.818  0.3825 -0.9637 -2.2140
   79SLPC  C312 7321  -0.243   5.612   7.884  0.0037  0.4908  0.0595
   79SLPC  H12X 7322  -0.289   5.512   7.899 -1.1182  0.9483 -0.2591
   79SLPC  H12Y 7323  -0.304   5.688   7.832 -0.3898 -0.0667 -0.3130
   79SLPC  C313 7324  -0.197   5.654   8.022 -0.0974  0.4159  0.4053
   79SLPC  H13X 7325  -0.121   5.734   8.016 -0.1298  0.4293  0.1509
   79SLPC  H13Y 7326  -0.150   5.557   8.052 -2.7336 -1.8799 -2.1543
   79SLPC  C314 7327  -0.320   5.672   8.122  0.1987  1.0040  0.7207
   79SLPC  H14X 7328  -0.403   5.603   8.097  3.1073 -2.2023 -1.0032
   79SLPC  H14Y 7329  -0.361   5.773   8.099  1.1212  1.2929  0.3027
   79SLPC  C315 7330  -0.271   5.669   8.264 -0.0952  0.5601 -0.1259
   79SLPC  H15X 7331  -0.323   5.734   8.337  1.1870  0.8573  0.5502
   79SLPC  H15Y 7332  -0.169   5.711   8.258  0.3847 -0.0178  2.6650
   79SLPC  C316 7333  -0.275   5.530   8.323 -0.1071 -0.6994  0.1149
   79SLPC  H16X 7334  -0.206   5.459   8.272  0.5418  1.5957 -2.3981
   79SLPC  H16Y 7335  -0.379   5.489   8.323 -0.6856  0.7022 -0.6028
   79SLPC  C317 7336  -0.241   5.537   8.477 -0.1281  0.2491 -0.5387
   79SLPC  H17X 7337  -0.334   5.571   8.528 -1.1260 -1.8437 -0.8313
   79SLPC  H17Y 7338  -0.160   5.611   8.494  0.5307 -0.4195 -0.7231
   79SLPC  C318 7339  -0.173   5.415   8.539  0.5679 -0.0483  0.1871
   79SLPC  H18X 7340  -0.068   5.408   8.506  1.1622  0.3538  1.8818
   79SLPC  H18Y 7341  -0.232   5.329   8.502  2.6523 -1.0166 -1.0473
   79SLPC  H18Z 7342  -0.184   5.424   8.650  2.1185  2.1218  0.2285
   80SLPC     N 7343   3.553   4.793   6.163  0.3620  0.5109 -0.1352
   80SLPC   C13 7344   3.637   4.912   6.121 -0.0911 -0.1864 -0.8173
   80SLPC  H13A 7345   3.707   4.883   6.044  1.3788  1.3087 -0.1140
   80SLPC  H13B 7346   3.575   4.991   6.083  0.6073  1.1529  0.7127
   80SLPC  H13C 7347   3.694   4.953   6.203 -2.4135  2.6203 -0.4612
   80SLPC   C14 7348   3.652   4.681   6.175 -0.0793 -0.7472  0.0980
   80SLPC  H14A 7349   3.704   4.657   6.084 -0.2676 -0.9384  0.0389
   80SLPC  H14B 7350   3.729   4.711   6.245  0.1612  1.0058 -0.8890
   80SLPC  H14C 7351   3.606   4.589   6.209  1.5747 -1.4451  0.5433
   80SLPC   C15 7352   3.457   4.767   6.063 -0.6339 -0.3507 -0.2652
   80SLPC  H15A 7353   3.398   4.678   6.072 -0.0066 -1.1174 -2.8055
   80SLPC  H15B 7354   3.386   4.848   6.064  0.7414  0.9136  2.0210
   80SLPC  H15C 7355   3.512   4.751   5.971  0.8349 -2.7677  0.9357
   80SLPC   C12 7356   3.481   4.815   6.301 -0.0845  0.4682 -0.0891
   80SLPC  H12A 7357   3.433   4.911   6.292 -1.8249 -0.2390  0.9841
   80SLPC  H12B 7358   3.548   4.833   6.383  1.0371 -3.0982 -0.0352
   80SLPC   C11 7359   3.373   4.712   6.355 -0.4945 -0.1140 -0.3360
   80SLPC  H11A 7360   3.284   4.717   6.288 -0.3888 -1.0085 -0.5612
   80SLPC  H11B 7361   3.348   4.739   6.460  1.1417 -1.4792  0.4445
   80SLPC     P 7362   3.370   4.463   6.289  0.1151  0.0431  0.2194
   80SLPC   O13 7363   3.242   4.510   6.233  0.0807 -0.6257 -0.2100
   80SLPC   O14 7364   3.467   4.412   6.189  0.3252  0.2004 -0.2848
   80SLPC   O12 7365   3.439   4.588   6.364 -0.3718 -0.0772 -0.3160
   80SLPC   O11 7366   3.341   4.361   6.400  0.4341  0.3531 -0.2210
   80SLPC    C1 7367   3.382   4.380   6.537 -0.0351  0.1834  0.0880
   80SLPC    HA 7368   3.486   4.419   6.544  0.1573 -0.5738  2.5397
   80SLPC    HB 7369   3.318   4.446   6.599 -0.6223  1.8571 -2.1748
   80SLPC    C2 7370   3.390   4.234   6.616  0.0553 -0.0772 -0.1080
   80SLPC    HS 7371   3.374   4.254   6.724 -0.0766 -1.4907  0.1513
   80SLPC   O21 7372   3.525   4.189   6.596 -0.0010  0.5209 -0.1408
   80SLPC   C21 7373   3.611   4.180   6.700  0.0521  0.3734  0.3088
   80SLPC   O22 7374   3.578   4.191   6.818  0.1243  0.4801  0.7530
   80SLPC   C22 7375   3.748   4.163   6.644 -0.0979  0.4056  0.1047
   80SLPC   H2R 7376   3.741   4.114   6.545  0.5137  1.4200 -0.4479
   80SLPC   H2S 7377   3.788   4.266   6.633 -1.7899  0.8795 -2.3845
   80SLPC    C3 7378   3.298   4.121   6.569  0.0588  0.4340 -0.5016
   80SLPC    HX 7379   3.348   4.072   6.482  0.6808 -1.2339  0.7402
   80SLPC    HY 7380   3.204   4.164   6.529  0.0854 -0.0253 -1.0776
   80SLPC   O31 7381   3.274   4.030   6.681  1.0434  0.4213 -0.6667
   80SLPC   C31 7382   3.357   3.924   6.677  0.0884 -0.0216 -0.0402
   80SLPC   O32 7383   3.457   3.920   6.607 -0.4383  0.1647  0.0383
   80SLPC   C32 7384   3.296   3.814   6.757  0.2466 -0.6595  0.4133
   80SLPC   H2X 7385   3.348   3.717   6.744  0.7591 -0.0438 -3.1020
   80SLPC   H2Y 7386   3.193   3.806   6.715  0.5323 -0.2815 -0.3781
   80SLPC   C23 7387   3.843   4.089   6.732 -0.5400 -0.2818 -0.0688
   80SLPC   H3R 7388   3.816   3.982   6.723 -2.3331  0.2535 -1.9355
   80SLPC   H3S 7389   3.829   4.128   6.835  4.2163  0.7905  0.3959
   80SLPC   C24 7390   3.989   4.118   6.699  0.5817 -0.0083 -0.1845
   80SLPC   H4R 7391   4.014   4.223   6.725 -1.2375  0.4202 -0.0202
   80SLPC   H4S 7392   4.007   4.118   6.590  0.9335  2.6036 -0.1956
   80SLPC   C25 7393   4.088   4.019   6.769 -0.1179  0.0639  0.1267
   80SLPC   H5R 7394   4.184   3.989   6.722  0.4888 -1.2228  2.0414
   80SLPC   H5S 7395   4.041   3.919   6.782 -0.2242  0.1841  0.7201
   80SLPC   C26 7396   4.130   4.077   6.906 -0.3962 -0.3620 -0.5201
   80SLPC   H6R 7397   4.042   4.135   6.942 -1.8401 -0.7289 -3.1993
   80SLPC   H6S 7398   4.197   4.165   6.892 -0.0381 -0.4007  0.7771
   80SLPC   C27 7399   4.196   3.980   6.998 -0.5662  0.4339 -0.1855
   80SLPC   H7R 7400   4.291   3.949   6.948  1.4132  1.1094  2.8483
   80SLPC   H7S 7401   4.148   3.886   7.031  0.1779 -0.6412 -2.0118
   80SLPC   C28 7402   4.251   4.048   7.124 -0.1656  0.0658 -0.1823
   80SLPC   H8R 7403   4.301   4.139   7.084 -1.2262 -0.0178 -1.7904
   80SLPC   H8S 7404   4.333   3.984   7.164  1.1824  1.2345 -0.9488
   80SLPC   C29 7405   4.139   4.088   7.217 -0.0167  0.7040  0.4008
   80SLPC   H9R 7406   4.056   4.134   7.162  0.9459  1.9523 -0.0540
   80SLPC  C210 7407   4.132   4.070   7.353 -0.6769  0.0220  0.4861
   80SLPC  H10R 7408   4.043   4.099   7.410 -2.4589 -1.9750 -1.1329
   80SLPC  C211 7409   4.236   4.000   7.442  0.0730 -0.0843  0.3199
   80SLPC  H11R 7410   4.283   4.072   7.512 -1.2851  2.0033 -0.7824
   80SLPC  H11S 7411   4.310   3.939   7.385 -0.7351 -2.7335  1.9231
   80SLPC  C212 7412   4.157   3.896   7.523 -0.0037 -0.0489  0.0491
   80SLPC  H12R 7413   4.123   3.804   7.473 -1.5182 -0.2609  1.4020
   80SLPC  C213 7414   4.111   3.908   7.652 -0.2081 -0.3850 -0.4240
   80SLPC  H13R 7415   4.071   3.811   7.685  1.0461 -0.7453  0.0942
   80SLPC  C214 7416   4.136   4.023   7.749  0.1970 -0.5793  0.5297
   80SLPC  H14R 7417   4.041   4.076   7.776  0.2263 -1.5005  2.6032
   80SLPC  H14S 7418   4.212   4.095   7.710 -0.4887  0.5938  1.2851
   80SLPC  C215 7419   4.198   3.967   7.883 -0.2938 -0.4871 -0.3958
   80SLPC  H15R 7420   4.252   4.043   7.943 -0.5479  0.0268 -0.8063
   80SLPC  H15S 7421   4.267   3.886   7.851  1.9388  0.6824  1.1173
   80SLPC  C216 7422   4.084   3.915   7.974 -0.3094  0.2240 -0.6404
   80SLPC  H16R 7423   4.046   3.829   7.914 -1.5627  0.3834 -0.1030
   80SLPC  H16S 7424   4.012   3.999   7.977 -2.1843 -1.3313  1.9066
   80SLPC  C217 7425   4.117   3.855   8.106 -0.1586 -0.8976 -0.2141
   80SLPC  H17R 7426   4.216   3.805   8.112  1.0876  1.5398  1.5733
   80SLPC  H17S 7427   4.038   3.784   8.139 -0.8627 -0.2018 -0.3873
   80SLPC  C218 7428   4.124   3.966   8.216  0.2626 -0.1306  0.4510
   80SLPC  H18R 7429   4.197   4.047   8.193  0.4086 -0.4489 -0.2271
   80SLPC  H18S 7430   4.157   3.934   8.316  1.1618 -0.1722  0.1486
   80SLPC  H18T 7431   4.023   4.013   8.211  0.4427  0.1580 -1.8346
   80SLPC   C33 7432   3.286   3.848   6.912  0.5379 -0.1908  0.7299
   80SLPC   H3X 7433   3.197   3.796   6.952 -0.2023 -0.3788 -1.0647
   80SLPC   H3Y 7434   3.273   3.958   6.923  1.3297  0.0244 -0.2760
   80SLPC   C34 7435   3.416   3.810   6.985  0.0336 -0.2837  0.0125
   80SLPC   H4X 7436   3.484   3.895   6.962 -0.7862  0.3462 -0.1683
   80SLPC   H4Y 7437   3.456   3.716   6.942  1.6893 -0.5521  2.0349
   80SLPC   C35 7438   3.411   3.800   7.139 -0.2764  0.5590  0.9326
   80SLPC   H5X 7439   3.380   3.900   7.177 -1.4214  0.5973 -0.0449
   80SLPC   H5Y 7440   3.511   3.771   7.180  0.1856  1.4575  0.4829
   80SLPC   C36 7441   3.309   3.700   7.198 -0.2654  0.0559  0.1590
   80SLPC   H6X 7442   3.319   3.610   7.133  1.3944  1.1274 -1.1636
   80SLPC   H6Y 7443   3.207   3.742   7.182  0.3451  1.8368  0.7471
   80SLPC   C37 7444   3.347   3.654   7.343  0.2825 -0.2628 -0.4420
   80SLPC   H7X 7445   3.426   3.575   7.338  1.1011  0.5521 -0.6726
   80SLPC   H7Y 7446   3.260   3.596   7.380 -0.0970  0.5705 -0.0051
   80SLPC   C38 7447   3.391   3.763   7.436  0.2453 -0.3336  0.4416
   80SLPC   H8X 7448   3.324   3.851   7.421 -0.8997 -1.0996  0.8695
   80SLPC   H8Y 7449   3.496   3.790   7.413  0.1242  0.8034  1.1112
   80SLPC   C39 7450   3.375   3.728   7.579 -0.1749  0.3364  0.2186
   80SLPC   H9X 7451   3.430   3.637   7.608  0.6940  0.3897 -1.1772
   80SLPC   H9Y 7452   3.266   3.707   7.587  0.1225 -0.5839  2.3179
   80SLPC  C310 7453   3.400   3.847   7.675  0.6025  0.3073 -0.3365
   80SLPC  H10X 7454   3.342   3.933   7.635 -0.9959 -0.0065  1.1779
   80SLPC  H10Y 7455   3.505   3.883   7.677  0.2759  1.3868 -1.4273
   80SLPC  C311 7456   3.353   3.825   7.826  0.3451  1.1133 -0.1727
   80SLPC  H11X 7457   3.396   3.743   7.888  0.7639  1.4296 -0.0350
   80SLPC  H11Y 7458   3.244   3.811   7.814  0.1013  2.1081  0.7237
   80SLPC  C312 7459   3.364   3.948   7.912 -0.4755 -0.8324  0.7175
   80SLPC  H12X 7460   3.323   4.033   7.853 -1.8605 -1.9826 -0.0284
   80SLPC  H12Y 7461   3.473   3.959   7.931 -0.5760  0.3358  0.7006
   80SLPC  C313 7462   3.298   3.938   8.047 -0.7048 -0.2491  0.0029
   80SLPC  H13X 7463   3.297   3.828   8.067 -0.9808 -0.5174 -1.4199
   80SLPC  H13Y 7464   3.191   3.969   8.042 -0.6364  0.2508  1.2635
   80SLPC  C314 7465   3.367   4.011   8.167 -0.0504  0.1165  0.0935
   80SLPC  H14X 7466   3.340   4.119   8.165 -0.5592  0.0442 -3.0512
   80SLPC  H14Y 7467   3.476   3.997   8.155  0.3214  1.4857  1.6211
   80SLPC  C315 7468   3.333   3.954   8.309  0.1986 -0.5078 -0.1129
   80SLPC  H15X 7469   3.397   3.865   8.324  1.4689  0.0781 -1.7015
   80SLPC  H15Y 7470   3.224   3.934   8.308  0.6392 -3.4355 -2.1498
   80SLPC  C316 7471   3.375   4.058   8.416  0.6542  0.0695  0.2237
   80SLPC  H16X 7472   3.368   4.003   8.512 -1.9146  0.6856  0.4638
   80SLPC  H16Y 7473   3.310   4.148   8.415 -2.0492 -1.7014 -2.5784
   80SLPC  C317 7474   3.514   4.110   8.398 -0.6390 -0.6763  0.3288
   80SLPC  H17X 7475   3.517   4.203   8.337 -0.1498 -0.2494  0.9935
   80SLPC  H17Y 7476   3.569   4.024   8.355  1.1289 -0.5070  2.1156
   80SLPC  C318 7477   3.578   4.141   8.532  0.2316  1.0914 -0.2413
   80SLPC  H18X 7478   3.685   4.168   8.521  0.8870 -0.0545  2.5187
   80SLPC  H18Y 7479   3.562   4.062   8.608  1.1375  3.0576  2.1120
   80SLPC  H18Z 7480   3.524   4.232   8.566  0.3575  1.7875 -1.7967
   81SAPS     N 7481   2.668   6.078  11.036  0.6031 -0.2591 -0.5800
   81SAPS   HN1 7482   2.566   6.097  11.049  1.1225  0.3569  3.9906
   81SAPS   HN2 7483   2.699   6.139  10.957 -1.1576  1.2617 -0.1613
   81SAPS   HN3 7484   2.683   5.977  11.013  0.7930 -0.3742  0.0574
   81SAPS   C12 7485   2.737   6.113  11.166  0.0232 -0.1387 -0.4731
   81SAPS  H12A 7486   2.710   6.216  11.184 -1.2282 -0.3922 -0.7701
   81SAPS   C13 7487   2.685   6.018  11.276  0.5263 -0.1198 -0.8074
   81SAPS  O13A 7488   2.588   5.937  11.268 -0.0429  0.5524  0.1847
   81SAPS  O13B 7489   2.724   6.051  11.388 -0.5282 -0.8722  0.1139
   81SAPS   C11 7490   2.888   6.093  11.144 -0.8365 -0.2363 -0.0232
   81SAPS  H11A 7491   2.910   5.987  11.118  0.0369  0.1571 -0.9243
   81SAPS  H11B 7492   2.942   6.116  11.238  0.0397  2.2144 -1.0595
   81SAPS     P 7493   3.086   6.144  10.967 -0.4924  0.1458 -0.0427
   81SAPS   O13 7494   3.158   6.273  10.952 -0.0479  0.3286 -0.1342
   81SAPS   O14 7495   3.163   6.045  11.042  0.0891  0.0854 -0.0412
   81SAPS   O12 7496   2.952   6.182  11.046  0.0941  0.5944 -0.4976
   81SAPS   O11 7497   3.039   6.098  10.829 -0.7952 -0.4367 -0.0753
   81SAPS    C1 7498   3.047   5.966  10.780  0.7547  0.7618  0.1925
   81SAPS    HA 7499   3.154   5.936  10.774 -0.1050 -2.4394 -2.0201
   81SAPS    HB 7500   2.994   5.897  10.849  0.3511  2.4831  1.7048
   81SAPS    C2 7501   2.975   5.940  10.647 -0.3975  0.0658 -0.1576
   81SAPS    HS 7502   2.970   5.833  10.618 -0.3580  0.4401 -1.6606
   81SAPS   O21 7503   3.038   6.013  10.539  0.0139  0.2257  0.5252
   81SAPS   C21 7504   3.164   5.971  10.513 -0.4042 -0.5420  0.5956
   81SAPS   O22 7505   3.220   5.874  10.558 -0.1139 -0.0458 -0.3879
   81SAPS   C22 7506   3.239   6.066  10.422  0.3063 -0.4779  0.0823
   81SAPS   H2R 7507   3.177   6.154  10.393  1.4206  0.6870  1.0782
   81SAPS   H2S 7508   3.329   6.105  10.473  0.6009  0.1404 -0.8727
   81SAPS    C3 7509   2.827   5.990  10.658  0.4712 -0.4839  0.1019
   81SAPS    HX 7510   2.824   6.101  10.646 -3.2585 -0.6310 -1.7577
   81SAPS    HY 7511   2.795   5.979  10.763  1.1644  1.7945  0.6019
   81SAPS   O31 7512   2.742   5.925  10.564  0.6671 -0.1546 -0.2999
   81SAPS   C31 7513   2.712   6.001  10.460  0.1579 -0.3540  0.6613
   81SAPS   O32 7514   2.747   6.118  10.441 -0.8087 -0.2068  0.1186
   81SAPS   C32 7515   2.593   5.937  10.387  0.1786 -0.5618 -0.2121
   81SAPS   H2X 7516   2.508   5.969  10.451  1.5642  3.4547 -0.1485
   81SAPS   H2Y 7517   2.603   5.826  10.393 -1.1159 -0.7805 -1.4870
   81SAPS   C23 7518   3.289   5.984  10.298  0.3515  0.2054  0.4111
   81SAPS   H3R 7519   3.348   5.900  10.341 -0.5532 -0.8276 -0.3226
   81SAPS   H3S 7520   3.356   6.053  10.242 -0.3600  0.3185 -0.3119
   81SAPS   C24 7521   3.184   5.924  10.201  0.1219 -0.3236  0.2923
   81SAPS   H4R 7522   3.132   5.847  10.261 -0.9482 -0.6147 -0.9741
   81SAPS   H4S 7523   3.239   5.871  10.121  1.7566  1.8666 -0.1367
   81SAPS   C25 7524   3.086   6.019  10.139 -0.0646 -0.5075 -0.5382
   81SAPS   H5R 7525   3.020   6.072  10.209 -1.5908 -2.1076 -0.6851
   81SAPS   C26 7526   3.088   6.044  10.008  0.6860  0.1141  0.0920
   81SAPS   H6R 7527   3.021   6.125   9.975  1.3241  1.3723  1.7498
   81SAPS   C27 7528   3.174   6.000   9.885  0.2271  0.7795 -0.3534
   81SAPS   H7R 7529   3.262   5.939   9.916  0.7754  1.4492 -0.5617
   81SAPS   H7S 7530   3.215   6.084   9.825 -0.3871  0.6415 -0.9823
   81SAPS   C28 7531   3.092   5.900   9.810 -0.6491 -0.3173  0.6551
   81SAPS   H8R 7532   3.026   5.842   9.875 -1.3267  0.5902  0.8048
   81SAPS   C29 7533   3.063   5.896   9.674  0.2415 -0.0011 -0.3014
   81SAPS   H9R 7534   2.993   5.820   9.638  0.9137 -0.5902 -0.3944
   81SAPS  C210 7535   3.118   5.981   9.564  0.4858  0.1173 -0.3792
   81SAPS  H10R 7536   3.187   5.915   9.508 -1.0528  0.5990 -3.0481
   81SAPS  H10S 7537   3.180   6.063   9.607  0.0352  0.3609 -0.1834
   81SAPS  C211 7538   3.010   6.030   9.464  0.7738  0.1986 -0.8493
   81SAPS  H11R 7539   2.922   6.066   9.519  0.1302 -3.3238  0.6719
   81SAPS  C212 7540   2.998   6.008   9.332  1.0082 -0.2096 -0.5048
   81SAPS  H12R 7541   2.913   6.047   9.273  2.0332  0.3332 -1.6675
   81SAPS  C213 7542   3.098   5.943   9.241 -0.6297  0.5463  0.1278
   81SAPS  H13R 7543   3.187   5.902   9.294 -1.8953 -1.9430  0.4566
   81SAPS  H13S 7544   3.122   6.020   9.164  0.2167 -0.2881 -0.4597
   81SAPS  C214 7545   3.032   5.821   9.178  0.6716 -0.3350  0.0715
   81SAPS  H14R 7546   3.003   5.749   9.256  0.6546 -0.5530 -0.1323
   81SAPS  C215 7547   3.002   5.792   9.049  0.7189 -0.8785  0.1786
   81SAPS  H15R 7548   2.943   5.703   9.022  2.1214 -1.4873 -1.0303
   81SAPS  C216 7549   3.038   5.883   8.942  0.5009 -0.0112  0.6442
   81SAPS  H16R 7550   3.065   5.832   8.847 -0.0307  0.2670  0.3338
   81SAPS  H16S 7551   3.131   5.941   8.961 -0.2264  1.9490 -1.3408
   81SAPS  C217 7552   2.928   5.973   8.902 -0.3258  0.2027 -0.8376
   81SAPS  H17R 7553   2.904   6.045   8.983 -0.7010  1.5457 -2.1061
   81SAPS  H17S 7554   2.837   5.912   8.880 -0.4052 -0.6780  1.6101
   81SAPS  C218 7555   2.963   6.053   8.776  0.4648 -0.4443  0.8227
   81SAPS  H18R 7556   2.882   6.129   8.765  0.2873 -0.8453 -0.8211
   81SAPS  H18S 7557   2.949   5.993   8.684 -0.0419  1.1719 -0.1961
   81SAPS  C219 7558   3.096   6.113   8.769 -0.1944 -0.2009 -0.2678
   81SAPS  H19R 7559   3.175   6.036   8.768 -0.7779 -0.8077 -0.4748
   81SAPS  H19S 7560   3.114   6.170   8.862  1.2804  0.1190 -0.7203
   81SAPS  C220 7561   3.122   6.209   8.663  0.2806  0.9933 -0.1445
   81SAPS  H20R 7562   3.068   6.305   8.679 -2.8454 -0.9508  2.1153
   81SAPS  H20S 7563   3.075   6.161   8.575 -1.1699  1.9074  0.1085
   81SAPS  H20T 7564   3.232   6.224   8.662  0.2152  1.5817  0.5234
   81SAPS   C33 7565   2.567   5.983  10.243 -0.3174  0.3346 -0.4684
   81SAPS   H3X 7566   2.558   6.094  10.239  1.3519  0.5268  0.3354
   81SAPS   H3Y 7567   2.467   5.946  10.211  0.2394  0.1225 -2.0860
   81SAPS   C34 7568   2.669   5.932  10.141 -0.0539  0.1285  1.0760
   81SAPS   H4X 7569   2.659   5.822  10.128 -0.7257  0.3409 -0.5404
   81SAPS   H4Y 7570   2.770   5.943  10.185  0.4554 -1.5420  0.3714
   81SAPS   C35 7571   2.648   5.995   9.998  0.5195  0.2260 -0.8107
   81SAPS   H5X 7572   2.665   6.105   9.991 -1.6620  0.6318 -0.2702
   81SAPS   H5Y 7573   2.542   5.978   9.970  0.3837 -1.4499  0.6052
   81SAPS   C36 7574   2.733   5.923   9.892 -0.7431  0.0177  0.5796
   81SAPS   H6X 7575   2.718   5.814   9.880  1.0410 -0.0897 -1.3159
   81SAPS   H6Y 7576   2.836   5.938   9.932 -0.9737 -0.9261  1.5507
   81SAPS   C37 7577   2.710   5.981   9.752  1.0255  0.0182  0.1855
   81SAPS   H7X 7578   2.795   5.978   9.680 -0.2995  0.9354 -1.5176
   81SAPS   H7Y 7579   2.684   6.088   9.762  1.3222  0.0208  0.9406
   81SAPS   C38 7580   2.580   5.927   9.685  0.5556  0.1806 -0.2177
   81SAPS   H8X 7581   2.496   5.979   9.737  0.9281  2.7029 -1.9777
   81SAPS   H8Y 7582   2.576   5.816   9.687 -0.9695  0.1715 -1.6342
   81SAPS   C39 7583   2.560   5.976   9.538 -1.0372 -0.6998 -0.1497
   81SAPS   H9X 7584   2.619   6.069   9.522 -0.1541 -1.2902 -0.4541
   81SAPS   H9Y 7585   2.456   5.994   9.504 -0.9930 -0.6872 -0.2801
   81SAPS  C310 7586   2.636   5.877   9.441  0.1374 -0.4496  0.7351
   81SAPS  H10X 7587   2.609   5.772   9.464  2.2455 -1.3381 -0.5232
   81SAPS  H10Y 7588   2.746   5.880   9.449  0.2854 -0.9154 -0.7792
   81SAPS  C311 7589   2.595   5.904   9.294  0.3919  0.0627 -0.1692
   81SAPS  H11X 7590   2.657   5.981   9.245 -2.1557  2.2852 -0.1419
   81SAPS  H11Y 7591   2.491   5.943   9.291  0.3732  0.1017  0.6989
   81SAPS  C312 7592   2.588   5.773   9.216 -0.8605  0.2159 -0.0948
   81SAPS  H12X 7593   2.505   5.711   9.257  0.1595  0.9584  3.4545
   81SAPS  H12Y 7594   2.678   5.707   9.210 -0.1775  1.0292  0.8631
   81SAPS  C313 7595   2.553   5.804   9.067 -0.1510 -0.7333 -0.8983
   81SAPS  H13X 7596   2.648   5.820   9.012  0.4648 -0.2458  0.2711
   81SAPS  H13Y 7597   2.490   5.895   9.072 -0.6725 -1.1630  2.3796
   81SAPS  C314 7598   2.462   5.692   8.996  0.0926 -0.1727  0.4970
   81SAPS  H14X 7599   2.369   5.666   9.051 -0.1042 -0.1331  0.1813
   81SAPS  H14Y 7600   2.522   5.598   9.001  0.3884 -0.1010 -1.2263
   81SAPS  C315 7601   2.435   5.731   8.850 -0.3618 -0.1904 -0.3300
   81SAPS  H15X 7602   2.529   5.773   8.807  0.7559 -3.0710 -0.9024
   81SAPS  H15Y 7603   2.350   5.802   8.858 -0.6735 -0.2613 -2.3947
   81SAPS  C316 7604   2.406   5.613   8.761 -0.5718 -1.1420 -0.1059
   81SAPS  H16X 7605   2.313   5.557   8.787 -1.7143  0.6876 -0.0134
   81SAPS  H16Y 7606   2.491   5.543   8.770  1.5780  1.2259 -0.8515
   81SAPS  C317 7607   2.400   5.643   8.608  0.1463 -0.3869 -0.1857
   81SAPS  H17X 7608   2.495   5.662   8.553 -1.1022 -1.1498 -2.7685
   81SAPS  H17Y 7609   2.329   5.722   8.576  2.8867  1.3906 -2.3771
   81SAPS  C318 7610   2.335   5.523   8.544  0.3097 -0.6329 -0.2100
   81SAPS  H18X 7611   2.233   5.499   8.581 -0.0543  0.5411 -0.4069
   81SAPS  H18Y 7612   2.403   5.441   8.574 -0.0358 -1.1622 -0.8382
   81SAPS  H18Z 7613   2.327   5.518   8.433  1.1961 -1.1389 -0.2568
   82SAPS     N 7614   0.280   4.651  11.264 -0.4663 -0.2540  0.4099
   82SAPS   HN1 7615   0.372   4.629  11.308 -0.5337 -2.0961 -0.2646
   82SAPS   HN2 7616   0.211   4.628  11.338 -1.1473  0.7006  0.0921
   82SAPS   HN3 7617   0.273   4.592  11.178  0.6780  1.0185 -0.6074
   82SAPS   C12 7618   0.249   4.794  11.224 -0.2392  0.6307  0.1557
   82SAPS  H12A 7619   0.142   4.798  11.207 -0.1130 -2.1302 -1.8911
   82SAPS   C13 7620   0.293   4.890  11.332 -0.4294 -0.3915  0.0084
   82SAPS  O13A 7621   0.332   4.849  11.450  0.1133  0.4450  0.3255
   82SAPS  O13B 7622   0.304   5.012  11.300  0.3125  0.6610  0.7774
   82SAPS   C11 7623   0.317   4.830  11.088  0.2149 -0.5711 -0.0137
   82SAPS  H11A 7624   0.427   4.840  11.104 -0.0521 -1.0380  2.4663
   82SAPS  H11B 7625   0.283   4.933  11.062  1.7023  0.0380  0.2740
   82SAPS     P 7626   0.181   4.751  10.870  0.5633 -0.4631 -0.1916
   82SAPS   O13 7627   0.048   4.749  10.928  0.1258  0.3295 -0.2899
   82SAPS   O14 7628   0.225   4.875  10.803  0.1070 -0.4212  0.4320
   82SAPS   O12 7629   0.291   4.734  10.990 -0.3519 -0.0848  0.4082
   82SAPS   O11 7630   0.226   4.625  10.781 -0.3829  0.1509 -0.2114
   82SAPS    C1 7631   0.357   4.625  10.724 -0.3911  0.0620  0.1289
   82SAPS    HA 7632   0.430   4.693  10.774 -1.1998  1.2762 -0.2966
   82SAPS    HB 7633   0.391   4.519  10.725 -2.2163 -0.5734  2.6668
   82SAPS    C2 7634   0.344   4.662  10.572 -0.1683  0.2078  0.1833
   82SAPS    HS 7635   0.289   4.758  10.560 -0.4378 -0.0626 -0.8066
   82SAPS   O21 7636   0.292   4.545  10.510  0.8359  0.0287  0.0904
   82SAPS   C21 7637   0.199   4.565  10.422  0.2913 -0.5846  0.0933
   82SAPS   O22 7638   0.166   4.674  10.376  0.3082 -0.3600  0.4578
   82SAPS   C22 7639   0.141   4.426  10.375  0.7134 -0.5217 -0.2893
   82SAPS   H2R 7640   0.147   4.351  10.457 -1.6049  0.0663  0.5206
   82SAPS   H2S 7641   0.034   4.455  10.368 -0.0933 -3.0391  0.3833
   82SAPS    C3 7642   0.494   4.710  10.523  0.6376 -0.0170 -1.4873
   82SAPS    HX 7643   0.565   4.634  10.562  2.5975  2.2114 -0.5310
   82SAPS    HY 7644   0.525   4.792  10.591 -0.8037 -1.2705  0.8229
   82SAPS   O31 7645   0.505   4.737  10.387  0.1308  0.1067  0.3376
   82SAPS   C31 7646   0.448   4.849  10.349  0.6089 -0.6939  0.5868
   82SAPS   O32 7647   0.389   4.930  10.418 -0.6465  0.3704 -0.2586
   82SAPS   C32 7648   0.477   4.887  10.202 -0.0883  0.0250 -0.6800
   82SAPS   H2X 7649   0.466   4.792  10.145  0.1995  0.5374 -1.6008
   82SAPS   H2Y 7650   0.583   4.915  10.189 -0.0874 -0.1954 -1.1598
   82SAPS   C23 7651   0.205   4.372  10.244  1.3828 -0.3381  0.2998
   82SAPS   H3R 7652   0.315   4.366  10.237  1.4881  1.9582 -1.1920
   82SAPS   H3S 7653   0.182   4.449  10.167  0.0579 -0.2577  0.7427
   82SAPS   C24 7654   0.146   4.236  10.196  0.3090  0.6097  0.1855
   82SAPS   H4R 7655   0.205   4.199  10.110  2.0163 -1.4133  2.1117
   82SAPS   H4S 7656   0.037   4.245  10.177 -0.6409 -1.7848  3.6280
   82SAPS   C25 7657   0.166   4.130  10.304  0.1560 -0.0082 -0.4733
   82SAPS   H5R 7658   0.250   4.147  10.373 -0.1583 -1.5363  0.3395
   82SAPS   C26 7659   0.085   4.025  10.327 -0.6418 -0.1734  0.0822
   82SAPS   H6R 7660   0.100   3.961  10.416  0.4455  0.6928  0.5441
   82SAPS   C27 7661  -0.043   3.987  10.257  0.2912  0.4022  0.3113
   82SAPS   H7R 7662  -0.039   3.881  10.225  0.7169 -0.3705  2.7626
   82SAPS   H7S 7663  -0.058   4.034  10.157  3.0577  1.1336  0.1605
   82SAPS   C28 7664  -0.164   4.016  10.346  0.1411  0.7506  0.0907
   82SAPS   H8R 7665  -0.145   4.009  10.454  1.4592  0.3789 -0.1418
   82SAPS   C29 7666  -0.282   4.066  10.296 -0.4429  0.1184  0.1917
   82SAPS   H9R 7667  -0.374   4.073  10.355 -0.0568 -2.2737  1.1949
   82SAPS  C210 7668  -0.304   4.110  10.152 -0.0629 -0.4467 -0.2847
   82SAPS  H10R 7669  -0.413   4.101  10.133 -0.4455 -0.7119  1.7797
   82SAPS  H10S 7670  -0.240   4.039  10.095  0.6999 -1.2821  1.5065
   82SAPS  C211 7671  -0.245   4.244  10.133  0.0161  0.5265 -0.0050
   82SAPS  H11R 7672  -0.204   4.288  10.226  1.8362  0.5128 -0.7611
   82SAPS  C212 7673  -0.218   4.305  10.017 -0.4644 -0.2519  0.3985
   82SAPS  H12R 7674  -0.152   4.392  10.011  1.0583 -1.4262 -1.0074
   82SAPS  C213 7675  -0.269   4.257   9.882  0.1931  0.1588 -0.2235
   82SAPS  H13R 7676  -0.318   4.348   9.842 -0.9985 -0.6378 -0.6608
   82SAPS  H13S 7677  -0.345   4.177   9.898 -1.6964  1.6941 -0.9856
   82SAPS  C214 7678  -0.151   4.207   9.795  0.1052 -0.6528  0.0745
   82SAPS  H14R 7679  -0.090   4.127   9.839  1.2667  1.0876  1.8314
   82SAPS  C215 7680  -0.114   4.259   9.673 -0.6752 -0.4167 -0.1651
   82SAPS  H15R 7681  -0.025   4.225   9.618 -0.1948  0.1997  0.2170
   82SAPS  C216 7682  -0.195   4.370   9.609  0.6305  0.1972 -0.3731
   82SAPS  H16R 7683  -0.197   4.465   9.667 -2.9967 -0.4204  0.7991
   82SAPS  H16S 7684  -0.301   4.340   9.597  0.5095  0.3119  0.3784
   82SAPS  C217 7685  -0.151   4.417   9.463 -0.3942 -0.5934  0.0952
   82SAPS  H17R 7686  -0.052   4.468   9.454 -0.5005 -0.7567 -2.6731
   82SAPS  H17S 7687  -0.233   4.481   9.426  0.7053  0.8715  0.0893
   82SAPS  C218 7688  -0.154   4.298   9.366  0.2255 -0.2194  0.0630
   82SAPS  H18R 7689  -0.256   4.258   9.352 -0.1413  0.4329  0.8114
   82SAPS  H18S 7690  -0.076   4.223   9.393  0.1524 -0.2529  0.1828
   82SAPS  C219 7691  -0.115   4.341   9.221  0.1368 -0.2370  0.0682
   82SAPS  H19R 7692  -0.007   4.354   9.203  0.1330  2.1992  1.4472
   82SAPS  H19S 7693  -0.149   4.446   9.207  1.7614  0.4439  1.0199
   82SAPS  C220 7694  -0.179   4.262   9.107  0.3461  0.0776  0.0527
   82SAPS  H20R 7695  -0.152   4.155   9.123  0.9474  0.3943  1.2485
   82SAPS  H20S 7696  -0.140   4.297   9.010  3.3878 -0.3353  1.0043
   82SAPS  H20T 7697  -0.290   4.265   9.097  0.4446 -1.6118 -2.2078
   82SAPS   C33 7698   0.384   4.988  10.140 -0.3156 -1.0511  0.7697
   82SAPS   H3X 7699   0.434   5.083  10.167 -1.2335 -1.1635  3.1821
   82SAPS   H3Y 7700   0.283   4.982  10.186 -0.9918 -2.5487 -0.8092
   82SAPS   C34 7701   0.366   4.977   9.986 -0.5079 -0.2964 -0.7936
   82SAPS   H4X 7702   0.289   5.052   9.957  0.6274  1.5832  0.7745
   82SAPS   H4Y 7703   0.316   4.880   9.966  1.7540 -2.0107  1.2432
   82SAPS   C35 7704   0.489   4.988   9.903  0.2192  0.1613  0.7335
   82SAPS   H5X 7705   0.570   4.920   9.938 -0.4631 -0.6317  0.8093
   82SAPS   H5Y 7706   0.521   5.094   9.913 -0.2879  0.2658  1.2830
   82SAPS   C36 7707   0.461   4.954   9.757 -0.6765 -0.1980  0.0434
   82SAPS   H6X 7708   0.370   5.016   9.738 -0.8381 -0.3038  0.4739
   82SAPS   H6Y 7709   0.424   4.850   9.756 -0.2027 -0.3899  1.4116
   82SAPS   C37 7710   0.574   4.975   9.651 -0.4598  0.0910  0.1061
   82SAPS   H7X 7711   0.657   4.908   9.684 -1.5533  0.5755  4.3429
   82SAPS   H7Y 7712   0.614   5.078   9.646 -1.2661  0.3528 -2.0497
   82SAPS   C38 7713   0.539   4.934   9.504  0.2699 -0.4824 -0.3110
   82SAPS   H8X 7714   0.616   4.972   9.434  0.0992  2.0533  0.7623
   82SAPS   H8Y 7715   0.450   4.995   9.477  1.3553  1.2409 -0.1881
   82SAPS   C39 7716   0.520   4.779   9.492  0.7514  0.1926  0.8472
   82SAPS   H9X 7717   0.436   4.747   9.558 -0.1034  2.1986  0.8038
   82SAPS   H9Y 7718   0.613   4.723   9.514  0.2264 -0.6704  0.9187
   82SAPS  C310 7719   0.469   4.753   9.343 -0.2435  0.2965  0.2080
   82SAPS  H10X 7720   0.561   4.735   9.284 -0.3334  0.8742 -0.1258
   82SAPS  H10Y 7721   0.411   4.842   9.309 -4.3215 -0.8721  3.3172
   82SAPS  C311 7722   0.376   4.629   9.340  0.0538 -0.6673 -0.3887
   82SAPS  H11X 7723   0.287   4.633   9.407  1.7719  0.3437  1.9956
   82SAPS  H11Y 7724   0.436   4.540   9.369  0.6538 -0.7535 -1.8337
   82SAPS  C312 7725   0.323   4.620   9.199 -0.0389  0.3242 -1.1951
   82SAPS  H12X 7726   0.415   4.622   9.138  2.2920  2.1553  2.0565
   82SAPS  H12Y 7727   0.267   4.711   9.168  0.4131  0.4983 -1.5002
   82SAPS  C313 7728   0.241   4.490   9.180 -0.2812 -0.1138 -0.2004
   82SAPS  H13X 7729   0.152   4.477   9.245 -1.0606 -3.3354 -1.7143
   82SAPS  H13Y 7730   0.309   4.412   9.218 -0.5801 -0.3336 -0.1093
   82SAPS  C314 7731   0.215   4.460   9.030  0.7753  0.5790  0.1235
   82SAPS  H14X 7732   0.155   4.367   9.020  0.8710  0.6155 -0.8800
   82SAPS  H14Y 7733   0.312   4.441   8.981 -0.1943 -0.9045 -1.3452
   82SAPS  C315 7734   0.150   4.581   8.968 -0.4936 -0.0630 -0.5882
   82SAPS  H15X 7735   0.217   4.668   8.951 -0.7411  0.1226 -0.6165
   82SAPS  H15Y 7736   0.074   4.629   9.033  0.4784  0.8788 -0.1183
   82SAPS  C316 7737   0.093   4.552   8.828 -0.2898  0.4032 -0.9952
   82SAPS  H16X 7738   0.048   4.646   8.790  0.0160  0.9286 -0.0955
   82SAPS  H16Y 7739   0.007   4.481   8.826  1.3139 -1.6163 -1.2528
   82SAPS  C317 7740   0.203   4.510   8.729 -0.1590  0.0409 -0.0122
   82SAPS  H17X 7741   0.242   4.407   8.745  1.1881  0.7255  1.4320
   82SAPS  H17Y 7742   0.289   4.579   8.735  2.4613 -3.0292  0.3546
   82SAPS  C318 7743   0.154   4.529   8.583 -0.1701  0.2800  0.1965
   82SAPS  H18X 7744   0.075   4.451   8.574  0.7077 -0.6596  0.3898
   82SAPS  H18Y 7745   0.244   4.500   8.524 -0.4477 -0.3179  0.0613
   82SAPS  H18Z 7746   0.129   4.635   8.563  0.4256  0.3146 -0.3885
   83SAPS     N 7747   3.632   1.779  11.179 -0.2436 -0.0219 -0.1413
   83SAPS   HN1 7748   3.640   1.680  11.208  2.0554 -0.1429 -0.9775
   83SAPS   HN2 7749   3.638   1.770  11.076 -0.6883 -0.5100 -0.1303
   83SAPS   HN3 7750   3.716   1.831  11.213  0.4627 -1.3464  0.1922
   83SAPS   C12 7751   3.502   1.842  11.230 -0.1286  0.2266 -0.6489
   83SAPS  H12A 7752   3.492   1.842  11.337 -1.2571  1.9455 -0.7238
   83SAPS   C13 7753   3.481   1.986  11.182 -0.0855 -0.5405 -0.4992
   83SAPS  O13A 7754   3.571   2.044  11.111  0.5274  0.6315  0.2273
   83SAPS  O13B 7755   3.386   2.054  11.229  0.2257  0.1936  0.4056
   83SAPS   C11 7756   3.385   1.751  11.177  0.4818 -0.0832 -0.4590
   83SAPS  H11A 7757   3.378   1.774  11.068 -0.9344 -0.1465 -0.4000
   83SAPS  H11B 7758   3.297   1.809  11.213  0.6070  1.4047 -2.3667
   83SAPS     P 7759   3.292   1.512  11.155  0.4152 -0.3232 -0.1350
   83SAPS   O13 7760   3.368   1.385  11.143 -0.2421  0.1089  0.0484
   83SAPS   O14 7761   3.164   1.502  11.232  0.0621  0.4194  0.3414
   83SAPS   O12 7762   3.388   1.618  11.217 -0.2465  0.7113  0.6542
   83SAPS   O11 7763   3.255   1.558  10.998 -0.9042 -0.1402 -0.4447
   83SAPS    C1 7764   3.350   1.525  10.895 -0.4146 -0.2802  0.1622
   83SAPS    HA 7765   3.374   1.616  10.837 -0.9964  0.9801  1.8289
   83SAPS    HB 7766   3.449   1.491  10.932  0.9267  2.1058 -1.0459
   83SAPS    C2 7767   3.303   1.427  10.791  0.4602  0.4728  0.0579
   83SAPS    HS 7768   3.266   1.336  10.844 -0.8907  0.7228 -0.4351
   83SAPS   O21 7769   3.415   1.395  10.702 -0.3740 -0.4620  0.0241
   83SAPS   C21 7770   3.397   1.281  10.638 -0.8848 -0.2507  0.2905
   83SAPS   O22 7771   3.310   1.200  10.668  0.1853 -0.0153 -0.1581
   83SAPS   C22 7772   3.489   1.278  10.517  0.0829 -0.4885  0.7330
   83SAPS   H2R 7773   3.521   1.379  10.484  0.9840 -0.7007  0.9402
   83SAPS   H2S 7774   3.582   1.222  10.543  0.3932  1.3580  4.0301
   83SAPS    C3 7775   3.173   1.475  10.709  0.3610 -0.3080  0.7004
   83SAPS    HX 7776   3.080   1.468  10.770  1.5123  0.5081  2.6353
   83SAPS    HY 7777   3.151   1.400  10.630  0.5170 -0.5094  0.8477
   83SAPS   O31 7778   3.184   1.611  10.654  0.0350 -0.0441 -0.3723
   83SAPS   C31 7779   3.082   1.648  10.592 -0.4018  0.1803 -0.5639
   83SAPS   O32 7780   2.972   1.592  10.595 -0.1213 -0.2024 -0.0822
   83SAPS   C32 7781   3.111   1.787  10.528  0.2854 -0.1856  0.1292
   83SAPS   H2X 7782   3.221   1.794  10.516  0.0878  1.2191 -1.2041
   83SAPS   H2Y 7783   3.077   1.876  10.585  2.3420  1.1100 -0.5762
   83SAPS   C23 7784   3.431   1.188  10.400  0.0389 -0.0240 -0.0119
   83SAPS   H3R 7785   3.381   1.102  10.450 -0.6282 -0.4055 -1.2794
   83SAPS   H3S 7786   3.517   1.155  10.338 -0.6288  2.0981 -2.2290
   83SAPS   C24 7787   3.333   1.261  10.306  0.3895  0.0036 -0.7627
   83SAPS   H4R 7788   3.252   1.309  10.366  0.7160 -1.3897  0.8774
   83SAPS   H4S 7789   3.285   1.176  10.252  0.9808 -1.1418  0.4702
   83SAPS   C25 7790   3.400   1.353  10.214  0.0964 -0.6917 -0.2026
   83SAPS   H5R 7791   3.412   1.458  10.247 -0.8414 -0.3017 -1.0321
   83SAPS   C26 7792   3.466   1.320  10.104  0.9081  0.1096 -0.7008
   83SAPS   H6R 7793   3.499   1.404  10.041 -0.8361  2.0100  0.7764
   83SAPS   C27 7794   3.471   1.178  10.050  0.4229 -0.2950  0.0069
   83SAPS   H7R 7795   3.424   1.112  10.126  0.8012  1.8989  2.2753
   83SAPS   H7S 7796   3.573   1.134  10.046  1.0845  1.0722  1.0339
   83SAPS   C28 7797   3.398   1.183   9.917 -0.5897  0.3424  0.4387
   83SAPS   H8R 7798   3.292   1.209   9.930 -1.0024 -1.8152  2.0468
   83SAPS   C29 7799   3.440   1.141   9.799 -0.4504  0.9778 -0.3638
   83SAPS   H9R 7800   3.377   1.147   9.709  0.0279  0.5382 -0.7321
   83SAPS  C210 7801   3.578   1.089   9.762  0.2545  0.3608  0.2854
   83SAPS  H10R 7802   3.576   0.978   9.766 -0.1382  0.3351 -0.4031
   83SAPS  H10S 7803   3.668   1.107   9.824  1.6348  0.3314 -1.6271
   83SAPS  C211 7804   3.615   1.147   9.629 -0.4398 -0.7524  0.9383
   83SAPS  H11R 7805   3.684   1.232   9.641 -2.5189  0.9378  1.5064
   83SAPS  C212 7806   3.609   1.095   9.504  0.3626 -0.4281  0.1434
   83SAPS  H12R 7807   3.653   1.156   9.424  2.2949  2.2365  3.0284
   83SAPS  C213 7808   3.562   0.958   9.461  0.6132 -0.2349  0.2914
   83SAPS  H13R 7809   3.477   0.925   9.525 -2.2814 -0.1532 -3.1543
   83SAPS  H13S 7810   3.644   0.892   9.495 -0.3257 -0.4366  2.3279
   83SAPS  C214 7811   3.525   0.946   9.316 -0.4282 -0.2684 -0.7791
   83SAPS  H14R 7812   3.425   0.982   9.287  0.6764  2.8641 -1.1692
   83SAPS  C215 7813   3.614   0.906   9.224 -0.4457  0.7801  0.6184
   83SAPS  H15R 7814   3.577   0.902   9.121  2.0557  2.7817 -0.4773
   83SAPS  C216 7815   3.756   0.868   9.242 -0.2288  0.8099 -0.4082
   83SAPS  H16R 7816   3.795   0.887   9.344  2.2803 -2.6505 -0.5261
   83SAPS  H16S 7817   3.828   0.924   9.178  0.7023 -0.0555 -0.1441
   83SAPS  C217 7818   3.776   0.721   9.200 -0.3099  0.2056  0.2968
   83SAPS  H17R 7819   3.761   0.700   9.092  0.4196 -0.0008  0.2323
   83SAPS  H17S 7820   3.696   0.663   9.251 -0.1959  0.7266  1.0893
   83SAPS  C218 7821   3.917   0.672   9.242 -0.0876 -0.0593  0.2789
   83SAPS  H18R 7822   3.910   0.568   9.281 -0.9759  0.1505  0.7021
   83SAPS  H18S 7823   3.946   0.734   9.330 -0.6754  0.2755  0.2407
   83SAPS  C219 7824   4.021   0.665   9.128  0.2641 -0.5705  0.8470
   83SAPS  H19R 7825   4.013   0.757   9.067  0.9054 -0.2484  1.2421
   83SAPS  H19S 7826   3.998   0.585   9.054 -2.2891  1.1930 -0.4264
   83SAPS  C220 7827   4.168   0.654   9.181  0.0411  0.0636  0.7070
   83SAPS  H20R 7828   4.205   0.558   9.222  1.4049  1.2718  2.5252
   83SAPS  H20S 7829   4.189   0.728   9.262 -0.7000 -2.6955  3.6143
   83SAPS  H20T 7830   4.244   0.673   9.103  0.6020  0.5164  1.3487
   83SAPS   C33 7831   3.057   1.792  10.385 -0.7907 -0.2408  0.1723
   83SAPS   H3X 7832   3.061   1.897  10.346 -1.9411 -1.2170 -2.9106
   83SAPS   H3Y 7833   2.953   1.755  10.376  0.5119 -3.8051 -2.7854
   83SAPS   C34 7834   3.140   1.716  10.279  0.8626  0.1995 -0.4927
   83SAPS   H4X 7835   3.152   1.611  10.314  0.1742 -0.4417 -2.0770
   83SAPS   H4Y 7836   3.241   1.762  10.268  0.3806  1.1741 -0.8826
   83SAPS   C35 7837   3.063   1.690  10.141  0.0890 -0.7613 -0.0514
   83SAPS   H5X 7838   3.063   1.787  10.086 -1.4053  0.0284  1.2490
   83SAPS   H5Y 7839   2.960   1.655  10.163  0.1681 -1.5316 -0.8348
   83SAPS   C36 7840   3.125   1.587  10.044  1.2582  0.0545 -0.1929
   83SAPS   H6X 7841   3.047   1.569   9.968 -0.5883  0.3153  1.5704
   83SAPS   H6Y 7842   3.141   1.486  10.087 -1.5509 -0.1376  0.5807
   83SAPS   C37 7843   3.255   1.643   9.982  0.3599 -1.0434 -0.0962
   83SAPS   H7X 7844   3.340   1.629  10.052  2.3027 -0.0572 -2.1575
   83SAPS   H7Y 7845   3.237   1.750   9.958  0.1217 -0.3972  2.6066
   83SAPS   C38 7846   3.304   1.574   9.852 -0.1156 -0.6876  0.2581
   83SAPS   H8X 7847   3.236   1.600   9.768  0.9183  2.6330  0.3221
   83SAPS   H8Y 7848   3.300   1.463   9.865 -0.8851 -0.5604  1.2538
   83SAPS   C39 7849   3.451   1.601   9.825  0.3214  0.5713  0.2774
   83SAPS   H9X 7850   3.516   1.583   9.914  4.6860  1.5383 -2.4174
   83SAPS   H9Y 7851   3.468   1.707   9.795 -2.4737  0.0987 -3.7465
   83SAPS  C310 7852   3.501   1.516   9.706 -0.8125 -0.9237  0.4493
   83SAPS  H10X 7853   3.461   1.412   9.712 -0.4169 -1.1574 -0.7790
   83SAPS  H10Y 7854   3.611   1.513   9.712 -0.7005 -1.8273 -1.4264
   83SAPS  C311 7855   3.455   1.570   9.566  0.6404  0.1053 -0.0717
   83SAPS  H11X 7856   3.487   1.675   9.551  1.1144  0.0320  0.4367
   83SAPS  H11Y 7857   3.344   1.570   9.576  0.4326 -1.5612 -1.6625
   83SAPS  C312 7858   3.495   1.488   9.442  0.4821 -0.6396 -0.5752
   83SAPS  H12X 7859   3.452   1.387   9.458 -2.7005  0.6881  0.1014
   83SAPS  H12Y 7860   3.604   1.468   9.442  0.1073 -3.0360 -2.1122
   83SAPS  C313 7861   3.450   1.545   9.311 -0.3581 -0.6813 -0.4814
   83SAPS  H13X 7862   3.508   1.638   9.297  1.1364 -1.0577  2.3542
   83SAPS  H13Y 7863   3.341   1.565   9.297 -0.6116 -0.7495  1.1517
   83SAPS  C314 7864   3.481   1.446   9.205  0.5993 -0.0591  0.7861
   83SAPS  H14X 7865   3.427   1.353   9.233  2.1316 -1.3029 -0.2016
   83SAPS  H14Y 7866   3.591   1.430   9.206  0.3583 -2.0107  1.8901
   83SAPS  C315 7867   3.440   1.495   9.062  0.3344  0.0308 -0.6491
   83SAPS  H15X 7868   3.340   1.542   9.070  1.0957  1.3897  1.8864
   83SAPS  H15Y 7869   3.434   1.403   8.999 -1.6538 -0.6265  0.3948
   83SAPS  C316 7870   3.531   1.597   8.997 -0.0660 -0.1723 -0.4579
   83SAPS  H16X 7871   3.620   1.537   8.971  1.9738  2.4059  0.2181
   83SAPS  H16Y 7872   3.567   1.674   9.068 -0.0288 -1.8087  1.3475
   83SAPS  C317 7873   3.455   1.658   8.878 -0.3201 -0.0961 -0.2908
   83SAPS  H17X 7874   3.374   1.727   8.909  0.0720  0.0265  0.4674
   83SAPS  H17Y 7875   3.413   1.572   8.821 -1.1778 -1.8608  2.7427
   83SAPS  C318 7876   3.547   1.751   8.795 -0.1208  0.2344 -0.1906
   83SAPS  H18X 7877   3.574   1.838   8.859 -0.7351 -1.3550  2.3977
   83SAPS  H18Y 7878   3.488   1.786   8.707 -2.1630  0.1441  1.0600
   83SAPS  H18Z 7879   3.622   1.679   8.758 -2.4453 -1.4545 -1.9334
   84SAPS     N 7880   3.566   0.630  11.259  0.2723  0.3537  0.0711
   84SAPS   HN1 7881   3.532   0.689  11.180  0.5761 -0.3704 -0.6163
   84SAPS   HN2 7882   3.633   0.559  11.223  0.6583  1.2007 -0.9634
   84SAPS   HN3 7883   3.481   0.578  11.288 -0.3822  0.8541 -0.9067
   84SAPS   C12 7884   3.618   0.704  11.373 -0.4278  0.4917 -0.2407
   84SAPS  H12A 7885   3.536   0.754  11.422 -0.4299 -1.6283  2.1064
   84SAPS   C13 7886   3.677   0.604  11.478  0.5233  0.1903  0.1016
   84SAPS  O13A 7887   3.657   0.483  11.471  0.7556  0.1443  0.0956
   84SAPS  O13B 7888   3.727   0.657  11.578 -0.4531 -0.0182 -0.0519
   84SAPS   C11 7889   3.726   0.804  11.328 -0.0900  0.2893  0.3052
   84SAPS  H11A 7890   3.814   0.739  11.309 -0.7570 -0.5160 -0.0918
   84SAPS  H11B 7891   3.742   0.875  11.412 -1.2242 -1.3304  1.9565
   84SAPS     P 7892   3.797   0.957  11.132  0.0581  0.1162  0.0682
   84SAPS   O13 7893   3.729   1.044  11.040 -0.4557  0.4050 -0.0744
   84SAPS   O14 7894   3.870   1.022  11.237 -0.2268 -0.5084 -0.3789
   84SAPS   O12 7895   3.689   0.880  11.208 -0.4498  0.2594 -0.2319
   84SAPS   O11 7896   3.886   0.851  11.059  0.0268  0.2239  0.6394
   84SAPS    C1 7897   3.811   0.741  10.989 -0.0006 -0.7754 -0.6758
   84SAPS    HA 7898   3.754   0.674  11.057  0.4531 -0.6271 -0.1489
   84SAPS    HB 7899   3.739   0.800  10.929  0.0019  0.4478  0.4844
   84SAPS    C2 7900   3.894   0.650  10.887 -0.3779 -0.4799 -0.2874
   84SAPS    HS 7901   3.977   0.598  10.940  0.5720 -0.0640 -1.3070
   84SAPS   O21 7902   3.946   0.741  10.782  0.7219  0.4157  0.1802
   84SAPS   C21 7903   4.074   0.751  10.769  0.0818 -0.3083 -0.1661
   84SAPS   O22 7904   4.154   0.718  10.857 -0.2159 -0.1342 -0.6376
   84SAPS   C22 7905   4.124   0.801  10.637 -0.6656 -0.4777  0.0256
   84SAPS   H2R 7906   4.051   0.763  10.562  0.5308 -2.2517 -0.2920
   84SAPS   H2S 7907   4.138   0.911  10.637  3.2944 -0.8291 -0.1404
   84SAPS    C3 7908   3.805   0.541  10.822 -0.1128  0.8439 -1.0571
   84SAPS    HX 7909   3.783   0.478  10.911  1.2157  2.2441  0.3034
   84SAPS    HY 7910   3.864   0.473  10.757  1.4600 -0.1710  1.2994
   84SAPS   O31 7911   3.683   0.592  10.766 -0.5134 -0.1483 -0.0576
   84SAPS   C31 7912   3.684   0.647  10.642 -0.0267 -0.1209 -0.1413
   84SAPS   O32 7913   3.773   0.627  10.564  0.4774 -0.1379 -0.0984
   84SAPS   C32 7914   3.563   0.730  10.618 -0.2196  0.3406 -0.0932
   84SAPS   H2X 7915   3.586   0.822  10.676  1.4699 -0.3525  0.4079
   84SAPS   H2Y 7916   3.474   0.680  10.662 -0.4900 -2.5071 -3.4566
   84SAPS   C23 7917   4.271   0.751  10.618  0.0761 -0.0528 -0.7416
   84SAPS   H3R 7918   4.264   0.641  10.630 -0.4283  0.1946  1.8346
   84SAPS   H3S 7919   4.340   0.798  10.692  2.9216  0.3102 -3.4272
   84SAPS   C24 7920   4.326   0.780  10.481 -0.6695  0.0919  0.8647
   84SAPS   H4R 7921   4.300   0.886  10.460 -1.1258  0.0185  1.0540
   84SAPS   H4S 7922   4.276   0.714  10.407  0.8550 -1.4005  1.0976
   84SAPS   C25 7923   4.475   0.754  10.467 -0.6382 -1.0337 -0.0763
   84SAPS   H5R 7924   4.522   0.683  10.537  1.7794  0.3756 -0.1609
   84SAPS   C26 7925   4.556   0.812  10.377  0.2149 -0.5076 -0.2759
   84SAPS   H6R 7926   4.663   0.787  10.379  0.1127 -1.0050  1.3417
   84SAPS   C27 7927   4.505   0.905  10.279  0.8596 -0.1600  0.4174
   84SAPS   H7R 7928   4.475   0.996  10.335  2.3888 -0.3004  1.5115
   84SAPS   H7S 7929   4.406   0.866  10.245 -1.4379  1.2784  4.6753
   84SAPS   C28 7930   4.584   0.950  10.158 -0.5142  0.4682  0.2351
   84SAPS   H8R 7931   4.644   1.040  10.176 -0.1483  0.0055  1.4837
   84SAPS   C29 7932   4.584   0.894  10.034  0.2727  0.0310 -0.0385
   84SAPS   H9R 7933   4.661   0.923   9.962 -0.0502  0.8252 -0.0698
   84SAPS  C210 7934   4.498   0.780  10.000  0.1315 -0.1923 -0.0064
   84SAPS  H10R 7935   4.442   0.831   9.918  0.9355  0.5352 -0.1152
   84SAPS  H10S 7936   4.432   0.742  10.081  0.9025 -0.3719  0.5380
   84SAPS  C211 7937   4.556   0.659   9.933  0.3495  0.2301 -0.5223
   84SAPS  H11R 7938   4.575   0.573   9.999  3.5603 -0.4868 -2.1605
   84SAPS  C212 7939   4.594   0.661   9.807 -0.2451  0.1715 -0.8368
   84SAPS  H12R 7940   4.635   0.568   9.763  0.0996  0.8014 -1.8810
   84SAPS  C213 7941   4.589   0.768   9.700 -0.2908  0.4184 -0.4290
   84SAPS  H13R 7942   4.688   0.771   9.650 -0.0839  2.6962  0.0380
   84SAPS  H13S 7943   4.577   0.869   9.745 -0.1353  0.9442 -1.5435
   84SAPS  C214 7944   4.479   0.739   9.600  0.6316  0.4243  0.0905
   84SAPS  H14R 7945   4.385   0.714   9.652  0.9001 -0.7045  0.0526
   84SAPS  C215 7946   4.480   0.787   9.474 -0.8405 -0.9706  0.1976
   84SAPS  H15R 7947   4.395   0.759   9.410 -0.2066  0.0894 -1.1460
   84SAPS  C216 7948   4.588   0.876   9.409 -0.0360 -0.0507 -0.1251
   84SAPS  H16R 7949   4.670   0.883   9.484  0.3342 -1.6605 -0.3349
   84SAPS  H16S 7950   4.559   0.983   9.409 -1.4555 -0.4137  0.6781
   84SAPS  C217 7951   4.653   0.848   9.275 -0.5853  0.5268  0.5041
   84SAPS  H17R 7952   4.645   0.739   9.257 -2.6154  0.7167 -0.0981
   84SAPS  H17S 7953   4.760   0.876   9.277 -0.9124  1.9137  0.1255
   84SAPS  C218 7954   4.586   0.913   9.154 -0.2684  0.3835  0.1214
   84SAPS  H18R 7955   4.577   1.020   9.181  1.1491  0.5984 -0.1608
   84SAPS  H18S 7956   4.482   0.877   9.140  0.4298 -1.1365 -1.7906
   84SAPS  C219 7957   4.651   0.899   9.014  0.6111 -0.0613  0.9720
   84SAPS  H19R 7958   4.668   0.790   9.002  0.4967  0.1359 -1.3449
   84SAPS  H19S 7959   4.751   0.946   9.007  1.0422 -1.1969 -0.9457
   84SAPS  C220 7960   4.560   0.952   8.905  0.3442 -0.2842  0.2880
   84SAPS  H20R 7961   4.551   1.062   8.916 -0.1914 -0.3844  0.8814
   84SAPS  H20S 7962   4.457   0.912   8.914  1.1620 -2.5315  0.5149
   84SAPS  H20T 7963   4.619   0.935   8.812  1.1689  1.1841  0.5221
   84SAPS   C33 7964   3.533   0.764  10.471  0.4854 -0.6251  0.1308
   84SAPS   H3X 7965   3.434   0.814  10.471 -0.7248 -2.8590  0.3995
   84SAPS   H3Y 7966   3.494   0.678  10.411  0.2435  0.1748 -0.8942
   84SAPS   C34 7967   3.625   0.859  10.399 -0.0653 -0.0679 -0.2612
   84SAPS   H4X 7968   3.716   0.798  10.386  0.2662  0.2086  0.6711
   84SAPS   H4Y 7969   3.642   0.948  10.464 -0.5805  0.8457 -1.3231
   84SAPS   C35 7970   3.572   0.897  10.260  0.0959  0.6846  0.3380
   84SAPS   H5X 7971   3.637   0.979  10.223 -1.2002  1.9589  0.7836
   84SAPS   H5Y 7972   3.470   0.937  10.277  0.0958  0.5371  0.6935
   84SAPS   C36 7973   3.575   0.781  10.160  0.1360 -0.1450 -0.3380
   84SAPS   H6X 7974   3.515   0.693  10.190 -0.6801  0.3251 -0.5519
   84SAPS   H6Y 7975   3.680   0.749  10.170  0.0458 -0.9211 -1.5856
   84SAPS   C37 7976   3.543   0.811  10.014  0.7044 -0.4961 -0.3882
   84SAPS   H7X 7977   3.612   0.892   9.981  0.9805 -1.4979 -2.4486
   84SAPS   H7Y 7978   3.439   0.852  10.015  0.7073 -0.4852  0.8409
   84SAPS   C38 7979   3.559   0.696   9.915 -0.6876  0.3594 -0.1115
   84SAPS   H8X 7980   3.495   0.610   9.944 -1.8745  0.9200 -0.9474
   84SAPS   H8Y 7981   3.668   0.676   9.906 -0.2813  1.8757  1.0719
   84SAPS   C39 7982   3.520   0.722   9.765  0.6916  0.2503 -0.4832
   84SAPS   H9X 7983   3.597   0.784   9.713  1.6294  0.2589  0.8713
   84SAPS   H9Y 7984   3.421   0.772   9.756  1.0278  0.9917 -0.1304
   84SAPS  C310 7985   3.525   0.586   9.688 -0.5671  0.3081 -0.5592
   84SAPS  H10X 7986   3.445   0.528   9.739  1.5256 -0.1986  2.4293
   84SAPS  H10Y 7987   3.617   0.524   9.698 -0.1617  0.5280 -2.4896
   84SAPS  C311 7988   3.492   0.610   9.536  0.6013  0.4792  0.3381
   84SAPS  H11X 7989   3.581   0.657   9.490  1.5089 -0.4682  1.0643
   84SAPS  H11Y 7990   3.402   0.675   9.528  0.4795  0.0601 -2.7614
   84SAPS  C312 7991   3.460   0.477   9.468 -0.4442  0.1812 -0.1163
   84SAPS  H12X 7992   3.403   0.399   9.524  2.0028 -1.9372 -0.3828
   84SAPS  H12Y 7993   3.549   0.415   9.445 -0.2856  0.0974  0.6725
   84SAPS  C313 7994   3.393   0.506   9.335  0.4473 -0.3896  0.9332
   84SAPS  H13X 7995   3.452   0.585   9.284  1.5903 -1.2949  0.8309
   84SAPS  H13Y 7996   3.295   0.557   9.352  0.9065  0.5315  0.8907
   84SAPS  C314 7997   3.379   0.384   9.253  0.5703  0.0555 -0.3828
   84SAPS  H14X 7998   3.307   0.312   9.299 -1.9412  2.5950 -0.0714
   84SAPS  H14Y 7999   3.478   0.335   9.264  1.4724  2.3201  2.8776
   84SAPS  C315 8000   3.333   0.403   9.113  0.4437  0.4304  0.0264
   84SAPS  H15X 8001   3.413   0.471   9.076 -0.2857  0.7692 -0.9566
   84SAPS  H15Y 8002   3.239   0.461   9.103  1.4581  2.0109 -0.7597
   84SAPS  C316 8003   3.329   0.270   9.026 -0.7696 -0.8068  0.0726
   84SAPS  H16X 8004   3.236   0.214   9.048 -2.6766  1.1747 -2.2665
   84SAPS  H16Y 8005   3.415   0.201   9.038 -0.7051 -1.2147 -2.1657
   84SAPS  C317 8006   3.314   0.297   8.873  0.5642  0.6824  0.8265
   84SAPS  H17X 8007   3.376   0.385   8.846  1.1496 -0.3725 -1.5399
   84SAPS  H17Y 8008   3.208   0.321   8.847  0.5455  0.3724  0.6173
   84SAPS  C318 8009   3.355   0.178   8.790 -0.0646 -0.4067 -0.1299
   84SAPS  H18X 8010   3.333   0.202   8.684 -0.2499  1.5234  0.3019
   84SAPS  H18Y 8011   3.295   0.088   8.812 -0.1219 -0.5120 -0.7156
   84SAPS  H18Z 8012   3.465   0.163   8.784 -0.3955 -3.2995 -0.1160
   85SAPS     N 8013   3.228   0.328  11.088 -0.4334  0.0504  0.3739
   85SAPS   HN1 8014   3.188   0.283  11.003  0.2989  1.5957 -0.8384
   85SAPS   HN2 8015   3.300   0.395  11.054 -1.1549  0.0781 -1.1828
   85SAPS   HN3 8016   3.271   0.260  11.154 -1.4255 -1.5507 -0.5502
   85SAPS   C12 8017   3.135   0.397  11.179  0.4590  0.0639  0.4708
   85SAPS  H12A 8018   3.093   0.319  11.241  2.0803 -1.9872 -0.8901
   85SAPS   C13 8019   3.221   0.486  11.278  0.6864  0.3803 -0.6636
   85SAPS  O13A 8020   3.340   0.458  11.293 -0.3112 -0.1159  0.2486
   85SAPS  O13B 8021   3.157   0.552  11.369  0.2572  0.6721  0.0233
   85SAPS   C11 8022   3.024   0.474  11.103  0.6275  0.8166 -0.3854
   85SAPS  H11A 8023   3.076   0.556  11.050  0.1687  2.1584  1.1421
   85SAPS  H11B 8024   2.954   0.526  11.172  2.3915  0.5342  1.7465
   85SAPS     P 8025   2.820   0.328  11.035  0.0271  0.4806 -0.2447
   85SAPS   O13 8026   2.835   0.184  11.012  0.1532  0.3799 -0.3444
   85SAPS   O14 8027   2.777   0.375  11.170  0.8101  0.0857  0.3567
   85SAPS   O12 8028   2.962   0.391  11.010  0.0666  0.1029  0.0828
   85SAPS   O11 8029   2.744   0.393  10.914  0.2820  0.1979 -0.3425
   85SAPS    C1 8030   2.669   0.512  10.931  0.2124 -0.4438 -0.2595
   85SAPS    HA 8031   2.586   0.498  11.004  2.2199  0.6423  2.3970
   85SAPS    HB 8032   2.736   0.590  10.974 -0.4776  0.7193 -1.2119
   85SAPS    C2 8033   2.634   0.574  10.785  0.7010  0.5422 -0.4236
   85SAPS    HS 8034   2.589   0.484  10.738 -1.9763  1.4366  0.2543
   85SAPS   O21 8035   2.756   0.628  10.728  0.2976 -0.3201 -0.1295
   85SAPS   C21 8036   2.803   0.584  10.615 -0.1775 -0.0088  0.5163
   85SAPS   O22 8037   2.757   0.489  10.551  0.1218 -0.6212 -0.3348
   85SAPS   C22 8038   2.924   0.666  10.582 -0.1394 -0.3321 -0.3381
   85SAPS   H2R 8039   2.891   0.772  10.577 -1.3194 -0.6681 -0.0501
   85SAPS   H2S 8040   3.000   0.655  10.663 -0.4670 -2.4502 -0.2772
   85SAPS    C3 8041   2.533   0.683  10.778  0.4251  0.2111 -0.6361
   85SAPS    HX 8042   2.559   0.758  10.857 -1.0074  1.3069 -1.1628
   85SAPS    HY 8043   2.441   0.632  10.810  0.4606  0.9493  0.7204
   85SAPS   O31 8044   2.511   0.741  10.641 -0.0770 -0.0371 -0.2133
   85SAPS   C31 8045   2.563   0.856  10.625 -0.6818  0.9792 -0.7634
   85SAPS   O32 8046   2.617   0.929  10.705  0.0848  0.1274 -0.1408
   85SAPS   C32 8047   2.541   0.901  10.481 -0.0203 -0.3937 -0.0559
   85SAPS   H2X 8048   2.559   1.010  10.486  1.5136 -0.6838  2.0049
   85SAPS   H2Y 8049   2.432   0.889  10.463 -0.0200  1.1336 -1.2865
   85SAPS   C23 8050   3.001   0.620  10.458  0.8665  0.0712  0.0427
   85SAPS   H3R 8051   2.940   0.615  10.365 -1.2375  1.0764  1.3026
   85SAPS   H3S 8052   3.034   0.517  10.484  4.4711  1.2088  0.4994
   85SAPS   C24 8053   3.132   0.696  10.422 -0.2742 -0.0767  0.4437
   85SAPS   H4R 8054   3.182   0.632  10.347 -1.6710  1.7576 -2.2415
   85SAPS   H4S 8055   3.191   0.710  10.515  0.0669 -0.6510  0.3111
   85SAPS   C25 8056   3.111   0.834  10.366 -0.9142 -0.2468  0.3254
   85SAPS   H5R 8057   3.069   0.912  10.431 -0.3534  1.3011 -1.1124
   85SAPS   C26 8058   3.143   0.872  10.242  0.0363  0.8352  0.6097
   85SAPS   H6R 8059   3.115   0.972  10.205  0.2915  0.5182 -0.4683
   85SAPS   C27 8060   3.194   0.784  10.129  0.5762  0.6477  0.8296
   85SAPS   H7R 8061   3.267   0.709  10.163 -0.1492 -0.3589  0.2223
   85SAPS   H7S 8062   3.251   0.851  10.061 -1.3006  4.8777  3.0146
   85SAPS   C28 8063   3.072   0.705  10.079 -0.1501  0.3782 -0.1187
   85SAPS   H8R 8064   3.005   0.659  10.153  1.4345 -1.1856  0.4307
   85SAPS   C29 8065   3.052   0.662   9.953 -0.0446  0.1338  0.4425
   85SAPS   H9R 8066   2.959   0.608   9.932 -1.2272  1.6798  1.4658
   85SAPS  C210 8067   3.132   0.686   9.835  0.1301  0.2228 -0.3076
   85SAPS  H10R 8068   3.132   0.599   9.765  1.6751  1.2173 -1.6148
   85SAPS  H10S 8069   3.239   0.701   9.860 -0.2219  0.3507  1.2252
   85SAPS  C211 8070   3.086   0.816   9.760  0.6795 -0.5808 -0.5662
   85SAPS  H11R 8071   3.075   0.905   9.824  1.3361  0.0427 -1.3081
   85SAPS  C212 8072   3.090   0.846   9.631 -0.5062 -0.0066 -0.1321
   85SAPS  H12R 8073   3.040   0.941   9.604  1.1493  0.8131 -0.4231
   85SAPS  C213 8074   3.127   0.746   9.528  0.4325 -0.2389  0.0986
   85SAPS  H13R 8075   3.168   0.655   9.575  0.4283  0.5471  1.7001
   85SAPS  H13S 8076   3.203   0.796   9.464 -0.2444 -0.4162 -0.8627
   85SAPS  C214 8077   3.004   0.709   9.445  0.0388 -0.2664 -0.0285
   85SAPS  H14R 8078   2.963   0.609   9.464 -1.1738  0.5386  1.9260
   85SAPS  C215 8079   2.955   0.801   9.357  0.8289 -0.2037 -0.5390
   85SAPS  H15R 8080   2.867   0.764   9.303  0.5395 -0.7026  0.2596
   85SAPS  C216 8081   3.004   0.936   9.315  0.7855  0.4913  0.8335
   85SAPS  H16R 8082   3.103   0.965   9.355  1.4508  1.1410 -1.1453
   85SAPS  H16S 8083   2.930   1.014   9.344  2.3103  2.4681 -0.3908
   85SAPS  C217 8084   3.035   0.940   9.161  0.5183 -0.7083 -0.6296
   85SAPS  H17R 8085   3.043   1.045   9.125  1.2295 -0.1946  0.9745
   85SAPS  H17S 8086   2.955   0.895   9.096 -0.5550  0.9548 -0.5149
   85SAPS  C218 8087   3.163   0.867   9.119  1.1557 -0.2466 -0.7388
   85SAPS  H18R 8088   3.152   0.759   9.144 -0.4206  0.1985  0.7193
   85SAPS  H18S 8089   3.254   0.898   9.174  1.7876 -2.1907 -0.6313
   85SAPS  C219 8090   3.179   0.889   8.966 -0.2870 -0.3548 -0.2554
   85SAPS  H19R 8091   3.209   0.996   8.969  0.7057 -0.6440  1.1614
   85SAPS  H19S 8092   3.087   0.882   8.905 -1.0347 -0.2530  0.8319
   85SAPS  C220 8093   3.293   0.815   8.899 -0.2704 -0.1587  0.6342
   85SAPS  H20R 8094   3.278   0.705   8.897  0.3815 -0.3687  3.3225
   85SAPS  H20S 8095   3.386   0.837   8.955 -0.9367  1.6728  1.0711
   85SAPS  H20T 8096   3.306   0.855   8.796 -0.1573  0.2409  0.8044
   85SAPS   C33 8097   2.607   0.820  10.374 -0.5791  0.6039 -0.1822
   85SAPS   H3X 8098   2.566   0.717  10.364 -2.3823  1.3174 -0.5596
   85SAPS   H3Y 8099   2.713   0.797  10.398 -0.5156 -1.7222 -2.2840
   85SAPS   C34 8100   2.604   0.898  10.241  1.1723  0.6079 -0.2345
   85SAPS   H4X 8101   2.658   0.993  10.263  3.7005 -0.8262  0.1323
   85SAPS   H4Y 8102   2.497   0.918  10.218  1.1351  2.7844  1.4937
   85SAPS   C35 8103   2.676   0.829  10.128 -0.5710 -0.1471  0.2330
   85SAPS   H5X 8104   2.618   0.738  10.102  1.0044 -1.8370  2.2128
   85SAPS   H5Y 8105   2.778   0.795  10.158 -0.1921  1.2103  0.5597
   85SAPS   C36 8106   2.685   0.920  10.005 -0.6584 -0.4551 -0.2573
   85SAPS   H6X 8107   2.772   0.986  10.027 -1.7150  0.2014  2.4760
   85SAPS   H6Y 8108   2.586   0.970   9.998  0.2255  1.2701 -1.1156
   85SAPS   C37 8109   2.702   0.847   9.870 -1.1640  0.2697 -0.1467
   85SAPS   H7X 8110   2.608   0.797   9.839 -1.0127 -0.3102  0.3050
   85SAPS   H7Y 8111   2.786   0.774   9.866  1.2758  2.9750 -2.6806
   85SAPS   C38 8112   2.728   0.952   9.754  0.5942 -0.2605  0.0566
   85SAPS   H8X 8113   2.832   0.957   9.716  0.8477  0.9146  0.8660
   85SAPS   H8Y 8114   2.690   1.054   9.777 -0.1604 -0.9894  2.2938
   85SAPS   C39 8115   2.644   0.923   9.631  0.0364  0.4034  0.2645
   85SAPS   H9X 8116   2.541   0.920   9.673  0.3870  2.1875  1.3902
   85SAPS   H9Y 8117   2.663   0.822   9.589  2.0343  0.7909  0.1135
   85SAPS  C310 8118   2.652   1.027   9.516  0.3402 -0.1492  0.0808
   85SAPS  H10X 8119   2.759   1.037   9.488  0.3978 -3.3758 -1.2708
   85SAPS  H10Y 8120   2.613   1.125   9.550 -0.5311  0.0441 -1.3959
   85SAPS  C311 8121   2.583   0.986   9.389  0.0830 -0.8778 -0.7141
   85SAPS  H11X 8122   2.476   1.018   9.393 -0.0429 -1.3450  0.0141
   85SAPS  H11Y 8123   2.581   0.875   9.380  0.3450 -0.9133 -0.3474
   85SAPS  C312 8124   2.642   1.054   9.266 -0.0473 -0.2458  0.6749
   85SAPS  H12X 8125   2.734   1.000   9.235  0.6409  1.4257 -0.3401
   85SAPS  H12Y 8126   2.680   1.155   9.290  2.4988 -0.7151 -1.0248
   85SAPS  C313 8127   2.539   1.046   9.157  0.4970  0.3104 -0.2960
   85SAPS  H13X 8128   2.440   1.082   9.191  0.8655 -0.5722  1.8848
   85SAPS  H13Y 8129   2.515   0.944   9.119  1.9531 -1.2609  2.6537
   85SAPS  C314 8130   2.578   1.132   9.037 -0.3141  0.2283 -1.0344
   85SAPS  H14X 8131   2.611   1.228   9.082  1.3057 -1.1681  0.9605
   85SAPS  H14Y 8132   2.489   1.140   8.971 -0.4665  0.7367 -0.7695
   85SAPS  C315 8133   2.701   1.075   8.960 -0.2405  0.0556 -0.1829
   85SAPS  H15X 8134   2.678   0.986   8.898  1.6783 -0.3388 -0.3769
   85SAPS  H15Y 8135   2.780   1.054   9.035  0.1568  0.2705 -0.5352
   85SAPS  C316 8136   2.748   1.168   8.851  0.0955  0.1731 -0.4159
   85SAPS  H16X 8137   2.845   1.129   8.814  1.2105  0.2190  2.2967
   85SAPS  H16Y 8138   2.761   1.263   8.907 -0.5719 -0.4302  0.7998
   85SAPS  C317 8139   2.645   1.185   8.745 -0.7677 -0.0380 -0.1507
   85SAPS  H17X 8140   2.547   1.229   8.771 -0.9122  0.3694 -1.3457
   85SAPS  H17Y 8141   2.616   1.083   8.713 -0.8121 -0.1832  0.3469
   85SAPS  C318 8142   2.686   1.262   8.622  0.1467  0.5827  0.2750
   85SAPS  H18X 8143   2.746   1.348   8.660  2.6419 -0.9744  0.0318
   85SAPS  H18Y 8144   2.598   1.300   8.566 -2.0515 -2.0669  1.7075
   85SAPS  H18Z 8145   2.739   1.187   8.561 -0.4327  0.8484 -0.5805
   86SAPS     N 8146   4.282   1.579  10.815 -0.2439  0.0705 -0.1891
   86SAPS   HN1 8147   4.317   1.675  10.798  2.6779 -1.2510 -2.8174
   86SAPS   HN2 8148   4.366   1.523  10.788 -0.4124 -0.0477 -0.4812
   86SAPS   HN3 8149   4.205   1.560  10.747  0.9242  0.2520 -1.6195
   86SAPS   C12 8150   4.237   1.555  10.960 -0.4913  0.2694 -0.2940
   86SAPS  H12A 8151   4.323   1.539  11.024 -0.1314 -1.9775 -1.2501
   86SAPS   C13 8152   4.156   1.673  11.020  0.1155 -0.0310 -0.2060
   86SAPS  O13A 8153   4.129   1.767  10.945 -0.3536  0.1371  0.1383
   86SAPS  O13B 8154   4.110   1.671  11.139 -0.5110  0.8100  0.1254
   86SAPS   C11 8155   4.152   1.420  10.962  0.0838 -0.3971  0.1207
   86SAPS  H11A 8156   4.057   1.450  10.913  0.5473 -1.3409 -1.4422
   86SAPS  H11B 8157   4.143   1.382  11.066 -0.1132 -1.2145 -0.1846
   86SAPS     P 8158   4.179   1.158  10.894 -0.3641 -0.0113  0.1493
   86SAPS   O13 8159   4.235   1.101  11.015 -0.4159  0.9392  0.3459
   86SAPS   O14 8160   4.031   1.161  10.877 -0.0349  0.3508 -0.0884
   86SAPS   O12 8161   4.222   1.314  10.886  0.3569 -0.0504  0.0966
   86SAPS   O11 8162   4.248   1.093  10.762  0.6268  0.4037 -0.5452
   86SAPS    C1 8163   4.331   1.164  10.668  0.5187  0.2556  0.0234
   86SAPS    HA 8164   4.403   1.234  10.715  0.0864  1.8066 -1.5322
   86SAPS    HB 8165   4.392   1.088  10.617 -1.0237 -0.5727 -0.6573
   86SAPS    C2 8166   4.242   1.238  10.574  0.3256 -0.4014 -0.4634
   86SAPS    HS 8167   4.208   1.324  10.636  2.8111  0.0670  0.3656
   86SAPS   O21 8168   4.136   1.159  10.526  0.1552  0.7439  0.4764
   86SAPS   C21 8169   4.018   1.225  10.509  0.6928 -0.0832  0.7079
   86SAPS   O22 8170   3.999   1.336  10.550  0.2833 -0.5570 -0.1076
   86SAPS   C22 8171   3.908   1.144  10.442  0.1601  0.1258 -0.0840
   86SAPS   H2R 8172   3.957   1.062  10.385  1.0110 -0.1561  1.0109
   86SAPS   H2S 8173   3.848   1.094  10.521 -0.2841 -1.6704 -1.4938
   86SAPS    C3 8174   4.322   1.294  10.450  0.4616  0.3037 -0.6952
   86SAPS    HX 8175   4.350   1.205  10.389  3.1230  2.0182 -2.1813
   86SAPS    HY 8176   4.423   1.331  10.476  1.3140 -2.6675  0.6052
   86SAPS   O31 8177   4.247   1.386  10.368  0.2244  0.2294 -0.4121
   86SAPS   C31 8178   4.231   1.506  10.420 -0.0910  0.0747 -0.2227
   86SAPS   O32 8179   4.273   1.537  10.527  0.7221  0.1026 -0.3738
   86SAPS   C32 8180   4.165   1.596  10.320  0.0212 -0.5066 -0.2508
   86SAPS   H2X 8181   4.073   1.631  10.373 -0.3582 -1.1596 -0.4724
   86SAPS   H2Y 8182   4.142   1.528  10.236  1.8931  1.3789 -2.4227
   86SAPS   C23 8183   3.829   1.228  10.343 -0.0557 -0.1159  0.3512
   86SAPS   H3R 8184   3.775   1.314  10.390 -0.7327 -0.0449 -0.5317
   86SAPS   H3S 8185   3.749   1.162  10.303  0.3098 -0.1739 -0.2922
   86SAPS   C24 8186   3.925   1.292  10.240  0.6691  0.9499  0.3081
   86SAPS   H4R 8187   4.001   1.215  10.215 -1.5538 -0.4945 -2.7014
   86SAPS   H4S 8188   3.965   1.373  10.304  0.1291  1.4203  0.0577
   86SAPS   C25 8189   3.853   1.343  10.123  0.0609 -0.3372  0.1800
   86SAPS   H5R 8190   3.746   1.357  10.141  0.7600  2.7575  2.8883
   86SAPS   C26 8191   3.907   1.363   9.996  0.3296  0.2956  0.4203
   86SAPS   H6R 8192   3.833   1.395   9.921  0.7270  0.1130 -0.0543
   86SAPS   C27 8193   4.045   1.329   9.949 -0.9105  0.0304  0.0269
   86SAPS   H7R 8194   4.064   1.223   9.919 -0.7060 -0.4045  1.6014
   86SAPS   H7S 8195   4.116   1.346  10.032  0.1340 -2.7924 -0.1611
   86SAPS   C28 8196   4.087   1.427   9.846  0.7047  0.3854  0.0038
   86SAPS   H8R 8197   4.154   1.503   9.889  2.7120 -0.3598 -1.6015
   86SAPS   C29 8198   4.066   1.420   9.710 -0.2711 -0.0308 -0.5543
   86SAPS   H9R 8199   4.078   1.506   9.643  1.5087 -1.7471 -2.6007
   86SAPS  C210 8200   3.992   1.307   9.639  0.1165 -0.2850 -0.0881
   86SAPS  H10R 8201   3.895   1.338   9.593 -0.1859 -0.4944  0.3937
   86SAPS  H10S 8202   3.967   1.224   9.708  2.1352 -1.4346 -0.6837
   86SAPS  C211 8203   4.089   1.254   9.535 -1.5104  0.0539 -1.3829
   86SAPS  H11R 8204   4.133   1.328   9.466  0.3182  1.6052  1.2855
   86SAPS  C212 8205   4.138   1.132   9.525 -0.1098  0.1484  0.1462
   86SAPS  H12R 8206   4.217   1.108   9.453  0.8227 -1.4331  1.6209
   86SAPS  C213 8207   4.103   1.019   9.615 -0.2505  0.3317 -0.5147
   86SAPS  H13R 8208   4.099   1.052   9.721 -1.0005 -2.2778  0.3559
   86SAPS  H13S 8209   4.175   0.934   9.614  0.8455  1.2283  0.4288
   86SAPS  C214 8210   3.965   0.967   9.601 -0.7778 -1.1533  0.2949
   86SAPS  H14R 8211   3.913   1.011   9.515  1.3826  1.7474  0.3487
   86SAPS  C215 8212   3.907   0.891   9.692  0.2799  0.9715  0.6111
   86SAPS  H15R 8213   3.807   0.857   9.660 -0.0225  1.2417  1.2668
   86SAPS  C216 8214   3.976   0.831   9.813  0.4081 -0.1169 -0.2281
   86SAPS  H16R 8215   4.086   0.839   9.805  0.3628 -0.1346 -1.0138
   86SAPS  H16S 8216   3.946   0.725   9.828 -1.6824  0.4418 -0.0666
   86SAPS  C217 8217   3.943   0.916   9.940  0.2964 -0.3638 -0.1985
   86SAPS  H17R 8218   3.835   0.941   9.949  0.6398  1.0143  0.3784
   86SAPS  H17S 8219   3.985   1.019   9.935  1.0098 -0.6565 -0.3578
   86SAPS  C218 8220   3.973   0.857  10.077 -0.2770 -0.0094 -0.0667
   86SAPS  H18R 8221   3.931   0.756  10.096 -1.2776  0.2391 -0.8677
   86SAPS  H18S 8222   3.925   0.929  10.146  1.1993  1.9341 -0.9821
   86SAPS  C219 8223   4.124   0.856  10.113  0.1148 -1.2701 -0.4255
   86SAPS  H19R 8224   4.175   0.789  10.040 -2.9861 -3.8873 -0.4245
   86SAPS  H19S 8225   4.156   0.811  10.209  2.1572 -0.7564 -0.8145
   86SAPS  C220 8226   4.193   0.992  10.103 -0.2582  0.4829  0.3450
   86SAPS  H20R 8227   4.128   1.065  10.156 -1.4553 -0.1120 -0.2500
   86SAPS  H20S 8228   4.202   1.031   9.999  1.9646 -1.4506 -0.2726
   86SAPS  H20T 8229   4.297   0.989  10.140  0.8181  0.6231 -2.3968
   86SAPS   C33 8230   4.246   1.709  10.268 -0.0311 -0.1823  0.4455
   86SAPS   H3X 8231   4.334   1.664  10.216 -0.2751 -0.8695  0.6143
   86SAPS   H3Y 8232   4.284   1.781  10.344  2.3334 -2.0446  1.1710
   86SAPS   C34 8233   4.174   1.797  10.160 -0.3490 -0.3465 -0.3566
   86SAPS   H4X 8234   4.075   1.831  10.199 -1.7203 -4.5240  0.2706
   86SAPS   H4Y 8235   4.147   1.731  10.076 -0.0185 -2.2747  0.9918
   86SAPS   C35 8236   4.269   1.910  10.101  0.5311 -0.3376 -0.4039
   86SAPS   H5X 8237   4.372   1.870  10.109 -0.3830 -2.6793  0.7764
   86SAPS   H5Y 8238   4.256   2.006  10.156 -0.4166 -1.0627  0.6850
   86SAPS   C36 8239   4.227   1.939   9.955  0.4954 -0.0753 -0.0447
   86SAPS   H6X 8240   4.203   2.046   9.937 -0.8520 -0.5142 -0.9889
   86SAPS   H6Y 8241   4.133   1.889   9.925  0.7036  0.9310 -2.6503
   86SAPS   C37 8242   4.330   1.899   9.852 -0.5641 -0.2138  0.3058
   86SAPS   H7X 8243   4.423   1.953   9.879  0.0997 -0.7457 -0.8366
   86SAPS   H7Y 8244   4.300   1.930   9.749  0.8000  1.2737  0.3250
   86SAPS   C38 8245   4.368   1.745   9.857 -0.2189  0.4196  0.3367
   86SAPS   H8X 8246   4.280   1.679   9.840  0.4378 -0.4857  0.4039
   86SAPS   H8Y 8247   4.389   1.723   9.963  3.3772  0.6964 -0.2026
   86SAPS   C39 8248   4.488   1.713   9.768  0.1906  0.1785 -0.2232
   86SAPS   H9X 8249   4.535   1.623   9.813 -1.5400 -2.2135 -2.8635
   86SAPS   H9Y 8250   4.566   1.792   9.765  0.5260 -0.1586 -0.4216
   86SAPS  C310 8251   4.457   1.669   9.630 -0.2948  0.0383  0.0666
   86SAPS  H10X 8252   4.384   1.585   9.630 -1.9509  1.4232  0.9254
   86SAPS  H10Y 8253   4.553   1.634   9.586  0.3687  0.6413  0.9886
   86SAPS  C311 8254   4.409   1.771   9.533  0.2243  0.0666  0.0299
   86SAPS  H11X 8255   4.473   1.862   9.538 -0.2972  0.3988  0.9527
   86SAPS  H11Y 8256   4.321   1.812   9.587  0.3005  1.4839 -0.8626
   86SAPS  C312 8257   4.377   1.739   9.387  0.0333  0.1008 -0.2554
   86SAPS  H12X 8258   4.304   1.818   9.360 -1.2581 -1.6024 -2.0699
   86SAPS  H12Y 8259   4.335   1.636   9.385  3.4319 -1.3996 -1.0884
   86SAPS  C313 8260   4.501   1.725   9.297  0.4856  0.3028  0.3119
   86SAPS  H13X 8261   4.561   1.636   9.324  1.4200  1.0762  0.8455
   86SAPS  H13Y 8262   4.562   1.818   9.304  2.9152 -1.2577  0.7232
   86SAPS  C314 8263   4.471   1.715   9.145  0.0648 -0.1693  0.6285
   86SAPS  H14X 8264   4.417   1.620   9.125  2.6753 -1.1448 -2.5873
   86SAPS  H14Y 8265   4.576   1.715   9.109 -0.2957 -0.9198 -0.4570
   86SAPS  C315 8266   4.402   1.834   9.073  0.4475  0.4105  0.0558
   86SAPS  H15X 8267   4.466   1.921   9.099  0.9681  0.4800 -1.3528
   86SAPS  H15Y 8268   4.303   1.848   9.121  0.6172 -0.4657  0.6713
   86SAPS  C316 8269   4.401   1.810   8.924  0.1767  0.9435  0.8452
   86SAPS  H16X 8270   4.498   1.775   8.882 -0.4202 -1.3325  1.2324
   86SAPS  H16Y 8271   4.382   1.905   8.869  0.5847  0.5808  0.0649
   86SAPS  C317 8272   4.284   1.720   8.879  0.3419 -0.4746 -0.3557
   86SAPS  H17X 8273   4.192   1.774   8.909 -0.3493 -1.9876  0.3874
   86SAPS  H17Y 8274   4.290   1.620   8.927  2.8752 -0.0243  0.4162
   86SAPS  C318 8275   4.296   1.703   8.733  0.1478 -0.3652  0.3851
   86SAPS  H18X 8276   4.314   1.800   8.682  0.0159  0.7490  2.3449
   86SAPS  H18Y 8277   4.199   1.664   8.694 -1.0281  1.0590  1.7842
   86SAPS  H18Z 8278   4.374   1.631   8.700  0.8123 -0.0195  1.1664
   87SAPS     N 8279   3.695   3.408  10.850 -0.2664  0.0027 -0.0966
   87SAPS   HN1 8280   3.750   3.337  10.798 -0.9864  1.7487 -3.5253
   87SAPS   HN2 8281   3.655   3.353  10.930  1.1280 -1.0837 -0.0962
   87SAPS   HN3 8282   3.623   3.440  10.783 -0.7092  0.3899  0.5503
   87SAPS   C12 8283   3.771   3.517  10.898 -0.3647 -0.4256 -0.6674
   87SAPS  H12A 8284   3.701   3.592  10.933  1.1276  0.7684 -0.1189
   87SAPS   C13 8285   3.865   3.494  11.021 -0.6493  0.5626  0.2707
   87SAPS  O13A 8286   3.856   3.386  11.095  0.2863 -0.3193 -0.2298
   87SAPS  O13B 8287   3.924   3.592  11.067  0.4921 -0.2513 -0.2879
   87SAPS   C11 8288   3.861   3.567  10.785 -0.4497 -0.5849  0.2803
   87SAPS  H11A 8289   3.928   3.645  10.827 -1.5130  0.6825 -0.3021
   87SAPS  H11B 8290   3.799   3.619  10.708  0.1608  0.6569  0.5968
   87SAPS     P 8291   4.043   3.516  10.611 -0.0276  0.1604  0.1767
   87SAPS   O13 8292   4.110   3.643  10.655 -0.9478  0.1770 -0.3372
   87SAPS   O14 8293   4.125   3.396  10.587  0.4492 -0.4684  0.2175
   87SAPS   O12 8294   3.951   3.467  10.737 -0.3965  0.1031 -0.4734
   87SAPS   O11 8295   3.933   3.550  10.502  0.1680 -0.1834  0.2002
   87SAPS    C1 8296   3.849   3.438  10.465  0.0207  0.2336 -0.2403
   87SAPS    HA 8297   3.898   3.344  10.498 -0.2101  0.4416  0.7294
   87SAPS    HB 8298   3.745   3.445  10.503  0.7908  0.1685  2.0109
   87SAPS    C2 8299   3.837   3.413  10.311 -0.2240  0.1590 -0.4569
   87SAPS    HS 8300   3.766   3.328  10.307  1.1766 -0.9965 -2.0436
   87SAPS   O21 8301   3.959   3.386  10.251  0.8752 -0.1393 -0.3558
   87SAPS   C21 8302   4.014   3.275  10.286 -0.1113 -0.0455 -0.0866
   87SAPS   O22 8303   3.954   3.186  10.348  0.0205 -0.0121  0.7075
   87SAPS   C22 8304   4.158   3.283  10.241  0.5121  0.3291  0.3934
   87SAPS   H2R 8305   4.158   3.253  10.134 -1.0264 -1.5546  0.8674
   87SAPS   H2S 8306   4.204   3.380  10.269 -0.6698  1.3514 -1.0736
   87SAPS    C3 8307   3.789   3.545  10.246  0.7614 -0.5143  0.2120
   87SAPS    HX 8308   3.872   3.619  10.249 -0.2250  0.8823 -2.7175
   87SAPS    HY 8309   3.708   3.600  10.298 -0.2766 -0.0008 -1.8443
   87SAPS   O31 8310   3.766   3.546  10.099 -0.5778  0.9186  0.0350
   87SAPS   C31 8311   3.668   3.480  10.054 -0.4446  0.0526  0.1187
   87SAPS   O32 8312   3.588   3.422  10.122  0.4497 -0.6295  0.1207
   87SAPS   C32 8313   3.673   3.470   9.901 -0.3335 -0.0594  0.2923
   87SAPS   H2X 8314   3.769   3.416   9.883  0.3668  0.7998  1.2986
   87SAPS   H2Y 8315   3.680   3.573   9.860  0.3363  0.3381  1.3576
   87SAPS   C23 8316   4.235   3.173  10.322 -0.5462 -0.0807  0.4293
   87SAPS   H3R 8317   4.190   3.073  10.308  0.0901 -0.1168 -1.8652
   87SAPS   H3S 8318   4.249   3.199  10.429 -2.0136  0.9747  0.3797
   87SAPS   C24 8319   4.381   3.150  10.265  0.0696 -0.0738  0.0438
   87SAPS   H4R 8320   4.369   3.119  10.160 -1.2373  0.7105 -0.0576
   87SAPS   H4S 8321   4.436   3.066  10.312  0.2293  0.3645  0.6561
   87SAPS   C25 8322   4.457   3.279  10.287  0.4012 -0.8314  0.9759
   87SAPS   H5R 8323   4.467   3.309  10.392 -0.1101  2.8266  0.1335
   87SAPS   C26 8324   4.490   3.368  10.190  0.6079  0.3209 -0.0875
   87SAPS   H6R 8325   4.539   3.461  10.223  1.2295  0.0910 -0.3319
   87SAPS   C27 8326   4.463   3.361  10.039 -0.1986  0.0440 -1.3143
   87SAPS   H7R 8327   4.495   3.455   9.989 -1.0482  0.5369 -0.9401
   87SAPS   H7S 8328   4.354   3.353  10.018 -0.0929  0.2534 -1.9713
   87SAPS   C28 8329   4.544   3.256   9.961  1.1249 -0.7525 -0.4984
   87SAPS   H8R 8330   4.646   3.231   9.994  0.8207 -1.9245 -0.3959
   87SAPS   C29 8331   4.501   3.181   9.863 -0.0044  0.6169 -0.0870
   87SAPS   H9R 8332   4.570   3.105   9.825 -1.9062  0.2832 -3.1808
   87SAPS  C210 8333   4.370   3.194   9.790 -0.1909 -0.5246 -0.3620
   87SAPS  H10R 8334   4.362   3.297   9.749 -1.0281 -1.2665 -2.1459
   87SAPS  H10S 8335   4.286   3.177   9.860  0.5996  0.8117  0.9835
   87SAPS  C211 8336   4.367   3.104   9.669  0.2216  0.1906  0.0409
   87SAPS  H11R 8337   4.375   3.003   9.711 -0.0228  0.1541  0.0035
   87SAPS  C212 8338   4.346   3.141   9.539  0.4306  0.6679 -0.5543
   87SAPS  H12R 8339   4.353   3.057   9.469 -0.5805  0.6281 -0.6306
   87SAPS  C213 8340   4.321   3.284   9.481 -0.0565  0.2849 -0.4266
   87SAPS  H13R 8341   4.300   3.359   9.560 -0.4488 -0.5808  0.3149
   87SAPS  H13S 8342   4.230   3.279   9.419 -0.9779  0.1149  0.8923
   87SAPS  C214 8343   4.442   3.331   9.411  0.6218 -0.4630 -0.3840
   87SAPS  H14R 8344   4.519   3.370   9.479 -0.9502 -0.4102  1.4569
   87SAPS  C215 8345   4.480   3.316   9.287 -0.5750 -0.6725 -0.0013
   87SAPS  H15R 8346   4.576   3.360   9.257 -1.0731  0.8957  0.6118
   87SAPS  C216 8347   4.408   3.240   9.182 -0.2642  0.1604  0.2646
   87SAPS  H16R 8348   4.310   3.206   9.222 -1.5031  3.6981  0.6416
   87SAPS  H16S 8349   4.468   3.149   9.161 -1.3776 -0.2204 -1.5093
   87SAPS  C217 8350   4.388   3.297   9.042  0.1951  0.1101 -0.0575
   87SAPS  H17R 8351   4.478   3.342   8.996  0.0101  1.4331  0.8244
   87SAPS  H17S 8352   4.315   3.380   9.047  0.6316  0.4329  1.8501
   87SAPS  C218 8353   4.325   3.188   8.959  0.0111  0.7883  0.9375
   87SAPS  H18R 8354   4.232   3.150   9.007  0.3581 -0.1626  0.8762
   87SAPS  H18S 8355   4.391   3.099   8.955  0.6379  1.2967 -1.0181
   87SAPS  C219 8356   4.274   3.235   8.828 -0.2921  0.4420  0.2583
   87SAPS  H19R 8357   4.362   3.238   8.759  1.3525 -1.9496  2.1200
   87SAPS  H19S 8358   4.239   3.340   8.844  0.4108  0.8480 -0.7728
   87SAPS  C220 8359   4.166   3.144   8.769  0.0107 -0.8731 -0.5891
   87SAPS  H20R 8360   4.196   3.037   8.775  0.2625 -0.7982 -0.4594
   87SAPS  H20S 8361   4.136   3.174   8.666  0.6688 -0.6917 -0.7346
   87SAPS  H20T 8362   4.077   3.154   8.835  0.4130 -1.2058  0.0171
   87SAPS   C33 8363   3.557   3.391   9.837  0.3062  0.4403 -0.0081
   87SAPS   H3X 8364   3.461   3.440   9.865 -0.2226 -0.2653 -0.5544
   87SAPS   H3Y 8365   3.550   3.292   9.887 -1.2739  1.0759  1.1070
   87SAPS   C34 8366   3.569   3.386   9.682 -0.1603 -0.1040 -0.0825
   87SAPS   H4X 8367   3.478   3.334   9.644 -0.0113 -0.3389 -0.1237
   87SAPS   H4Y 8368   3.641   3.303   9.663 -2.0915 -1.8005 -0.3450
   87SAPS   C35 8369   3.601   3.513   9.600  0.0335  0.5934 -0.0408
   87SAPS   H5X 8370   3.705   3.544   9.620  1.2952 -0.5259 -4.0404
   87SAPS   H5Y 8371   3.523   3.585   9.634 -0.9898 -0.9997  1.1845
   87SAPS   C36 8372   3.576   3.506   9.451 -0.5007  0.6484  0.5068
   87SAPS   H6X 8373   3.471   3.537   9.433 -0.6883  2.1087  3.5152
   87SAPS   H6Y 8374   3.584   3.403   9.411  0.8109  0.3719  1.4330
   87SAPS   C37 8375   3.677   3.599   9.372 -0.2603  0.1087  0.2875
   87SAPS   H7X 8376   3.780   3.583   9.412 -0.1002 -0.0210 -0.1631
   87SAPS   H7Y 8377   3.643   3.703   9.394 -0.0527 -0.2199  2.3468
   87SAPS   C38 8378   3.673   3.580   9.222  0.5447  0.0753 -0.0248
   87SAPS   H8X 8379   3.724   3.490   9.179  2.8367  0.9888  0.6161
   87SAPS   H8Y 8380   3.731   3.664   9.179  0.7440  0.0033  0.0980
   87SAPS   C39 8381   3.535   3.581   9.156 -0.5443 -0.5998  0.1460
   87SAPS   H9X 8382   3.495   3.680   9.187 -1.0281 -1.1626  1.3319
   87SAPS   H9Y 8383   3.475   3.500   9.201 -1.2747  0.2695  0.7706
   87SAPS  C310 8384   3.539   3.588   9.003  0.5471 -0.4619  0.4444
   87SAPS  H10X 8385   3.599   3.509   8.952  0.3450 -0.7368  0.6253
   87SAPS  H10Y 8386   3.587   3.684   8.976 -0.2672  0.0321  0.7263
   87SAPS  C311 8387   3.395   3.586   8.947  0.1347  0.4893  0.3443
   87SAPS  H11X 8388   3.334   3.668   8.990 -0.3417  0.5932 -0.4941
   87SAPS  H11Y 8389   3.346   3.489   8.969 -0.7107  0.6138 -0.9041
   87SAPS  C312 8390   3.386   3.594   8.787 -0.5027 -0.2360 -0.7177
   87SAPS  H12X 8391   3.403   3.490   8.751  0.1726  0.0338 -1.2095
   87SAPS  H12Y 8392   3.460   3.669   8.750 -0.7269  0.8739  0.9966
   87SAPS  C313 8393   3.234   3.634   8.743 -0.5340  0.2362 -0.1469
   87SAPS  H13X 8394   3.167   3.552   8.778  0.1097 -0.1878  0.0962
   87SAPS  H13Y 8395   3.235   3.638   8.632 -1.8854 -1.4335 -0.2715
   87SAPS  C314 8396   3.175   3.768   8.790 -0.4614  0.1557 -0.1734
   87SAPS  H14X 8397   3.243   3.849   8.757  0.7706 -0.9482 -0.4315
   87SAPS  H14Y 8398   3.154   3.772   8.898  2.7250 -2.9931  0.7668
   87SAPS  C315 8399   3.040   3.785   8.716 -0.3087  0.0810 -0.0172
   87SAPS  H15X 8400   2.980   3.692   8.721 -0.7744  0.2938 -1.3621
   87SAPS  H15Y 8401   3.063   3.800   8.609 -3.1476 -3.2541 -1.2938
   87SAPS  C316 8402   2.959   3.903   8.759 -0.4787 -0.0414 -0.2449
   87SAPS  H16X 8403   3.033   3.968   8.810 -1.0645 -1.3502  2.4414
   87SAPS  H16Y 8404   2.899   3.868   8.846 -1.0520  1.5878  0.0521
   87SAPS  C317 8405   2.866   3.962   8.654  0.1047 -0.4793  0.5228
   87SAPS  H17X 8406   2.771   4.010   8.684  0.1807 -1.4700  2.4532
   87SAPS  H17Y 8407   2.835   3.885   8.580  1.0625  0.8185 -1.3442
   87SAPS  C318 8408   2.931   4.076   8.566 -0.0509 -0.0193  0.1484
   87SAPS  H18X 8409   2.962   4.169   8.620 -1.8236  1.8609 -1.8679
   87SAPS  H18Y 8410   2.857   4.105   8.489 -1.1315 -3.4947 -0.2607
   87SAPS  H18Z 8411   3.023   4.043   8.515  0.5918  1.6425  0.1617
   88SAPS     N 8412   5.705   0.362  10.952 -0.8313  0.3857  0.0634
   88SAPS   HN1 8413   5.679   0.458  10.982 -3.0282  0.2567 -1.2375
   88SAPS   HN2 8414   5.702   0.365  10.848 -0.9403  0.2284  0.0636
   88SAPS   HN3 8415   5.634   0.295  10.986 -1.3178  0.8327 -0.0689
   88SAPS   C12 8416   5.846   0.330  10.988 -0.2986  0.2752 -0.0087
   88SAPS  H12A 8417   5.854   0.347  11.094 -1.9103 -1.0770  0.3761
   88SAPS   C13 8418   5.893   0.185  10.951  0.1611  0.5647 -0.4707
   88SAPS  O13A 8419   5.803   0.101  10.920 -0.2982  0.1473  0.4824
   88SAPS  O13B 8420   6.008   0.153  10.973 -0.0044  0.3213 -0.1968
   88SAPS   C11 8421   5.933   0.430  10.910 -0.0821  0.3140  0.1761
   88SAPS  H11A 8422   5.909   0.412  10.803  0.0102 -1.0519  0.3652
   88SAPS  H11B 8423   6.041   0.408  10.922 -0.3850 -0.4907  1.6025
   88SAPS     P 8424   5.968   0.681  10.850 -0.0953  0.1898  0.1150
   88SAPS   O13 8425   5.957   0.809  10.921  0.2663 -0.2808 -0.0803
   88SAPS   O14 8426   6.104   0.648  10.802  0.2876 -0.3171  0.2838
   88SAPS   O12 8427   5.908   0.567  10.941  0.6167  0.8608  0.2136
   88SAPS   O11 8428   5.870   0.691  10.725  0.3838 -0.5976  0.1011
   88SAPS    C1 8429   5.871   0.780  10.614  0.0149 -0.1266 -0.4374
   88SAPS    HA 8430   5.792   0.858  10.618 -1.2095 -1.3369 -0.2741
   88SAPS    HB 8431   5.970   0.831  10.614  0.7026 -1.3904 -1.2388
   88SAPS    C2 8432   5.875   0.697  10.487  0.3701  0.2453  0.3539
   88SAPS    HS 8433   5.778   0.642  10.484  1.2062 -1.2462 -0.1454
   88SAPS   O21 8434   5.988   0.612  10.481  0.3531 -0.2417 -0.6031
   88SAPS   C21 8435   5.966   0.490  10.527 -0.2047  0.5907 -0.7831
   88SAPS   O22 8436   5.861   0.440  10.561  0.0279 -0.0777 -0.0356
   88SAPS   C22 8437   6.097   0.415  10.536  0.8590 -0.1186  0.2240
   88SAPS   H2R 8438   6.170   0.475  10.477  0.4070 -1.4757 -1.8249
   88SAPS   H2S 8439   6.137   0.421  10.639 -0.7699 -0.7403  0.9310
   88SAPS    C3 8440   5.885   0.799  10.367 -0.1063 -0.6443 -0.1591
   88SAPS    HX 8441   5.977   0.860  10.374  0.4537 -1.4893 -0.0410
   88SAPS    HY 8442   5.793   0.862  10.371  1.5921  2.0675 -1.1616
   88SAPS   O31 8443   5.873   0.726  10.240  0.2235 -0.4289  0.1946
   88SAPS   C31 8444   5.991   0.699  10.174  0.4506 -0.5664  0.2362
   88SAPS   O32 8445   6.097   0.751  10.209  0.1710  0.5887  0.6129
   88SAPS   C32 8446   5.969   0.606  10.054 -0.4970  0.4086  0.4588
   88SAPS   H2X 8447   6.057   0.624   9.987  0.2173 -0.1078  1.2347
   88SAPS   H2Y 8448   5.878   0.642  10.001  0.7612  1.1971 -1.2871
   88SAPS   C23 8449   6.084   0.274  10.477  0.3837 -0.5087  0.4859
   88SAPS   H3R 8450   6.029   0.279  10.381  1.5770  1.1590 -0.1763
   88SAPS   H3S 8451   6.037   0.203  10.548  0.9683 -1.6021 -0.1987
   88SAPS   C24 8452   6.222   0.214  10.435 -0.5276  0.2466 -0.0901
   88SAPS   H4R 8453   6.307   0.240  10.501 -0.1464 -1.5599  0.1967
   88SAPS   H4S 8454   6.236   0.272  10.341  0.6860  1.5720  0.8679
   88SAPS   C25 8455   6.214   0.063  10.429  0.2097 -0.2749 -0.6914
   88SAPS   H5R 8456   6.170   0.033  10.525 -2.7884  1.4069 -1.3978
   88SAPS   C26 8457   6.236  -0.018  10.324 -0.3803  0.0069 -0.3303
   88SAPS   H6R 8458   6.216  -0.126  10.327  2.9286 -0.8267 -2.6244
   88SAPS   C27 8459   6.288   0.036  10.195 -0.1175 -0.3688 -1.0622
   88SAPS   H7R 8460   6.258   0.142  10.182  1.2983  0.1388 -0.4642
   88SAPS   H7S 8461   6.239  -0.019  10.113  1.2390 -2.6233 -0.4365
   88SAPS   C28 8462   6.441   0.026  10.176 -0.6770 -0.8165  0.5611
   88SAPS   H8R 8463   6.501   0.010  10.267  1.2450  0.7535 -0.3570
   88SAPS   C29 8464   6.503   0.026  10.057 -0.2731 -0.6716 -0.0538
   88SAPS   H9R 8465   6.612   0.013  10.061 -0.3096 -1.2798 -0.8828
   88SAPS  C210 8466   6.438   0.027   9.919  0.0304  0.0125  0.1079
   88SAPS  H10R 8467   6.466   0.120   9.866 -1.2683  0.5937  0.3857
   88SAPS  H10S 8468   6.327   0.024   9.924 -0.1115  2.6246  0.2060
   88SAPS  C211 8469   6.478  -0.093   9.840  0.6021 -0.1343  0.4065
   88SAPS  H11R 8470   6.459  -0.191   9.885 -2.6787 -0.0562 -0.5110
   88SAPS  C212 8471   6.506  -0.091   9.709  0.1214  0.4955 -0.3319
   88SAPS  H12R 8472   6.530  -0.192   9.673 -1.8903  0.0915 -0.7138
   88SAPS  C213 8473   6.525   0.019   9.606  0.1907  0.6241  0.3100
   88SAPS  H13R 8474   6.478   0.118   9.625 -2.0719 -0.2417 -0.4181
   88SAPS  H13S 8475   6.472   0.009   9.509  1.2356  3.2628 -0.6225
   88SAPS  C214 8476   6.672   0.051   9.586  0.1157 -0.3222 -0.2699
   88SAPS  H14R 8477   6.703   0.129   9.656 -0.9305  0.4125 -0.6068
   88SAPS  C215 8478   6.747   0.013   9.482  0.4390 -0.1263  0.1363
   88SAPS  H15R 8479   6.854   0.041   9.479  0.4395  0.5461  3.4275
   88SAPS  C216 8480   6.698  -0.071   9.361 -0.5652  0.1316 -0.5744
   88SAPS  H16R 8481   6.608  -0.129   9.391 -0.6157 -1.3167 -3.2620
   88SAPS  H16S 8482   6.774  -0.151   9.346  0.5583  1.0497  0.0679
   88SAPS  C217 8483   6.674  -0.007   9.221  0.2542  0.1996 -0.0958
   88SAPS  H17R 8484   6.766   0.042   9.182  0.9123 -1.3244 -0.4983
   88SAPS  H17S 8485   6.592   0.067   9.231 -0.0518 -0.4748  4.7623
   88SAPS  C218 8486   6.637  -0.102   9.114  0.3145 -0.3114  0.2226
   88SAPS  H18R 8487   6.532  -0.137   9.117  0.4824 -0.8132  0.3699
   88SAPS  H18S 8488   6.707  -0.188   9.112  0.4924 -0.1704 -1.8027
   88SAPS  C219 8489   6.659  -0.045   8.973  0.8432 -0.0303 -0.6401
   88SAPS  H19R 8490   6.768  -0.024   8.962  0.8078 -0.3293 -1.6903
   88SAPS  H19S 8491   6.604   0.050   8.958 -0.5419 -0.8450 -0.8731
   88SAPS  C220 8492   6.616  -0.135   8.861 -0.6115 -0.9517 -0.4921
   88SAPS  H20R 8493   6.666  -0.234   8.863 -1.1006 -1.2872 -2.3448
   88SAPS  H20S 8494   6.638  -0.094   8.760 -1.7669 -0.7142 -0.6696
   88SAPS  H20T 8495   6.505  -0.141   8.860 -0.6735 -0.2545  0.6665
   88SAPS   C33 8496   5.964   0.456  10.090 -0.2400 -0.0237 -0.2958
   88SAPS   H3X 8497   5.892   0.446  10.174  0.2084 -1.9636 -0.0944
   88SAPS   H3Y 8498   6.065   0.432  10.132 -1.2373 -1.7442  1.3077
   88SAPS   C34 8499   5.947   0.362   9.982 -0.0278  0.1133 -0.2969
   88SAPS   H4X 8500   5.876   0.406   9.909 -0.8309 -0.7479 -0.0480
   88SAPS   H4Y 8501   5.922   0.257  10.008  0.3868 -0.1176 -0.7982
   88SAPS   C35 8502   6.079   0.350   9.904  0.0962 -0.6090  0.3450
   88SAPS   H5X 8503   6.156   0.305   9.971 -0.0778 -1.2421  0.1316
   88SAPS   H5Y 8504   6.117   0.451   9.876 -1.1444 -0.5498 -1.2472
   88SAPS   C36 8505   6.067   0.289   9.766 -0.1027  0.1879 -0.2520
   88SAPS   H6X 8506   6.169   0.303   9.726  0.1296  0.7618  0.5188
   88SAPS   H6Y 8507   5.987   0.348   9.716  0.5885  2.5678  1.2641
   88SAPS   C37 8508   6.029   0.146   9.765  0.4916 -0.3248  0.0195
   88SAPS   H7X 8509   5.939   0.139   9.831  0.3821  1.4305  0.0826
   88SAPS   H7Y 8510   6.112   0.092   9.815 -0.1667 -0.1915  1.3022
   88SAPS   C38 8511   6.005   0.069   9.635  0.3098 -0.1393 -0.4391
   88SAPS   H8X 8512   5.918   0.118   9.585  2.1704  2.3675 -1.4490
   88SAPS   H8Y 8513   5.983  -0.038   9.653 -0.8941  0.3798  1.4810
   88SAPS   C39 8514   6.121   0.077   9.544 -0.4292 -0.2485 -0.0068
   88SAPS   H9X 8515   6.210   0.018   9.575  0.5817  0.8192 -0.7871
   88SAPS   H9Y 8516   6.139   0.185   9.527 -2.0535  0.1280  0.5068
   88SAPS  C310 8517   6.089   0.033   9.407  0.6800  0.0367  0.7426
   88SAPS  H10X 8518   6.002   0.093   9.372  0.7325  1.1017  2.3883
   88SAPS  H10Y 8519   6.052  -0.072   9.409 -3.1649  1.2318  1.9305
   88SAPS  C311 8520   6.191   0.025   9.292 -0.4922  0.0591  0.2790
   88SAPS  H11X 8521   6.271  -0.044   9.327  0.4391  0.0079 -1.7880
   88SAPS  H11Y 8522   6.229   0.125   9.264 -0.7202 -0.3815 -1.7828
   88SAPS  C312 8523   6.128  -0.032   9.161 -0.3146  0.2282 -1.4668
   88SAPS  H12X 8524   6.046   0.034   9.126  0.5224  0.9498 -2.1401
   88SAPS  H12Y 8525   6.101  -0.140   9.168 -1.2523  0.5678  1.1837
   88SAPS  C313 8526   6.221  -0.042   9.043 -0.9807 -0.0509 -0.0202
   88SAPS  H13X 8527   6.324  -0.054   9.084 -1.5589  1.4434  2.0931
   88SAPS  H13Y 8528   6.219   0.060   9.000  1.9921  0.1353  0.1028
   88SAPS  C314 8529   6.173  -0.153   8.942  0.1604 -0.1430  0.4642
   88SAPS  H14X 8530   6.181  -0.259   8.975 -0.9097 -0.5472 -0.5524
   88SAPS  H14Y 8531   6.250  -0.159   8.863 -0.5319  0.2313 -0.2444
   88SAPS  C315 8532   6.030  -0.132   8.882 -0.1408  0.0350  0.3338
   88SAPS  H15X 8533   6.023  -0.027   8.846 -1.3220  0.1188  0.7707
   88SAPS  H15Y 8534   5.966  -0.144   8.972  0.0353 -3.2203  0.1411
   88SAPS  C316 8535   5.986  -0.232   8.778  0.8329 -0.1788  0.5117
   88SAPS  H16X 8536   5.966  -0.328   8.830 -1.3373 -1.8972 -3.1587
   88SAPS  H16Y 8537   6.064  -0.256   8.702 -0.4895 -3.5838  0.0804
   88SAPS  C317 8538   5.868  -0.183   8.687  0.2344  0.5031 -0.3875
   88SAPS  H17X 8539   5.790  -0.147   8.757  0.8462  0.7811  0.1578
   88SAPS  H17Y 8540   5.828  -0.266   8.624  0.4363  0.2245 -0.1479
   88SAPS  C318 8541   5.909  -0.059   8.606 -0.0015 -0.0866  0.4612
   88SAPS  H18X 8542   5.879   0.028   8.669  1.9485 -0.2016  1.6292
   88SAPS  H18Y 8543   5.857  -0.044   8.508 -0.2781  0.5710  0.7018
   88SAPS  H18Z 8544   6.018  -0.051   8.586  0.0904  1.4723  1.4309
   89SAPS     N 8545   6.110   4.170  11.001 -0.3380 -0.1694  0.8715
   89SAPS   HN1 8546   6.166   4.226  10.933  3.0584 -0.6641  2.9910
   89SAPS   HN2 8547   6.137   4.199  11.097 -1.3444 -1.9143  1.7262
   89SAPS   HN3 8548   6.128   4.069  10.983  2.3237  0.6105 -1.6906
   89SAPS   C12 8549   5.964   4.191  10.969  0.1456  0.0597 -0.0252
   89SAPS  H12A 8550   5.901   4.131  11.033 -0.5775  1.7267  0.8710
   89SAPS   C13 8551   5.918   4.335  11.001 -0.6320 -0.0158  0.6862
   89SAPS  O13A 8552   5.993   4.410  11.070  0.3297  0.1187  0.3788
   89SAPS  O13B 8553   5.801   4.365  10.975  0.1580 -0.0223  0.0632
   89SAPS   C11 8554   5.936   4.146  10.820 -0.2082 -0.1002 -0.6084
   89SAPS  H11A 8555   5.989   4.213  10.749  0.5675  0.9781  0.9322
   89SAPS  H11B 8556   5.828   4.162  10.801  0.1465  3.0166 -0.4484
   89SAPS     P 8557   5.880   3.903  10.735 -0.6576 -0.6330  0.2994
   89SAPS   O13 8558   5.963   3.795  10.676  0.2365  0.2930  0.1558
   89SAPS   O14 8559   5.781   3.872  10.836 -0.4330  0.2906  0.5992
   89SAPS   O12 8560   5.978   4.018  10.793  0.5709 -0.2780 -0.2302
   89SAPS   O11 8561   5.806   3.977  10.616  0.4803 -0.4244  0.3639
   89SAPS    C1 8562   5.877   4.048  10.514 -0.8112 -0.3878  0.3639
   89SAPS    HA 8563   5.888   4.154  10.546 -3.1185  0.8966 -2.5832
   89SAPS    HB 8564   5.976   4.000  10.498 -0.4546  0.3174  0.4023
   89SAPS    C2 8565   5.810   4.060  10.375  0.1693 -0.2678  0.7421
   89SAPS    HS 8566   5.889   4.083  10.300  0.1504 -2.6757 -0.1154
   89SAPS   O21 8567   5.695   4.146  10.379  0.1048  0.3554  0.0531
   89SAPS   C21 8568   5.735   4.277  10.369 -0.1748  0.2161  0.5693
   89SAPS   O22 8569   5.848   4.310  10.344  0.2564  0.2147  0.0385
   89SAPS   C22 8570   5.610   4.383  10.382 -0.1503  0.6282 -0.5258
   89SAPS   H2R 8571   5.515   4.326  10.386 -0.9127  1.7936 -1.5251
   89SAPS   H2S 8572   5.633   4.425  10.482 -0.4501 -1.5997  0.5535
   89SAPS    C3 8573   5.754   3.926  10.335 -0.1682  0.2214  0.3429
   89SAPS    HX 8574   5.678   3.897  10.411 -1.3051  1.9906 -0.0587
   89SAPS    HY 8575   5.826   3.844  10.358  0.4652  1.0814  1.5106
   89SAPS   O31 8576   5.698   3.924  10.200  0.4226  0.5972  0.0574
   89SAPS   C31 8577   5.793   3.905  10.108  0.5627 -0.3415 -0.1127
   89SAPS   O32 8578   5.909   3.875  10.135  0.6144  0.3794 -0.7374
   89SAPS   C32 8579   5.724   3.923   9.976  0.1384  0.5873 -0.0653
   89SAPS   H2X 8580   5.614   3.939   9.974  0.3619  2.3621 -2.0766
   89SAPS   H2Y 8581   5.733   3.825   9.925 -2.7121 -0.1407  0.6441
   89SAPS   C23 8582   5.603   4.485  10.273 -0.1948 -0.3302  1.1450
   89SAPS   H3R 8583   5.705   4.516  10.241 -0.3988  1.1285  1.8432
   89SAPS   H3S 8584   5.558   4.576  10.317 -3.1034 -0.7342 -0.7133
   89SAPS   C24 8585   5.502   4.442  10.159  0.4834  0.2144  0.0728
   89SAPS   H4R 8586   5.406   4.426  10.212  0.3603  0.9916  0.0879
   89SAPS   H4S 8587   5.532   4.342  10.122  0.8078  0.6900 -0.9878
   89SAPS   C25 8588   5.501   4.543  10.050 -0.3408 -0.4505 -0.4858
   89SAPS   H5R 8589   5.488   4.642  10.096  1.1906 -0.7028  0.5859
   89SAPS   C26 8590   5.516   4.523   9.916 -0.1243  0.3113 -0.1513
   89SAPS   H6R 8591   5.523   4.612   9.852  2.8910 -1.0852 -1.9958
   89SAPS   C27 8592   5.530   4.393   9.838  0.1445 -0.6864 -0.7221
   89SAPS   H7R 8593   5.559   4.308   9.904  0.2202 -0.0182  0.1200
   89SAPS   H7S 8594   5.610   4.396   9.761 -0.6554 -2.4549 -1.6879
   89SAPS   C28 8595   5.395   4.361   9.773 -0.1751  0.3812  0.3289
   89SAPS   H8R 8596   5.314   4.325   9.838 -0.1177  0.3747  0.3975
   89SAPS   C29 8597   5.364   4.386   9.643 -0.4022  0.6416  0.4190
   89SAPS   H9R 8598   5.261   4.367   9.610 -1.2132  1.3065  2.3745
   89SAPS  C210 8599   5.442   4.453   9.535  0.5094 -0.1334 -0.1584
   89SAPS  H10R 8600   5.473   4.551   9.576  0.5634 -0.3336  0.2820
   89SAPS  H10S 8601   5.374   4.467   9.448 -3.2684 -2.3083  2.1658
   89SAPS  C211 8602   5.568   4.378   9.486  0.4625  0.0580 -0.2810
   89SAPS  H11R 8603   5.639   4.348   9.565  4.0460  2.4392 -2.2663
   89SAPS  C212 8604   5.613   4.355   9.360 -0.1642  0.4788  0.6945
   89SAPS  H12R 8605   5.706   4.302   9.337 -0.2154  0.2852  0.9286
   89SAPS  C213 8606   5.543   4.383   9.227 -1.1936  0.1200 -0.0969
   89SAPS  H13R 8607   5.617   4.379   9.145  2.5500  0.1748  2.9738
   89SAPS  H13S 8608   5.481   4.475   9.230 -1.5274 -0.0978  2.4234
   89SAPS  C214 8609   5.441   4.275   9.214 -0.2212 -0.1518 -0.2241
   89SAPS  H14R 8610   5.443   4.196   9.291  1.2535 -0.3908 -0.4800
   89SAPS  C215 8611   5.355   4.264   9.118 -0.5146  0.3611 -0.0961
   89SAPS  H15R 8612   5.283   4.181   9.120  1.2073 -1.1833  1.0606
   89SAPS  C216 8613   5.358   4.357   9.005 -0.4384 -0.0512 -0.5353
   89SAPS  H16R 8614   5.459   4.352   8.959  0.2017  0.1118  0.7892
   89SAPS  H16S 8615   5.344   4.462   9.038  1.1443  0.4019 -1.2025
   89SAPS  C217 8616   5.251   4.340   8.901 -0.3052  0.3197  0.3070
   89SAPS  H17R 8617   5.155   4.341   8.956  0.0170 -1.2646  0.9580
   89SAPS  H17S 8618   5.261   4.243   8.848  1.3303 -0.5377  2.0677
   89SAPS  C218 8619   5.238   4.446   8.790  0.6197 -0.5595  0.5546
   89SAPS  H18R 8620   5.161   4.414   8.717  2.4292  0.3518 -1.9041
   89SAPS  H18S 8621   5.331   4.435   8.730  0.4362 -0.0514  0.1699
   89SAPS  C219 8622   5.234   4.594   8.834 -0.4922  0.3035 -0.0324
   89SAPS  H19R 8623   5.331   4.622   8.881 -0.6874 -0.5536  0.9209
   89SAPS  H19S 8624   5.160   4.611   8.915  1.4996  3.6588  1.2780
   89SAPS  C220 8625   5.191   4.686   8.722 -0.2878  0.3384 -0.2019
   89SAPS  H20R 8626   5.082   4.668   8.708 -0.2627  0.3568 -0.4229
   89SAPS  H20S 8627   5.249   4.661   8.631  2.5076  0.7105  1.3764
   89SAPS  H20T 8628   5.204   4.793   8.748 -1.2150  0.5354 -0.5092
   89SAPS   C33 8629   5.788   4.027   9.888  0.0514  0.1345 -0.4369
   89SAPS   H3X 8630   5.896   4.005   9.871 -0.2189 -2.7133  0.8966
   89SAPS   H3Y 8631   5.779   4.126   9.938  0.4213  0.4125 -0.9102
   89SAPS   C34 8632   5.717   4.051   9.756  0.7340  0.3301 -0.5433
   89SAPS   H4X 8633   5.676   4.153   9.739 -0.7713  0.4582  3.0439
   89SAPS   H4Y 8634   5.625   3.990   9.760  0.2809  0.9798 -0.9354
   89SAPS   C35 8635   5.805   4.004   9.640  0.9020 -0.0385 -0.4458
   89SAPS   H5X 8636   5.843   3.904   9.670 -0.1168  0.2159  1.8213
   89SAPS   H5Y 8637   5.891   4.075   9.635  0.1022  1.1800  1.9373
   89SAPS   C36 8638   5.726   4.004   9.511  0.2059  1.3579  0.1375
   89SAPS   H6X 8639   5.666   4.097   9.501 -0.1699  1.6459  3.6658
   89SAPS   H6Y 8640   5.656   3.918   9.501  0.5716  1.0652  0.0756
   89SAPS   C37 8641   5.805   3.978   9.384 -0.1063  0.0705  0.9371
   89SAPS   H7X 8642   5.866   3.887   9.400  0.8758  0.9475  2.3356
   89SAPS   H7Y 8643   5.876   4.061   9.367 -0.4756 -0.0377 -1.6451
   89SAPS   C38 8644   5.715   3.974   9.257 -0.3562 -0.2251  0.6815
   89SAPS   H8X 8645   5.651   4.065   9.257  1.3356  1.0197 -0.6898
   89SAPS   H8Y 8646   5.652   3.883   9.269  1.2172 -1.3384  0.6911
   89SAPS   C39 8647   5.807   3.968   9.133  0.3206 -0.8098 -0.3826
   89SAPS   H9X 8648   5.747   3.923   9.051 -3.0779  0.5978  1.1300
   89SAPS   H9Y 8649   5.896   3.902   9.142 -1.3591 -3.1690 -0.1331
   89SAPS  C310 8650   5.858   4.103   9.093 -0.4066 -0.1174  0.5276
   89SAPS  H10X 8651   5.968   4.114   9.102 -0.4488 -0.6815  2.0505
   89SAPS  H10Y 8652   5.824   4.186   9.160  0.8118  1.3429 -0.5881
   89SAPS  C311 8653   5.824   4.134   8.951  0.2670 -0.2312 -0.4064
   89SAPS  H11X 8654   5.715   4.116   8.936  0.2831  1.0014 -2.4610
   89SAPS  H11Y 8655   5.878   4.072   8.876 -1.3863 -2.2947  0.0338
   89SAPS  C312 8656   5.852   4.280   8.923 -0.0822 -0.0424 -0.3343
   89SAPS  H12X 8657   5.956   4.299   8.957  0.4252 -1.3063 -1.0774
   89SAPS  H12Y 8658   5.795   4.340   8.997  0.4673 -0.3450  0.3447
   89SAPS  C313 8659   5.827   4.317   8.780 -0.3069  0.2497  0.2160
   89SAPS  H13X 8660   5.718   4.320   8.756 -0.5589  0.8048  1.3390
   89SAPS  H13Y 8661   5.881   4.245   8.716  0.4832  0.0035  1.1423
   89SAPS  C314 8662   5.887   4.456   8.748  0.2510 -0.3494 -0.3076
   89SAPS  H14X 8663   5.982   4.459   8.806 -0.2799 -0.6387  0.5886
   89SAPS  H14Y 8664   5.834   4.545   8.788  2.3082  0.2278  1.2881
   89SAPS  C315 8665   5.920   4.489   8.603 -1.1425  0.2920 -0.4424
   89SAPS  H15X 8666   5.989   4.410   8.567 -1.8504 -0.9938  0.9035
   89SAPS  H15Y 8667   5.982   4.581   8.597 -1.8283  0.7486 -0.7034
   89SAPS  C316 8668   5.809   4.499   8.505 -0.6592  0.4405  1.1755
   89SAPS  H16X 8669   5.734   4.417   8.502 -0.1618 -0.0008 -0.1421
   89SAPS  H16Y 8670   5.861   4.500   8.406 -2.0607  0.1104  0.4058
   89SAPS  C317 8671   5.738   4.629   8.512  0.8478 -0.4429 -0.0402
   89SAPS  H17X 8672   5.706   4.652   8.408  0.4003 -0.4250  0.0990
   89SAPS  H17Y 8673   5.805   4.710   8.548 -0.1788  0.0890  0.7079
   89SAPS  C318 8674   5.605   4.623   8.590  0.3239  0.1355 -0.5902
   89SAPS  H18X 8675   5.540   4.545   8.547 -1.4924  0.2057  1.8032
   89SAPS  H18Y 8676   5.547   4.718   8.589 -0.9149 -0.5996 -2.4823
   89SAPS  H18Z 8677   5.623   4.597   8.697  3.2049  2.2288 -0.4513
   90SAPS     N 8678   0.936   1.248  10.665  0.1104 -0.3179 -0.2177
   90SAPS   HN1 8679   0.974   1.223  10.572 -0.6789  0.3626 -0.7454
   90SAPS   HN2 8680   0.979   1.186  10.737 -1.1448 -2.1633 -0.9699
   90SAPS   HN3 8681   0.836   1.223  10.648  0.1372 -0.1582 -0.6386
   90SAPS   C12 8682   0.969   1.389  10.696  0.5609  0.8641  0.4043
   90SAPS  H12A 8683   0.880   1.424  10.747 -0.4796  0.8623 -1.3389
   90SAPS   C13 8684   1.084   1.419  10.793 -0.2185 -0.9516  0.3372
   90SAPS  O13A 8685   1.146   1.333  10.857 -0.1256  0.8719  0.0849
   90SAPS  O13B 8686   1.090   1.543  10.828 -0.5451 -0.6962  0.1590
   90SAPS   C11 8687   0.984   1.467  10.563 -0.6963 -0.5790 -0.2303
   90SAPS  H11A 8688   1.062   1.413  10.506 -0.8407 -1.4970  0.4219
   90SAPS  H11B 8689   1.033   1.563  10.590 -0.1379 -1.1447  0.8083
   90SAPS     P 8690   0.767   1.605  10.480 -0.4845  0.0718  0.4792
   90SAPS   O13 8691   0.626   1.568  10.488  0.2115  0.3307  0.7364
   90SAPS   O14 8692   0.816   1.702  10.583  0.4339  0.6518  0.7539
   90SAPS   O12 8693   0.864   1.481  10.485 -0.5448  0.7269  0.8302
   90SAPS   O11 8694   0.788   1.665  10.330 -0.0333  0.0701 -0.4622
   90SAPS    C1 8695   0.891   1.615  10.249  0.2593  0.2162  0.4415
   90SAPS    HA 8696   0.936   1.706  10.203 -1.2471  0.4092 -0.7480
   90SAPS    HB 8697   0.974   1.558  10.296 -0.8602 -0.7163  1.3314
   90SAPS    C2 8698   0.835   1.523  10.132  0.2087  0.1964  0.0388
   90SAPS    HS 8699   0.915   1.480  10.067  1.2174 -0.4136  1.5959
   90SAPS   O21 8700   0.740   1.596  10.061 -0.4578  0.1344 -0.0895
   90SAPS   C21 8701   0.784   1.655   9.952  0.1123 -0.3223 -0.0785
   90SAPS   O22 8702   0.895   1.650   9.908  0.0284  0.1206 -0.1347
   90SAPS   C22 8703   0.660   1.699   9.869  0.2040  0.4068 -0.2017
   90SAPS   H2R 8704   0.685   1.669   9.765 -0.8386  1.3853 -0.7460
   90SAPS   H2S 8705   0.563   1.652   9.895 -1.9624  2.6527 -3.5482
   90SAPS    C3 8706   0.765   1.389  10.190 -0.0771 -0.4836  0.1706
   90SAPS    HX 8707   0.697   1.411  10.275 -0.0872 -2.0684  0.6099
   90SAPS    HY 8708   0.847   1.329  10.236 -0.3586 -0.1717  1.1041
   90SAPS   O31 8709   0.708   1.310  10.079 -0.6218  0.0200  0.1070
   90SAPS   C31 8710   0.583   1.293  10.058  0.2598  0.3141 -0.0950
   90SAPS   O32 8711   0.489   1.338  10.124 -0.2790  0.2053 -0.3130
   90SAPS   C32 8712   0.557   1.200   9.934  0.3996 -0.0697  0.2117
   90SAPS   H2X 8713   0.532   1.095   9.963  1.1243 -0.3161 -0.0326
   90SAPS   H2Y 8714   0.646   1.188   9.869  0.1704 -1.5432  0.1396
   90SAPS   C23 8715   0.641   1.856   9.870 -0.2148 -0.5473  0.4935
   90SAPS   H3R 8716   0.734   1.915   9.852 -0.9224  0.7287  0.8496
   90SAPS   H3S 8717   0.604   1.889   9.969 -0.6139  0.5030  0.0159
   90SAPS   C24 8718   0.546   1.905   9.755 -0.6073 -0.3817 -0.2526
   90SAPS   H4R 8719   0.596   1.883   9.659 -0.3208  0.2535 -0.2560
   90SAPS   H4S 8720   0.546   2.017   9.754  2.3582 -0.2939  0.1910
   90SAPS   C25 8721   0.408   1.861   9.782  0.1458  0.6945  0.2855
   90SAPS   H5R 8722   0.348   1.904   9.863 -0.6094  0.9681 -0.4024
   90SAPS   C26 8723   0.348   1.774   9.701  0.6359  0.2390  0.1271
   90SAPS   H6R 8724   0.241   1.759   9.724  0.0660 -0.2824 -2.4882
   90SAPS   C27 8725   0.396   1.707   9.578  0.9452  0.2138 -0.3241
   90SAPS   H7R 8726   0.506   1.715   9.567  1.1117 -0.0802  0.9875
   90SAPS   H7S 8727   0.354   1.767   9.494  1.6249  1.2332  0.0522
   90SAPS   C28 8728   0.353   1.562   9.559 -0.9595 -0.5170  0.6199
   90SAPS   H8R 8729   0.399   1.503   9.639  0.1564 -0.8767 -0.2588
   90SAPS   C29 8730   0.276   1.505   9.465  0.4556  0.0763  0.2376
   90SAPS   H9R 8731   0.269   1.396   9.456  1.9394  0.0827 -1.4574
   90SAPS  C210 8732   0.214   1.593   9.353 -0.4720 -0.7640  0.3310
   90SAPS  H10R 8733   0.289   1.669   9.319 -1.0884  0.0259  0.6991
   90SAPS  H10S 8734   0.128   1.649   9.395 -0.5806 -1.1101  0.5678
   90SAPS  C211 8735   0.176   1.522   9.222 -0.1214 -1.0460  0.5038
   90SAPS  H11R 8736   0.200   1.415   9.219 -1.4966 -1.4238  1.8014
   90SAPS  C212 8737   0.107   1.581   9.122  0.5291 -0.5983 -0.4535
   90SAPS  H12R 8738   0.095   1.533   9.024 -0.1585  1.4487 -1.4278
   90SAPS  C213 8739   0.053   1.724   9.122  0.0548 -0.7710 -0.3827
   90SAPS  H13R 8740   0.098   1.776   9.035 -1.6903  1.4001 -0.0609
   90SAPS  H13S 8741   0.069   1.784   9.214  1.8732  0.9288 -1.7243
   90SAPS  C214 8742  -0.098   1.723   9.095 -0.3294 -0.3366 -0.2681
   90SAPS  H14R 8743  -0.163   1.674   9.169  1.0957 -0.5108  0.9179
   90SAPS  C215 8744  -0.151   1.767   8.977 -0.3323 -0.1312 -0.7263
   90SAPS  H15R 8745  -0.260   1.758   8.970 -0.4214  0.0392  0.3146
   90SAPS  C216 8746  -0.072   1.807   8.856  1.2048 -0.2787 -0.2135
   90SAPS  H16R 8747  -0.016   1.718   8.823 -0.0446 -0.7221 -1.2172
   90SAPS  H16S 8748  -0.006   1.893   8.879  0.6403 -0.2288  1.3391
   90SAPS  C217 8749  -0.167   1.856   8.747  0.2082  0.1863  0.7766
   90SAPS  H17R 8750  -0.239   1.775   8.724  2.2947 -1.4907 -0.2564
   90SAPS  H17S 8751  -0.105   1.854   8.654 -0.7289  4.1099 -0.1168
   90SAPS  C218 8752  -0.219   1.989   8.767 -0.3094 -0.0901  0.2934
   90SAPS  H18R 8753  -0.144   2.053   8.817  1.5045  1.9163 -4.4094
   90SAPS  H18S 8754  -0.311   1.985   8.829  1.0003  1.1838  2.4210
   90SAPS  C219 8755  -0.260   2.066   8.637  0.1697 -0.2235  0.5833
   90SAPS  H19R 8756  -0.170   2.077   8.572 -2.2226 -4.0918 -4.0755
   90SAPS  H19S 8757  -0.297   2.168   8.657  0.7224  0.0752  0.1178
   90SAPS  C220 8758  -0.348   1.987   8.542  0.2978  0.1692 -0.1975
   90SAPS  H20R 8759  -0.300   1.892   8.510  2.3084  0.6775  1.1101
   90SAPS  H20S 8760  -0.357   2.040   8.445  1.9415 -1.5301 -1.3401
   90SAPS  H20T 8761  -0.453   1.969   8.573 -0.6964  2.1285 -2.1421
   90SAPS   C33 8762   0.432   1.251   9.863  0.0359  0.0667  0.2541
   90SAPS   H3X 8763   0.435   1.351   9.815  2.1352  0.3313  0.8264
   90SAPS   H3Y 8764   0.351   1.249   9.939  0.0905 -0.1569  0.3073
   90SAPS   C34 8765   0.396   1.160   9.740  0.3853 -0.0463 -0.4339
   90SAPS   H4X 8766   0.288   1.168   9.714 -0.1945 -1.2676  1.4143
   90SAPS   H4Y 8767   0.418   1.055   9.768 -0.9139 -0.1181  0.3884
   90SAPS   C35 8768   0.479   1.183   9.612 -0.3168 -0.1447 -0.9278
   90SAPS   H5X 8769   0.564   1.242   9.651  0.6955 -0.6303 -2.3177
   90SAPS   H5Y 8770   0.422   1.244   9.538 -0.6794 -0.2181 -0.7104
   90SAPS   C36 8771   0.535   1.060   9.548 -0.3172  0.7310 -0.5934
   90SAPS   H6X 8772   0.456   0.989   9.515  3.1019 -3.1487 -1.3269
   90SAPS   H6Y 8773   0.595   1.009   9.627  0.5328 -1.5423 -2.5668
   90SAPS   C37 8774   0.626   1.100   9.434  0.2238  0.0460  0.3134
   90SAPS   H7X 8775   0.673   1.006   9.399 -0.9303 -0.0084 -1.1601
   90SAPS   H7Y 8776   0.696   1.173   9.481 -0.3766  0.0776  1.1866
   90SAPS   C38 8777   0.561   1.166   9.311 -0.0038 -0.3691 -0.1358
   90SAPS   H8X 8778   0.484   1.236   9.349 -0.8531 -0.2322 -1.9959
   90SAPS   H8Y 8779   0.494   1.092   9.262 -1.9501  1.1818  0.0585
   90SAPS   C39 8780   0.667   1.218   9.215 -0.7045 -0.5252 -0.0406
   90SAPS   H9X 8781   0.736   1.140   9.175 -0.1670  0.4880 -1.1713
   90SAPS   H9Y 8782   0.733   1.293   9.262 -1.2465  0.2153 -0.4410
   90SAPS  C310 8783   0.611   1.293   9.094 -0.1791 -0.4878 -0.9357
   90SAPS  H10X 8784   0.528   1.232   9.051 -1.3989  1.1790 -1.0142
   90SAPS  H10Y 8785   0.696   1.298   9.023  1.6774  0.3486  1.2127
   90SAPS  C311 8786   0.572   1.433   9.143 -0.6241 -0.7941 -0.2418
   90SAPS  H11X 8787   0.658   1.490   9.184 -1.2364 -1.0776  1.5175
   90SAPS  H11Y 8788   0.501   1.428   9.228 -0.5783 -1.6258 -0.2414
   90SAPS  C312 8789   0.521   1.519   9.025 -0.2438  1.1780  0.3029
   90SAPS  H12X 8790   0.457   1.605   9.055  0.3276  1.2019  1.5223
   90SAPS  H12Y 8791   0.442   1.452   8.986  1.5638  0.0087 -1.5897
   90SAPS  C313 8792   0.618   1.548   8.920 -0.2559  0.7734 -0.5278
   90SAPS  H13X 8793   0.644   1.449   8.877  0.4595  0.1590  1.2402
   90SAPS  H13Y 8794   0.709   1.602   8.955  0.0183  0.6024 -0.9678
   90SAPS  C314 8795   0.567   1.648   8.816 -0.1046  0.6405  0.1266
   90SAPS  H14X 8796   0.638   1.658   8.732 -0.2662 -0.1681 -0.1108
   90SAPS  H14Y 8797   0.557   1.745   8.869 -0.6834  0.9387 -0.5178
   90SAPS  C315 8798   0.430   1.621   8.748  0.5673 -0.1333  0.2818
   90SAPS  H15X 8799   0.359   1.608   8.833  1.1282 -0.4009  0.7129
   90SAPS  H15Y 8800   0.433   1.546   8.666  2.6645  1.3753 -1.1394
   90SAPS  C316 8801   0.375   1.757   8.684 -0.7221  0.2939 -0.4204
   90SAPS  H16X 8802   0.463   1.801   8.632 -0.3057  3.9241  2.9876
   90SAPS  H16Y 8803   0.342   1.829   8.761  0.4408 -1.0291  1.3731
   90SAPS  C317 8804   0.253   1.738   8.591  0.2333  0.0586  0.2071
   90SAPS  H17X 8805   0.174   1.698   8.658  1.1898 -2.7907 -0.2161
   90SAPS  H17Y 8806   0.268   1.659   8.514  0.9719  1.7694 -1.4858
   90SAPS  C318 8807   0.209   1.864   8.519 -0.1949 -0.6883  0.0723
   90SAPS  H18X 8808   0.292   1.926   8.480 -1.3802  2.1886  1.8314
   90SAPS  H18Y 8809   0.148   1.928   8.586  0.4617  0.5205 -0.4630
   90SAPS  H18Z 8810   0.146   1.839   8.431  1.3622 -1.2708 -0.9148
   91SAPS     N 8811   4.868   0.539   5.935 -0.1796 -0.1018  0.2162
   91SAPS   HN1 8812   4.853   0.502   6.031  0.1837  0.1983  0.3926
   91SAPS   HN2 8813   4.885   0.642   5.935 -1.1399  0.0866  1.6793
   91SAPS   HN3 8814   4.783   0.530   5.876 -1.1108  1.9890  1.1430
   91SAPS   C12 8815   4.993   0.469   5.883  0.5716 -0.2870  0.4115
   91SAPS  H12A 8816   4.962   0.368   5.864  1.3692 -0.5175  0.2779
   91SAPS   C13 8817   5.044   0.525   5.753  0.0715 -0.1349  0.3966
   91SAPS  O13A 8818   4.997   0.635   5.709  0.1847  0.4588 -0.0748
   91SAPS  O13B 8819   5.128   0.456   5.691 -0.2790 -0.4303  0.1449
   91SAPS   C11 8820   5.097   0.459   5.995 -0.3151 -0.0823  0.6129
   91SAPS  H11A 8821   5.190   0.412   5.955 -1.0229 -0.3214 -0.8226
   91SAPS  H11B 8822   5.051   0.378   6.056  1.2914 -1.7491 -0.2801
   91SAPS     P 8823   5.259   0.637   6.103  0.0823 -0.1865 -0.1619
   91SAPS   O13 8824   5.332   0.643   5.972 -0.3190  0.5655  0.0557
   91SAPS   O14 8825   5.240   0.766   6.173 -0.0284 -0.3168 -0.4230
   91SAPS   O12 8826   5.121   0.583   6.072 -0.4695 -0.2564 -0.1634
   91SAPS   O11 8827   5.325   0.517   6.193 -0.3626 -0.1922 -0.1978
   91SAPS    C1 8828   5.252   0.469   6.308 -0.1122  0.0452 -0.8123
   91SAPS    HA 8829   5.156   0.522   6.329  0.1411  1.0699 -2.1017
   91SAPS    HB 8830   5.223   0.363   6.294  0.8039 -0.7385  2.3356
   91SAPS    C2 8831   5.338   0.474   6.444 -0.0075 -0.2086  0.2104
   91SAPS    HS 8832   5.278   0.471   6.537  1.1253 -0.6268  0.9578
   91SAPS   O21 8833   5.416   0.594   6.454 -0.6850 -0.5562  0.3879
   91SAPS   C21 8834   5.353   0.710   6.467  0.7989 -0.9904 -0.3964
   91SAPS   O22 8835   5.228   0.722   6.483  0.2732 -0.1597 -0.1045
   91SAPS   C22 8836   5.463   0.819   6.469 -1.0164 -0.1412  0.4944
   91SAPS   H2R 8837   5.542   0.791   6.542  0.5498 -1.3065 -1.5305
   91SAPS   H2S 8838   5.509   0.808   6.368 -1.9299 -0.0671  0.0501
   91SAPS    C3 8839   5.438   0.348   6.455  0.7609 -0.3341  0.2206
   91SAPS    HX 8840   5.509   0.361   6.370  0.0804 -0.9132 -0.4538
   91SAPS    HY 8841   5.376   0.257   6.440 -0.3910  0.8185 -2.9789
   91SAPS   O31 8842   5.498   0.342   6.584  0.2748 -0.3376  0.1255
   91SAPS   C31 8843   5.427   0.311   6.700  0.3122 -1.2665 -0.3935
   91SAPS   O32 8844   5.309   0.276   6.693  0.2865  0.1571 -0.7027
   91SAPS   C32 8845   5.502   0.337   6.828  0.5850  0.5629  1.0625
   91SAPS   H2X 8846   5.565   0.246   6.837  0.7899  0.1137 -3.0914
   91SAPS   H2Y 8847   5.425   0.330   6.907  1.1980 -0.8162  1.5724
   91SAPS   C23 8848   5.413   0.964   6.497  0.1514  0.7097  0.4145
   91SAPS   H3R 8849   5.322   0.975   6.434 -1.8018  1.0551  3.1101
   91SAPS   H3S 8850   5.497   1.035   6.482  0.5878 -0.0632 -0.9408
   91SAPS   C24 8851   5.357   0.976   6.641  0.5029  0.4041 -0.0615
   91SAPS   H4R 8852   5.275   0.901   6.646  0.7919  0.1301  0.6092
   91SAPS   H4S 8853   5.299   1.070   6.657  0.8504  0.8077 -1.0571
   91SAPS   C25 8854   5.451   0.952   6.761  0.5395 -0.2880 -0.2798
   91SAPS   H5R 8855   5.496   0.852   6.758 -1.7252 -1.3656 -0.7677
   91SAPS   C26 8856   5.478   1.040   6.863 -0.2617  0.2137  0.3693
   91SAPS   H6R 8857   5.546   1.002   6.940 -2.4731 -2.6271  1.1101
   91SAPS   C27 8858   5.420   1.181   6.880 -0.1940  0.5579 -0.2306
   91SAPS   H7R 8859   5.347   1.213   6.802  1.3044  0.2096 -1.8304
   91SAPS   H7S 8860   5.502   1.256   6.876 -0.8210  1.3218  0.5438
   91SAPS   C28 8861   5.342   1.199   7.012 -0.2850  0.7951 -0.3907
   91SAPS   H8R 8862   5.237   1.167   7.013  0.2055 -0.9286  1.0390
   91SAPS   C29 8863   5.400   1.232   7.131  0.2863  0.3892 -0.4652
   91SAPS   H9R 8864   5.341   1.235   7.224 -1.6995 -0.4966 -1.6420
   91SAPS  C210 8865   5.549   1.256   7.162 -0.2649  0.5312 -0.7694
   91SAPS  H10R 8866   5.616   1.227   7.078  1.2057  0.5786  0.3436
   91SAPS  H10S 8867   5.577   1.194   7.251 -0.9126  2.8493  1.1376
   91SAPS  C211 8868   5.587   1.394   7.190 -0.5041 -0.6915 -0.4086
   91SAPS  H11R 8869   5.559   1.460   7.107  1.6833  0.7300 -0.0885
   91SAPS  C212 8870   5.646   1.452   7.299  0.1327 -0.7042  0.1587
   91SAPS  H12R 8871   5.666   1.561   7.297 -0.3243 -0.6268 -0.2116
   91SAPS  C213 8872   5.671   1.378   7.430 -0.1538 -0.1763 -0.1324
   91SAPS  H13R 8873   5.659   1.269   7.416 -2.8146 -0.1838  1.4674
   91SAPS  H13S 8874   5.585   1.399   7.498 -0.1153  0.3024 -0.2233
   91SAPS  C214 8875   5.796   1.413   7.515 -0.1564 -0.4054  0.2440
   91SAPS  H14R 8876   5.880   1.453   7.456 -1.4627  0.4609 -1.1052
   91SAPS  C215 8877   5.815   1.409   7.645  0.3707  0.5419  0.2712
   91SAPS  H15R 8878   5.919   1.427   7.678  0.4641  2.0731 -0.7517
   91SAPS  C216 8879   5.711   1.352   7.741  0.4557 -0.0153  0.1234
   91SAPS  H16R 8880   5.746   1.262   7.796  1.7957 -0.1267 -0.8707
   91SAPS  H16S 8881   5.616   1.321   7.692 -0.5484  2.7787  0.1602
   91SAPS  C217 8882   5.682   1.447   7.861 -0.3459 -0.8980 -0.0449
   91SAPS  H17R 8883   5.634   1.539   7.820  1.2351  0.2415  0.5406
   91SAPS  H17S 8884   5.780   1.472   7.909  0.5209 -1.4449 -1.4715
   91SAPS  C218 8885   5.577   1.406   7.959  0.5213  0.9214 -0.7598
   91SAPS  H18R 8886   5.622   1.321   8.014 -3.0632 -1.4760 -1.1985
   91SAPS  H18S 8887   5.489   1.364   7.907 -0.3291  1.3484  0.2689
   91SAPS  C219 8888   5.534   1.517   8.051 -0.6634 -0.5143  0.2637
   91SAPS  H19R 8889   5.485   1.468   8.137  0.1382 -0.4495  0.7706
   91SAPS  H19S 8890   5.453   1.579   8.007 -0.2670 -0.6861 -0.7371
   91SAPS  C220 8891   5.640   1.612   8.105 -0.3533 -0.6000 -0.2130
   91SAPS  H20R 8892   5.591   1.700   8.153 -0.6522  0.0057 -1.5647
   91SAPS  H20S 8893   5.694   1.659   8.020 -1.0002 -0.4299 -0.5384
   91SAPS  H20T 8894   5.713   1.570   8.177  1.1486 -0.8263 -1.7910
   91SAPS   C33 8895   5.564   0.472   6.839 -0.2970  0.3939  0.0041
   91SAPS   H3X 8896   5.491   0.555   6.851 -2.0701 -1.2299  1.0160
   91SAPS   H3Y 8897   5.619   0.487   6.743 -0.4059  0.6270 -0.0218
   91SAPS   C34 8898   5.664   0.489   6.959  0.2577 -0.2830  0.1193
   91SAPS   H4X 8899   5.760   0.437   6.937  1.0060  1.0075  0.2317
   91SAPS   H4Y 8900   5.618   0.433   7.044 -1.1989  1.4478  0.5140
   91SAPS   C35 8901   5.676   0.641   6.990  0.2946 -0.3813 -0.2398
   91SAPS   H5X 8902   5.579   0.672   7.034  0.2529 -1.1480  0.2183
   91SAPS   H5Y 8903   5.708   0.683   6.892 -0.2097 -0.6143 -0.5071
   91SAPS   C36 8904   5.785   0.660   7.089  0.2607 -0.1337 -0.1367
   91SAPS   H6X 8905   5.877   0.622   7.042 -0.0539 -1.8918  0.6093
   91SAPS   H6Y 8906   5.773   0.588   7.172 -1.2693 -0.8545 -0.9417
   91SAPS   C37 8907   5.783   0.802   7.141  0.8797 -0.7768 -0.2681
   91SAPS   H7X 8908   5.682   0.846   7.126  0.7715 -0.1337  1.9954
   91SAPS   H7Y 8909   5.853   0.856   7.075  1.2907  0.2994  1.0035
   91SAPS   C38 8910   5.826   0.812   7.280  0.4086  0.1947 -0.0353
   91SAPS   H8X 8911   5.928   0.776   7.305  0.1904 -0.3733  0.0551
   91SAPS   H8Y 8912   5.758   0.751   7.345 -0.0397 -0.3305 -0.9820
   91SAPS   C39 8913   5.821   0.961   7.316 -0.3401 -0.3501 -0.2071
   91SAPS   H9X 8914   5.719   0.999   7.291 -0.3010 -1.0647 -1.5471
   91SAPS   H9Y 8915   5.885   1.019   7.246 -0.6167  1.0186  0.6355
   91SAPS  C310 8916   5.870   0.994   7.462  0.8243  0.3204  0.9295
   91SAPS  H10X 8917   5.896   1.101   7.471  2.3309  0.1929 -1.2255
   91SAPS  H10Y 8918   5.957   0.930   7.485  0.0893 -1.2572 -0.4089
   91SAPS  C311 8919   5.755   0.965   7.562  0.4577 -0.4817 -0.0665
   91SAPS  H11X 8920   5.720   0.860   7.547  0.6493 -1.2251  3.7140
   91SAPS  H11Y 8921   5.681   1.046   7.546  0.6197 -0.5252 -1.0661
   91SAPS  C312 8922   5.799   0.974   7.708 -0.7093  0.3307 -0.1292
   91SAPS  H12X 8923   5.830   1.081   7.710 -0.3673  0.2225  0.2239
   91SAPS  H12Y 8924   5.883   0.905   7.728 -0.4483  1.0694  1.4621
   91SAPS  C313 8925   5.685   0.932   7.809  0.7902  0.2917 -0.2347
   91SAPS  H13X 8926   5.715   0.930   7.916  0.6763 -0.0555 -0.2083
   91SAPS  H13Y 8927   5.654   0.828   7.783 -3.1897  1.2249  0.1201
   91SAPS  C314 8928   5.555   1.009   7.811  0.7399 -1.1145 -0.4303
   91SAPS  H14X 8929   5.508   0.985   7.713  1.7091  0.0687 -1.2043
   91SAPS  H14Y 8930   5.570   1.118   7.817 -1.7395 -0.6851 -0.8100
   91SAPS  C315 8931   5.463   0.966   7.923  0.1049 -0.4013 -0.4033
   91SAPS  H15X 8932   5.523   0.901   7.991  0.1691 -0.7550 -0.7943
   91SAPS  H15Y 8933   5.377   0.905   7.887 -1.6282  1.4876  0.3560
   91SAPS  C316 8934   5.417   1.085   8.009 -0.4675 -0.0327 -0.9002
   91SAPS  H16X 8935   5.342   1.140   7.949 -0.5016  0.7814 -0.1306
   91SAPS  H16Y 8936   5.502   1.152   8.034 -0.2512 -0.8837  0.8521
   91SAPS  C317 8937   5.360   1.044   8.148  0.0471  1.0377 -0.3398
   91SAPS  H17X 8938   5.438   0.987   8.204 -1.0586 -1.7660 -1.4636
   91SAPS  H17Y 8939   5.281   0.971   8.118  0.0651  0.7962  0.1786
   91SAPS  C318 8940   5.298   1.149   8.234  0.3737 -0.1889  0.2334
   91SAPS  H18X 8941   5.260   1.108   8.330 -1.0695  2.5533  0.9508
   91SAPS  H18Y 8942   5.214   1.196   8.179  0.6907  0.6103  0.4164
   91SAPS  H18Z 8943   5.373   1.225   8.267  0.5024 -0.5251  0.7316
   92SAPS     N 8944   5.879   5.024   6.329  0.2934 -0.7112  0.1586
   92SAPS   HN1 8945   5.932   5.030   6.240 -0.0103 -1.7640 -0.1056
   92SAPS   HN2 8946   5.782   4.990   6.310  0.8949 -3.0855  1.0262
   92SAPS   HN3 8947   5.882   5.118   6.373  1.5832  0.3545 -2.0414
   92SAPS   C12 8948   5.937   4.911   6.414 -0.0122  0.4847 -0.0027
   92SAPS  H12A 8949   5.927   4.940   6.518 -0.6598 -0.5531  0.2470
   92SAPS   C13 8950   5.846   4.780   6.411 -0.1607  0.5907 -0.1160
   92SAPS  O13A 8951   5.743   4.773   6.338 -0.3137 -0.2747  0.0925
   92SAPS  O13B 8952   5.872   4.684   6.484 -0.1282  0.4170 -0.2388
   92SAPS   C11 8953   6.083   4.891   6.370 -0.3100 -0.5026  0.2814
   92SAPS  H11A 8954   6.091   4.904   6.260  0.7241  0.7954  0.4893
   92SAPS  H11B 8955   6.116   4.785   6.374  1.0002 -0.0961  0.8557
   92SAPS     P 8956   6.294   4.958   6.512 -0.5154  0.4706  0.0159
   92SAPS   O13 8957   6.385   4.859   6.451  0.1355  0.5203  0.1092
   92SAPS   O14 8958   6.353   5.092   6.543  0.2199 -0.3950 -0.6389
   92SAPS   O12 8959   6.176   4.989   6.416 -0.1199 -0.3174  0.1000
   92SAPS   O11 8960   6.225   4.890   6.635 -0.7680  0.6570  0.1343
   92SAPS    C1 8961   6.159   4.974   6.731  0.2587 -0.1779 -0.6494
   92SAPS    HA 8962   6.167   5.085   6.725  2.2617 -0.1963  0.8114
   92SAPS    HB 8963   6.052   4.944   6.737  0.7902 -2.1552 -0.4742
   92SAPS    C2 8964   6.211   4.929   6.876  0.2282  0.2027 -0.2226
   92SAPS    HS 8965   6.322   4.940   6.876  0.3349 -0.6100  1.2023
   92SAPS   O21 8966   6.168   4.793   6.896 -0.5046  0.4291 -0.1248
   92SAPS   C21 8967   6.257   4.700   6.911  0.4724  0.4688 -0.4692
   92SAPS   O22 8968   6.377   4.714   6.881  0.2802  0.0633  1.2676
   92SAPS   C22 8969   6.188   4.579   6.960  0.2404 -0.6348 -0.7520
   92SAPS   H2R 8970   6.078   4.595   6.969  0.2385 -0.5000 -1.0226
   92SAPS   H2S 8971   6.208   4.497   6.888  0.9880 -0.3211 -0.9042
   92SAPS    C3 8972   6.143   5.019   6.982 -1.1666 -0.1097  0.3143
   92SAPS    HX 8973   6.034   5.002   6.967 -1.0344  1.2126 -2.9766
   92SAPS    HY 8974   6.167   5.122   6.949 -2.0549 -0.1282 -0.4183
   92SAPS   O31 8975   6.199   4.997   7.109 -0.1851  0.0363  0.4571
   92SAPS   C31 8976   6.127   5.057   7.202  0.6231  0.2373 -0.9452
   92SAPS   O32 8977   6.042   5.137   7.168  0.8161 -0.1686  0.3102
   92SAPS   C32 8978   6.174   5.019   7.344  0.6475 -0.5672  0.1680
   92SAPS   H2X 8979   6.253   5.089   7.379 -0.0281 -0.6072  1.8820
   92SAPS   H2Y 8980   6.212   4.914   7.346 -0.9882 -1.2132 -1.1572
   92SAPS   C23 8981   6.253   4.537   7.097 -0.0872  0.2040  0.4548
   92SAPS   H3R 8982   6.364   4.538   7.089 -0.1373  2.0537 -0.3971
   92SAPS   H3S 8983   6.226   4.431   7.117  0.8506 -0.4369 -1.4169
   92SAPS   C24 8984   6.214   4.622   7.219  0.7556  0.1074 -0.1047
   92SAPS   H4R 8985   6.265   4.721   7.224 -2.5665  1.9468  0.2193
   92SAPS   H4S 8986   6.247   4.566   7.309  0.3670  0.4809  0.2712
   92SAPS   C25 8987   6.063   4.643   7.239 -0.3578  0.4591 -0.3153
   92SAPS   H5R 8988   6.001   4.636   7.149 -3.9017 -2.4394  2.0302
   92SAPS   C26 8989   6.000   4.661   7.357  0.6793  1.1078 -0.3905
   92SAPS   H6R 8990   5.891   4.678   7.351  0.3052 -1.2414 -1.8902
   92SAPS   C27 8991   6.060   4.671   7.496 -0.4711  0.7544  0.1364
   92SAPS   H7R 8992   5.994   4.701   7.581  0.4758 -1.4075  1.7389
   92SAPS   H7S 8993   6.135   4.751   7.481  0.7411 -0.6556 -1.8625
   92SAPS   C28 8994   6.145   4.542   7.536 -0.1347  0.2008  0.1201
   92SAPS   H8R 8995   6.150   4.470   7.453  0.2619  2.3930 -1.8833
   92SAPS   C29 8996   6.188   4.508   7.659 -0.4785  0.2949 -0.1010
   92SAPS   H9R 8997   6.239   4.411   7.667 -2.0781 -0.5801  0.0204
   92SAPS  C210 8998   6.173   4.595   7.786  0.7705  0.5338 -0.1487
   92SAPS  H10R 8999   6.162   4.534   7.879  0.3586  2.4602  1.1246
   92SAPS  H10S 9000   6.079   4.654   7.784  1.5016  1.8113  1.3901
   92SAPS  C211 9001   6.281   4.690   7.805  1.0582  0.1479  0.5318
   92SAPS  H11R 9002   6.352   4.690   7.721 -1.7546  1.9018 -2.0568
   92SAPS  C212 9003   6.288   4.784   7.896 -0.0566 -0.2887  0.8452
   92SAPS  H12R 9004   6.384   4.839   7.900  0.5607 -1.0516 -1.5233
   92SAPS  C213 9005   6.203   4.813   8.013  0.1678  0.3241  0.4990
   92SAPS  H13R 9006   6.101   4.847   7.983 -0.6435 -0.6786  2.0003
   92SAPS  H13S 9007   6.249   4.898   8.067 -2.2652  1.6679  0.6020
   92SAPS  C214 9008   6.180   4.696   8.106  0.1535 -0.0589 -0.7581
   92SAPS  H14R 9009   6.225   4.599   8.077 -1.8744 -0.6266 -2.2090
   92SAPS  C215 9010   6.124   4.710   8.232 -0.3137  0.3397  0.3581
   92SAPS  H15R 9011   6.095   4.623   8.293 -2.4620  1.2405  0.6994
   92SAPS  C216 9012   6.065   4.839   8.268 -0.5402 -0.0877  1.2641
   92SAPS  H16R 9013   6.108   4.922   8.208  0.2453 -0.6540  1.0383
   92SAPS  H16S 9014   6.074   4.864   8.376 -0.4686  1.6021  0.8992
   92SAPS  C217 9015   5.914   4.836   8.237 -0.3338 -0.0953  0.5053
   92SAPS  H17R 9016   5.859   4.747   8.274  0.5053  0.3620  2.9985
   92SAPS  H17S 9017   5.915   4.833   8.125  0.9144  0.7457  0.4793
   92SAPS  C218 9018   5.835   4.962   8.263  0.2932  0.0715 -0.8428
   92SAPS  H18R 9019   5.746   4.973   8.197 -1.3618 -1.0053  1.0678
   92SAPS  H18S 9020   5.894   5.055   8.255  0.1432  0.0170 -4.2243
   92SAPS  C219 9021   5.777   4.974   8.409 -0.0575 -0.4813  0.2747
   92SAPS  H19R 9022   5.868   4.998   8.469 -0.2890  0.0963  0.3953
   92SAPS  H19S 9023   5.723   4.886   8.449 -1.0686  0.2065  0.4590
   92SAPS  C220 9024   5.685   5.091   8.445 -0.6479 -0.4172 -0.2010
   92SAPS  H20R 9025   5.671   5.090   8.555 -1.0483  1.4325 -0.2059
   92SAPS  H20S 9026   5.586   5.071   8.399 -0.7979  0.1590 -0.1348
   92SAPS  H20T 9027   5.729   5.187   8.412  0.8228 -0.5185  1.3476
   92SAPS   C33 9028   6.059   5.042   7.443 -0.4164 -0.3054  0.2403
   92SAPS   H3X 9029   5.969   4.979   7.424 -0.8448  0.1338  0.7613
   92SAPS   H3Y 9030   6.025   5.148   7.444 -0.4283 -0.2774 -1.4984
   92SAPS   C34 9031   6.107   5.019   7.587 -0.0639  0.1672 -0.3148
   92SAPS   H4X 9032   6.208   5.058   7.611  0.1062 -0.2891 -0.2749
   92SAPS   H4Y 9033   6.110   4.912   7.619 -0.6843  0.3934  0.5475
   92SAPS   C35 9034   6.007   5.071   7.697  0.2345  0.2000 -0.1277
   92SAPS   H5X 9035   5.983   5.178   7.677 -0.2657 -0.0228 -0.7385
   92SAPS   H5Y 9036   6.053   5.060   7.798 -0.1927 -2.0463 -0.1268
   92SAPS   C36 9037   5.875   5.000   7.700 -0.1676 -0.1274  0.0544
   92SAPS   H6X 9038   5.880   4.899   7.747 -2.2385  0.1057  0.9383
   92SAPS   H6Y 9039   5.836   4.976   7.599  0.7284 -2.7360  0.2543
   92SAPS   C37 9040   5.777   5.078   7.784 -0.1020  0.1576  0.7123
   92SAPS   H7X 9041   5.745   5.168   7.726 -0.3894 -0.6125 -0.3557
   92SAPS   H7Y 9042   5.829   5.099   7.879  1.4585  1.0794 -0.3007
   92SAPS   C38 9043   5.656   5.005   7.826  0.4245 -0.2102  0.2150
   92SAPS   H8X 9044   5.671   4.931   7.907  0.0381 -1.4153 -0.7704
   92SAPS   H8Y 9045   5.631   4.942   7.738  0.7182 -0.3563  0.2353
   92SAPS   C39 9046   5.540   5.104   7.867  0.6154 -0.2435 -0.0267
   92SAPS   H9X 9047   5.445   5.047   7.852 -0.5302  1.8390 -1.1586
   92SAPS   H9Y 9048   5.534   5.174   7.781 -1.1006 -1.1878 -0.7486
   92SAPS  C310 9049   5.561   5.173   8.002  0.1947  0.1979  0.3248
   92SAPS  H10X 9050   5.615   5.109   8.075 -0.3025  2.1147  2.5111
   92SAPS  H10Y 9051   5.467   5.187   8.060 -0.2534 -3.3919  0.7138
   92SAPS  C311 9052   5.641   5.302   8.006  0.3926  0.0421 -0.4790
   92SAPS  H11X 9053   5.573   5.386   7.979  0.0217  0.6316  2.0282
   92SAPS  H11Y 9054   5.720   5.305   7.928 -0.6805  1.2542 -1.5830
   92SAPS  C312 9055   5.694   5.324   8.145  0.5955 -0.7345 -0.1633
   92SAPS  H12X 9056   5.781   5.258   8.164 -0.4583 -1.9074  0.7582
   92SAPS  H12Y 9057   5.618   5.290   8.218 -0.2721  0.3756 -0.5073
   92SAPS  C313 9058   5.728   5.471   8.186  0.2657 -0.8318 -0.1493
   92SAPS  H13X 9059   5.634   5.529   8.195 -0.2080 -1.7568  1.1391
   92SAPS  H13Y 9060   5.800   5.517   8.115 -0.4446  0.5740  0.0199
   92SAPS  C314 9061   5.791   5.475   8.327  0.4368 -0.0290  0.3148
   92SAPS  H14X 9062   5.862   5.561   8.329  0.2630  0.1105  2.1694
   92SAPS  H14Y 9063   5.847   5.381   8.343 -0.8759 -0.9271 -0.2897
   92SAPS  C315 9064   5.694   5.475   8.449 -0.2420 -0.0618 -0.0416
   92SAPS  H15X 9065   5.635   5.381   8.450 -2.6620  1.3675  1.6417
   92SAPS  H15Y 9066   5.622   5.558   8.436  0.1416  0.1099 -1.2188
   92SAPS  C316 9067   5.770   5.479   8.585 -0.2226 -0.1439 -0.1318
   92SAPS  H16X 9068   5.796   5.585   8.604  2.5874 -0.7480 -0.0432
   92SAPS  H16Y 9069   5.859   5.412   8.577  1.5798  1.9744  1.0782
   92SAPS  C317 9070   5.683   5.429   8.699  0.0268 -0.0135  0.5786
   92SAPS  H17X 9071   5.702   5.320   8.707  0.2173  0.0070  0.4201
   92SAPS  H17Y 9072   5.577   5.450   8.675  0.3000  0.2845 -0.4177
   92SAPS  C318 9073   5.716   5.485   8.836  0.4858 -0.8473  0.8228
   92SAPS  H18X 9074   5.684   5.591   8.827  0.1722 -1.0099 -0.1185
   92SAPS  H18Y 9075   5.826   5.481   8.844  0.7243  0.7713 -1.0144
   92SAPS  H18Z 9076   5.663   5.423   8.912 -0.9241 -0.0718  0.5226
   93SAPS     N 9077   5.961   5.567   6.305 -0.8832  0.5078  0.0326
   93SAPS   HN1 9078   5.885   5.530   6.365 -0.2474  0.4423  0.8071
   93SAPS   HN2 9079   5.920   5.576   6.209 -0.4118  0.7814 -0.1449
   93SAPS   HN3 9080   6.039   5.499   6.298 -1.9099 -0.5325 -3.1040
   93SAPS   C12 9081   6.008   5.690   6.358  0.2874 -0.5117 -0.2586
   93SAPS  H12A 9082   6.057   5.730   6.271  0.7226  1.0208  0.6495
   93SAPS   C13 9083   5.897   5.788   6.416 -0.0366  0.6947  1.1585
   93SAPS  O13A 9084   5.779   5.763   6.393  0.4897 -0.3834  0.0371
   93SAPS  O13B 9085   5.935   5.901   6.445 -0.6788  0.0404  0.2300
   93SAPS   C11 9086   6.126   5.670   6.470  0.8055 -0.0204  0.5001
   93SAPS  H11A 9087   6.083   5.641   6.568  0.2420  0.9546  0.5518
   93SAPS  H11B 9088   6.175   5.769   6.480  1.2416 -0.2955  1.1690
   93SAPS     P 9089   6.346   5.585   6.362 -0.0382  0.3661  0.2209
   93SAPS   O13 9090   6.438   5.465   6.374  0.8590 -0.5883  0.1544
   93SAPS   O14 9091   6.307   5.635   6.226  0.1084  0.2465 -0.1099
   93SAPS   O12 9092   6.217   5.561   6.436  0.1688  0.5305 -0.7715
   93SAPS   O11 9093   6.408   5.703   6.449  0.0198 -0.3556  0.7119
   93SAPS    C1 9094   6.549   5.729   6.451 -0.1093 -0.6256 -0.1697
   93SAPS    HA 9095   6.612   5.637   6.456  0.7716 -0.0984 -1.1337
   93SAPS    HB 9096   6.572   5.783   6.357 -4.0435  0.0981 -0.8651
   93SAPS    C2 9097   6.593   5.822   6.576  0.3029 -0.2014  0.1893
   93SAPS    HS 9098   6.696   5.794   6.608  0.7142  2.4739  1.4505
   93SAPS   O21 9099   6.494   5.804   6.681 -0.3205 -0.2129 -0.0916
   93SAPS   C21 9100   6.471   5.682   6.727 -0.3385 -0.5800  0.1081
   93SAPS   O22 9101   6.538   5.583   6.702 -0.7141 -0.5792  0.4338
   93SAPS   C22 9102   6.355   5.678   6.821 -0.0969  0.0684 -0.2186
   93SAPS   H2R 9103   6.278   5.624   6.762 -0.9409  0.2678  0.6750
   93SAPS   H2S 9104   6.371   5.626   6.918  1.0628  0.4351 -0.1996
   93SAPS    C3 9105   6.602   5.974   6.541 -0.3755 -0.2124 -0.0465
   93SAPS    HX 9106   6.501   6.007   6.509 -0.2654  0.7216  0.5045
   93SAPS    HY 9107   6.662   5.992   6.450 -0.5672 -1.4620 -0.4361
   93SAPS   O31 9108   6.646   6.041   6.654 -0.0058 -0.7256 -0.2281
   93SAPS   C31 9109   6.565   6.142   6.703 -0.5511  1.0645 -0.1874
   93SAPS   O32 9110   6.453   6.167   6.670 -0.4265  0.4209 -0.3205
   93SAPS   C32 9111   6.638   6.209   6.822  0.3079 -0.0551  0.2588
   93SAPS   H2X 9112   6.617   6.317   6.806  0.0335 -0.3867 -2.0688
   93SAPS   H2Y 9113   6.747   6.197   6.806  0.9405  2.0054  2.4328
   93SAPS   C23 9114   6.297   5.816   6.863  0.1591 -0.2967 -0.6081
   93SAPS   H3R 9115   6.286   5.891   6.782 -0.0457 -0.9529 -1.1963
   93SAPS   H3S 9116   6.383   5.849   6.924 -0.2556  0.5181 -0.4541
   93SAPS   C24 9117   6.179   5.793   6.947  0.5313 -0.3925 -0.5531
   93SAPS   H4R 9118   6.191   5.707   7.017 -1.1733 -0.8362 -0.7759
   93SAPS   H4S 9119   6.102   5.759   6.875  1.3760 -0.2881 -1.5310
   93SAPS   C25 9120   6.139   5.925   7.012 -0.5668  0.4607 -0.5325
   93SAPS   H5R 9121   6.124   5.997   6.931  0.3953  0.9970 -0.2603
   93SAPS   C26 9122   6.152   5.969   7.140  0.5156 -0.2007  0.0566
   93SAPS   H6R 9123   6.110   6.068   7.163  3.0050  0.8107  0.5889
   93SAPS   C27 9124   6.200   5.876   7.248  0.2182 -0.6035  1.2534
   93SAPS   H7R 9125   6.302   5.906   7.282  1.5852 -3.7263  0.3544
   93SAPS   H7S 9126   6.213   5.768   7.223  0.2476 -0.2020 -0.5645
   93SAPS   C28 9127   6.100   5.878   7.360  0.3236  0.3027 -0.8279
   93SAPS   H8R 9128   5.998   5.857   7.324  0.3709  2.2623 -2.2444
   93SAPS   C29 9129   6.117   5.901   7.491 -0.1533  0.2644  0.2236
   93SAPS   H9R 9130   6.030   5.893   7.558 -0.5409  0.2412 -0.2811
   93SAPS  C210 9131   6.247   5.929   7.566  0.3175 -0.5155 -0.9890
   93SAPS  H10R 9132   6.342   5.915   7.509  1.0172 -0.1187  0.0465
   93SAPS  H10S 9133   6.264   5.846   7.639 -1.1095 -0.4772 -0.5856
   93SAPS  C211 9134   6.245   6.058   7.644  0.1512  0.1807 -0.2201
   93SAPS  H11R 9135   6.227   6.144   7.578  0.9227 -1.4641 -2.7434
   93SAPS  C212 9136   6.260   6.078   7.779 -0.4942  0.1367 -0.0622
   93SAPS  H12R 9137   6.257   6.184   7.809 -0.5647 -0.3924  1.9787
   93SAPS  C213 9138   6.282   5.972   7.890 -0.3348  0.1920 -0.4441
   93SAPS  H13R 9139   6.315   6.028   7.980  0.9745  0.2598 -0.9382
   93SAPS  H13S 9140   6.376   5.915   7.873 -0.8554 -1.0150  0.6099
   93SAPS  C214 9141   6.160   5.885   7.930 -0.9321  0.7721 -0.4914
   93SAPS  H14R 9142   6.108   5.825   7.855 -0.5552 -0.1360 -0.0349
   93SAPS  C215 9143   6.114   5.863   8.049  0.0963  0.2403  0.3151
   93SAPS  H15R 9144   6.034   5.787   8.056 -1.4967  1.7856 -0.1870
   93SAPS  C216 9145   6.154   5.931   8.176 -0.2361 -0.0451 -0.0584
   93SAPS  H16R 9146   6.076   6.000   8.214 -0.1311  0.1464 -0.1914
   93SAPS  H16S 9147   6.242   5.998   8.164 -0.7036  0.4581 -0.7787
   93SAPS  C217 9148   6.175   5.842   8.301 -0.3423  0.1042 -0.0070
   93SAPS  H17R 9149   6.266   5.880   8.351 -0.0203 -1.0067  0.2746
   93SAPS  H17S 9150   6.211   5.741   8.272  2.7370  0.6572  1.4474
   93SAPS  C218 9151   6.074   5.812   8.418 -0.0265  0.0318 -0.0279
   93SAPS  H18R 9152   5.978   5.782   8.371 -0.1039 -1.3647  0.9687
   93SAPS  H18S 9153   6.039   5.903   8.472 -0.0001 -1.6096  2.9870
   93SAPS  C219 9154   6.135   5.715   8.520  0.3506  0.0152  0.1148
   93SAPS  H19R 9155   6.243   5.735   8.532  1.4539 -3.8034 -2.1287
   93SAPS  H19S 9156   6.128   5.617   8.468 -0.5346 -0.6099  1.3487
   93SAPS  C220 9157   6.085   5.734   8.669 -0.6797 -0.0083  0.4367
   93SAPS  H20R 9158   5.976   5.716   8.667 -0.0620 -5.3767 -2.2349
   93SAPS  H20S 9159   6.117   5.832   8.712  0.4053  0.3429 -1.0950
   93SAPS  H20T 9160   6.123   5.653   8.734  1.1464  2.0042  2.0531
   93SAPS   C33 9161   6.596   6.157   6.957 -0.3226 -0.1093 -0.7779
   93SAPS   H3X 9162   6.487   6.176   6.969 -0.2380 -0.9822  2.2148
   93SAPS   H3Y 9163   6.639   6.212   7.043 -1.3277 -0.2915 -0.1486
   93SAPS   C34 9164   6.630   6.010   6.971  0.8834 -0.3236  0.1759
   93SAPS   H4X 9165   6.738   5.991   6.955  0.9902 -0.4185  0.9672
   93SAPS   H4Y 9166   6.575   5.952   6.893 -0.7629 -0.9009  1.6815
   93SAPS   C35 9167   6.583   5.973   7.115  0.1083  0.1686 -0.6235
   93SAPS   H5X 9168   6.556   5.866   7.127  1.0286  0.2190  3.7937
   93SAPS   H5Y 9169   6.491   6.033   7.133  0.1115  0.3337 -1.1413
   93SAPS   C36 9170   6.688   5.998   7.225 -0.5657  0.1067 -0.1164
   93SAPS   H6X 9171   6.743   6.089   7.195 -0.0237 -0.5847 -1.3024
   93SAPS   H6Y 9172   6.752   5.908   7.236  1.1770  1.2726 -0.3507
   93SAPS   C37 9173   6.613   5.997   7.357  0.1542 -0.2340 -0.2064
   93SAPS   H7X 9174   6.573   5.894   7.363  2.3273 -1.0926  0.3265
   93SAPS   H7Y 9175   6.529   6.069   7.343 -0.9726 -1.2202  1.2234
   93SAPS   C38 9176   6.699   6.029   7.472  0.2008 -0.3497 -1.1806
   93SAPS   H8X 9177   6.773   6.105   7.440 -0.2023 -0.8719 -3.5557
   93SAPS   H8Y 9178   6.759   5.938   7.496  1.9557  0.9706 -0.3049
   93SAPS   C39 9179   6.620   6.060   7.593 -0.2555 -0.3244 -0.5924
   93SAPS   H9X 9180   6.547   5.977   7.592 -1.3598  0.6335 -1.1993
   93SAPS   H9Y 9181   6.558   6.149   7.572  0.5626  0.8051  1.4218
   93SAPS  C310 9182   6.703   6.085   7.718  0.6863  0.2101 -0.1775
   93SAPS  H10X 9183   6.727   6.193   7.708  0.6774  0.0989 -1.5964
   93SAPS  H10Y 9184   6.798   6.027   7.714 -0.0254 -1.1084  0.9912
   93SAPS  C311 9185   6.620   6.063   7.849 -0.2315 -0.1856 -0.0524
   93SAPS  H11X 9186   6.592   5.955   7.851 -0.5183 -0.2339 -2.6980
   93SAPS  H11Y 9187   6.529   6.123   7.869  0.5684  0.3305  2.4738
   93SAPS  C312 9188   6.706   6.090   7.968 -0.4011  0.2161 -0.0251
   93SAPS  H12X 9189   6.728   6.199   7.968 -1.4514  0.4971 -2.4680
   93SAPS  H12Y 9190   6.803   6.039   7.951  0.8638  1.9994  1.4034
   93SAPS  C313 9191   6.646   6.035   8.100  0.2145 -0.3677 -0.0510
   93SAPS  H13X 9192   6.634   5.925   8.087  0.7783 -0.4614  0.2045
   93SAPS  H13Y 9193   6.546   6.084   8.109  0.5576  1.0215 -2.8474
   93SAPS  C314 9194   6.717   6.070   8.230  0.5972  0.4902  0.5857
   93SAPS  H14X 9195   6.815   6.021   8.243 -0.0691 -0.2796  3.4416
   93SAPS  H14Y 9196   6.660   6.029   8.316 -0.5258 -0.2257 -0.4571
   93SAPS  C315 9197   6.714   6.222   8.246  0.0651  0.1809  0.7786
   93SAPS  H15X 9198   6.608   6.257   8.253 -0.2220 -0.6319  0.6548
   93SAPS  H15Y 9199   6.765   6.262   8.156 -1.2075 -2.0851 -1.0509
   93SAPS  C316 9200   6.796   6.253   8.361  0.4026 -0.4242 -0.0414
   93SAPS  H16X 9201   6.893   6.204   8.340  0.4841  0.7541 -2.9925
   93SAPS  H16Y 9202   6.754   6.209   8.454 -2.2574  1.1688 -0.3593
   93SAPS  C317 9203   6.798   6.405   8.387 -1.1542  0.2243 -0.5541
   93SAPS  H17X 9204   6.812   6.456   8.290  0.0533  0.9302 -0.0338
   93SAPS  H17Y 9205   6.887   6.424   8.450 -0.5103  3.7329 -2.2964
   93SAPS  C318 9206   6.670   6.455   8.459 -0.2059 -0.4054  0.5285
   93SAPS  H18X 9207   6.701   6.555   8.497  1.4966 -1.0569  0.9555
   93SAPS  H18Y 9208   6.635   6.396   8.546 -0.9966  0.2890  0.6855
   93SAPS  H18Z 9209   6.584   6.464   8.389  0.6335  0.0526 -0.4822
   94SAPS     N 9210   4.696   1.819   5.610 -0.3963 -0.0896  0.8390
   94SAPS   HN1 9211   4.687   1.717   5.629  1.2276 -0.6522 -1.1141
   94SAPS   HN2 9212   4.611   1.868   5.644 -0.5075  0.4804 -0.2106
   94SAPS   HN3 9213   4.697   1.835   5.507  0.5482  0.6028  0.9463
   94SAPS   C12 9214   4.816   1.884   5.670 -0.2363  0.1383  0.1100
   94SAPS  H12A 9215   4.840   1.837   5.764  2.1801 -1.2273 -1.0668
   94SAPS   C13 9216   4.953   1.861   5.596 -0.7261  0.1227 -0.2375
   94SAPS  O13A 9217   4.956   1.787   5.495  0.8734 -0.0802  0.5287
   94SAPS  O13B 9218   5.059   1.885   5.667  0.3822  0.8686 -0.6953
   94SAPS   C11 9219   4.795   2.036   5.693  0.2422 -0.0460 -0.3058
   94SAPS  H11A 9220   4.794   2.078   5.590  0.8036 -1.1353 -0.7783
   94SAPS  H11B 9221   4.874   2.070   5.764 -1.8517  1.0626  1.6162
   94SAPS     P 9222   4.613   2.204   5.804  0.3442 -0.3956 -0.2480
   94SAPS   O13 9223   4.579   2.291   5.691 -0.0009  0.0060  1.0587
   94SAPS   O14 9224   4.506   2.209   5.909 -0.3222  0.5977  0.2330
   94SAPS   O12 9225   4.664   2.056   5.760  0.6954 -0.3181 -0.2196
   94SAPS   O11 9226   4.738   2.265   5.872 -0.3832  0.1253 -0.4529
   94SAPS    C1 9227   4.726   2.329   5.999 -0.1192  0.1907  0.4506
   94SAPS    HA 9228   4.663   2.419   5.989 -0.7279 -0.2500  0.2957
   94SAPS    HB 9229   4.695   2.265   6.085  0.3761 -2.2133 -1.0556
   94SAPS    C2 9230   4.873   2.380   6.037 -0.3347 -0.5640 -0.5864
   94SAPS    HS 9231   4.912   2.437   5.950 -0.1887 -0.1916 -0.2791
   94SAPS   O21 9232   4.951   2.261   6.065  0.0669  0.4206 -0.2497
   94SAPS   C21 9233   5.078   2.258   6.017  0.8251  0.5361  0.1020
   94SAPS   O22 9234   5.134   2.354   5.970  0.2484  0.0121 -0.1848
   94SAPS   C22 9235   5.151   2.123   6.039  0.0658 -0.0889  0.0506
   94SAPS   H2R 9236   5.074   2.044   6.030  0.1491  0.0129 -2.0881
   94SAPS   H2S 9237   5.218   2.111   5.951 -1.2182 -2.7139 -0.6489
   94SAPS    C3 9238   4.879   2.474   6.160  0.1674  0.0461  0.1481
   94SAPS    HX 9239   4.834   2.571   6.129 -2.2571 -0.4748  1.7144
   94SAPS    HY 9240   4.984   2.492   6.191 -0.2360 -0.7087  2.1374
   94SAPS   O31 9241   4.813   2.423   6.271  0.5144  0.7273 -0.6023
   94SAPS   C31 9242   4.764   2.511   6.358 -0.6969  0.2383 -0.8289
   94SAPS   O32 9243   4.775   2.630   6.354 -0.0295 -0.2885 -0.4441
   94SAPS   C32 9244   4.702   2.435   6.486  0.0960 -0.1506  0.3124
   94SAPS   H2X 9245   4.690   2.331   6.448 -1.1568 -0.1900  0.7559
   94SAPS   H2Y 9246   4.608   2.489   6.510  0.9762  1.6408 -0.0870
   94SAPS   C23 9247   5.214   2.115   6.178  0.2703 -0.3784 -0.0664
   94SAPS   H3R 9248   5.215   2.006   6.200  0.2412 -0.0037  1.9559
   94SAPS   H3S 9249   5.142   2.174   6.238 -0.7840 -1.0189 -0.6631
   94SAPS   C24 9250   5.358   2.168   6.175  0.1199  0.2515  0.9056
   94SAPS   H4R 9251   5.404   2.120   6.086 -0.3139  2.2027 -0.4302
   94SAPS   H4S 9252   5.408   2.123   6.264  1.0976  0.6076  0.5491
   94SAPS   C25 9253   5.382   2.309   6.181  0.5144 -0.0249 -0.5306
   94SAPS   H5R 9254   5.408   2.360   6.086 -0.6446  3.1828  0.7114
   94SAPS   C26 9255   5.347   2.391   6.285 -0.5602  0.2033  0.6484
   94SAPS   H6R 9256   5.365   2.500   6.279 -0.4592  0.2885  2.1749
   94SAPS   C27 9257   5.293   2.351   6.417 -0.2363 -0.2967  0.0861
   94SAPS   H7R 9258   5.377   2.364   6.489 -0.2694 -1.2980  0.3272
   94SAPS   H7S 9259   5.274   2.242   6.413  1.2301 -0.6680  1.8447
   94SAPS   C28 9260   5.172   2.430   6.458  0.4216  0.1364 -0.3809
   94SAPS   H8R 9261   5.078   2.396   6.411 -1.1383 -0.6070  3.0013
   94SAPS   C29 9262   5.166   2.521   6.560  0.6567 -0.0749 -0.2356
   94SAPS   H9R 9263   5.078   2.586   6.568  1.4608  0.8370  2.3450
   94SAPS  C210 9264   5.277   2.557   6.658 -0.1043 -0.0327  1.0170
   94SAPS  H10R 9265   5.233   2.643   6.715 -1.0204  1.4330 -1.7229
   94SAPS  H10S 9266   5.364   2.598   6.603  0.0626 -0.0112  1.2904
   94SAPS  C211 9267   5.314   2.439   6.751 -0.8922  0.0604  0.8337
   94SAPS  H11R 9268   5.322   2.350   6.687 -0.5300  1.9112 -1.8489
   94SAPS  C212 9269   5.329   2.424   6.883 -0.1755 -0.2610 -0.4093
   94SAPS  H12R 9270   5.337   2.324   6.927 -2.5608  0.1427  1.1641
   94SAPS  C213 9271   5.322   2.533   6.989  0.0890 -0.5342 -0.0623
   94SAPS  H13R 9272   5.225   2.530   7.043  0.6208 -1.8673  0.9026
   94SAPS  H13S 9273   5.321   2.628   6.932 -0.6097 -1.3910 -1.5315
   94SAPS  C214 9274   5.430   2.552   7.088 -0.6730  0.3380 -0.5880
   94SAPS  H14R 9275   5.531   2.520   7.060 -0.5807 -1.4444  1.5729
   94SAPS  C215 9276   5.417   2.600   7.211  0.0737  0.1311  0.8412
   94SAPS  H15R 9277   5.516   2.617   7.255  1.5559 -1.5554 -1.5673
   94SAPS  C216 9278   5.284   2.644   7.274  0.7395 -0.0062 -0.3450
   94SAPS  H16R 9279   5.248   2.548   7.317  1.3923 -0.6768 -1.2583
   94SAPS  H16S 9280   5.218   2.695   7.202 -1.0593  0.3659  1.4766
   94SAPS  C217 9281   5.308   2.731   7.397 -0.9196 -0.2119  0.1802
   94SAPS  H17R 9282   5.211   2.751   7.447 -0.7315 -0.3361  0.5958
   94SAPS  H17S 9283   5.352   2.831   7.375  1.0915 -1.0611  0.1169
   94SAPS  C218 9284   5.394   2.660   7.509  0.4537 -0.0292  1.0959
   94SAPS  H18R 9285   5.503   2.667   7.490  0.3317  0.7295  0.6442
   94SAPS  H18S 9286   5.374   2.551   7.497  0.1747  0.1599 -0.3078
   94SAPS  C219 9287   5.373   2.722   7.650  0.6064  0.2806  0.3981
   94SAPS  H19R 9288   5.413   2.647   7.722  1.3575  0.0584 -0.2356
   94SAPS  H19S 9289   5.267   2.738   7.680  1.4438  0.9212  3.3640
   94SAPS  C220 9290   5.456   2.848   7.675  0.4290  0.7316 -0.4170
   94SAPS  H20R 9291   5.564   2.822   7.672  0.3446 -0.2868  2.4331
   94SAPS  H20S 9292   5.430   2.895   7.772 -1.0838 -1.5806  0.3781
   94SAPS  H20T 9293   5.444   2.917   7.589  2.8672  0.2006 -1.2953
   94SAPS   C33 9294   4.788   2.447   6.606 -1.2384 -0.1503  0.2707
   94SAPS   H3X 9295   4.831   2.549   6.603  0.4059 -0.7835  1.2163
   94SAPS   H3Y 9296   4.870   2.373   6.599 -2.0267 -1.0074 -0.1433
   94SAPS   C34 9297   4.715   2.415   6.734 -0.0450  0.5687 -0.5136
   94SAPS   H4X 9298   4.654   2.324   6.714  2.3931 -1.0323 -1.1512
   94SAPS   H4Y 9299   4.647   2.496   6.766 -2.0043 -1.2829  0.3127
   94SAPS   C35 9300   4.803   2.396   6.852 -0.3220  0.2004  0.3789
   94SAPS   H5X 9301   4.886   2.471   6.848  0.7756 -1.0258 -1.2192
   94SAPS   H5Y 9302   4.847   2.295   6.836  0.7950  0.9337 -1.3935
   94SAPS   C36 9303   4.729   2.405   6.994  0.2764 -0.2592  0.2152
   94SAPS   H6X 9304   4.692   2.302   7.010 -0.0254 -0.3726 -1.0886
   94SAPS   H6Y 9305   4.641   2.473   6.992 -0.4760 -1.2266 -2.0723
   94SAPS   C37 9306   4.834   2.441   7.100  0.0974 -0.1163  0.0271
   94SAPS   H7X 9307   4.928   2.393   7.068 -0.1166 -0.5991  0.1191
   94SAPS   H7Y 9308   4.793   2.411   7.199 -0.2413  0.7297  0.1603
   94SAPS   C38 9309   4.857   2.593   7.114 -0.3527  0.5873  0.3347
   94SAPS   H8X 9310   4.764   2.652   7.096  0.3873  1.7126  0.0665
   94SAPS   H8Y 9311   4.918   2.611   7.023  0.4428  0.7885  0.9035
   94SAPS   C39 9312   4.938   2.631   7.236  0.3549  0.4631  0.5715
   94SAPS   H9X 9313   4.976   2.734   7.218 -0.3942  0.2635 -2.7296
   94SAPS   H9Y 9314   5.036   2.578   7.236 -0.1771 -0.5469  0.5741
   94SAPS  C310 9315   4.862   2.624   7.369  0.1703 -0.0622 -0.3434
   94SAPS  H10X 9316   4.819   2.523   7.382  0.9870 -0.3094  0.5813
   94SAPS  H10Y 9317   4.778   2.695   7.357  1.5879  1.6227 -0.7392
   94SAPS  C311 9318   4.943   2.659   7.489  0.3956 -0.1055 -0.1582
   94SAPS  H11X 9319   4.969   2.767   7.487  1.3851 -0.2435  1.9155
   94SAPS  H11Y 9320   5.038   2.605   7.469  0.2777 -0.0543 -0.8540
   94SAPS  C312 9321   4.896   2.620   7.634 -0.2376  0.8405 -0.5331
   94SAPS  H12X 9322   4.794   2.655   7.662 -0.5015 -1.1699  1.2165
   94SAPS  H12Y 9323   4.967   2.661   7.709  0.0724  2.3232 -1.5806
   94SAPS  C313 9324   4.889   2.471   7.644 -0.9809  0.0827  0.2671
   94SAPS  H13X 9325   4.987   2.423   7.619 -1.5055 -1.7132  1.4556
   94SAPS  H13Y 9326   4.808   2.426   7.584 -1.6574  0.6994  0.7102
   94SAPS  C314 9327   4.861   2.413   7.782 -0.4912  0.3338 -0.0671
   94SAPS  H14X 9328   4.753   2.434   7.797 -1.2061 -1.3827 -2.2323
   94SAPS  H14Y 9329   4.924   2.469   7.854  0.4938 -0.1052 -0.5767
   94SAPS  C315 9330   4.878   2.257   7.793  0.0569  0.6629 -0.0130
   94SAPS  H15X 9331   4.799   2.205   7.734 -1.4035  2.1591  0.5461
   94SAPS  H15Y 9332   4.878   2.225   7.899  0.4446  1.3874  0.2092
   94SAPS  C316 9333   5.021   2.208   7.744 -0.0013  0.7109 -0.6732
   94SAPS  H16X 9334   5.102   2.279   7.770 -0.5282  0.7075  1.0965
   94SAPS  H16Y 9335   5.016   2.212   7.633 -0.5989  2.9043 -0.6170
   94SAPS  C317 9336   5.064   2.065   7.787 -0.2753  0.2781  0.0007
   94SAPS  H17X 9337   4.971   2.004   7.781 -0.0349 -0.6242  3.2632
   94SAPS  H17Y 9338   5.090   2.067   7.895 -0.6649  1.7023  0.0911
   94SAPS  C318 9339   5.162   1.998   7.689  1.0403  0.5615 -0.1139
   94SAPS  H18X 9340   5.254   2.061   7.685  1.2243  0.4794  1.7464
   94SAPS  H18Y 9341   5.111   1.986   7.592  0.7376 -1.5688  0.2707
   94SAPS  H18Z 9342   5.176   1.893   7.722 -1.7397  0.4250  0.8663
   95SAPS     N 9343   2.845   5.960   6.087 -0.5773  0.3967 -0.0235
   95SAPS   HN1 9344   2.884   6.031   6.153  0.0529 -0.1183  0.1735
   95SAPS   HN2 9345   2.883   5.981   5.993 -0.8333  2.4544  0.3000
   95SAPS   HN3 9346   2.741   5.958   6.088 -0.6064 -1.5460 -1.0047
   95SAPS   C12 9347   2.910   5.831   6.146  0.5911  0.8019  0.5178
   95SAPS  H12A 9348   2.852   5.802   6.232  1.8602  1.3118  1.5822
   95SAPS   C13 9349   2.909   5.703   6.060 -0.0433  0.0262 -0.5884
   95SAPS  O13A 9350   2.849   5.705   5.949  0.3300 -0.8917  0.3887
   95SAPS  O13B 9351   2.941   5.595   6.110 -0.6540 -0.3630 -0.0895
   95SAPS   C11 9352   3.058   5.872   6.171  0.2729 -0.7101 -0.1582
   95SAPS  H11A 9353   3.107   5.924   6.086  1.2235 -0.4313  0.5462
   95SAPS  H11B 9354   3.111   5.775   6.186 -0.8513 -1.1270  1.5248
   95SAPS     P 9355   3.193   5.939   6.382  0.1140  0.0112 -0.0823
   95SAPS   O13 9356   3.316   5.940   6.303 -1.1134 -0.2590  0.3165
   95SAPS   O14 9357   3.182   6.046   6.482 -0.3414 -0.1422  0.9115
   95SAPS   O12 9358   3.064   5.951   6.282  0.4589  0.2475  0.4563
   95SAPS   O11 9359   3.179   5.794   6.450 -0.4029  0.3396 -0.3963
   95SAPS    C1 9360   3.047   5.746   6.490  0.0177  0.4222 -0.3771
   95SAPS    HA 9361   2.965   5.763   6.417 -2.9646  2.2326  3.0567
   95SAPS    HB 9362   3.050   5.635   6.496 -0.5101  0.4536  0.7532
   95SAPS    C2 9363   3.002   5.807   6.625 -0.0750 -0.5625 -0.4294
   95SAPS    HS 9364   2.945   5.898   6.597  1.9004  1.3823  1.4820
   95SAPS   O21 9365   3.116   5.840   6.702 -0.2967 -0.6450  0.9188
   95SAPS   C21 9366   3.105   5.939   6.786  0.1399  0.1641  0.8920
   95SAPS   O22 9367   3.012   6.007   6.814  0.1313 -0.2513 -0.2488
   95SAPS   C22 9368   3.239   5.957   6.858 -0.5687  0.2176  0.2183
   95SAPS   H2R 9369   3.278   5.859   6.894 -1.3334  0.4580  1.7991
   95SAPS   H2S 9370   3.305   6.004   6.782 -0.3272  1.5351  1.2182
   95SAPS    C3 9371   2.901   5.718   6.702 -0.5977  0.0786 -0.9574
   95SAPS    HX 9372   2.825   5.694   6.625  0.4545  1.0002 -2.3267
   95SAPS    HY 9373   2.843   5.774   6.778  1.9275 -1.3782  2.2875
   95SAPS   O31 9374   2.960   5.605   6.761  0.1014  1.1222 -0.6010
   95SAPS   C31 9375   2.998   5.614   6.892 -0.1776  0.5050 -0.4342
   95SAPS   O32 9376   2.992   5.719   6.954  0.1861 -0.3830  0.3179
   95SAPS   C32 9377   3.045   5.481   6.952  0.5775 -0.4366 -0.4483
   95SAPS   H2X 9378   3.149   5.462   6.918  0.8832 -0.1316  0.3104
   95SAPS   H2Y 9379   2.982   5.404   6.902  0.3658  0.6745 -1.9886
   95SAPS   C23 9380   3.214   6.043   6.981  0.0982 -0.6835 -0.7279
   95SAPS   H3R 9381   3.135   6.007   7.050  0.0067  0.1747 -0.3811
   95SAPS   H3S 9382   3.180   6.145   6.954  0.6510 -0.5386 -0.8933
   95SAPS   C24 9383   3.352   6.068   7.056 -0.1544  0.4665  0.2615
   95SAPS   H4R 9384   3.420   6.100   6.975  0.5489  0.4678  0.8420
   95SAPS   H4S 9385   3.380   5.963   7.081  0.7383  0.6353 -0.0107
   95SAPS   C25 9386   3.340   6.169   7.168 -0.0430 -0.6096  0.2584
   95SAPS   H5R 9387   3.288   6.259   7.131  0.4900 -0.5253 -0.3083
   95SAPS   C26 9388   3.367   6.159   7.296  0.7473 -0.0541  0.7356
   95SAPS   H6R 9389   3.341   6.241   7.364  0.5140 -2.1278  3.3352
   95SAPS   C27 9390   3.430   6.045   7.368 -0.3220  0.3259  0.2537
   95SAPS   H7R 9391   3.356   5.962   7.364 -0.7545  0.7420 -2.1310
   95SAPS   H7S 9392   3.446   6.073   7.474  2.5929  0.4728 -0.1570
   95SAPS   C28 9393   3.567   6.015   7.310  0.2943  0.9118 -0.4150
   95SAPS   H8R 9394   3.570   6.033   7.201 -3.1089 -0.7415 -0.9045
   95SAPS   C29 9395   3.673   5.970   7.376  0.6866 -0.2188  0.4014
   95SAPS   H9R 9396   3.757   5.936   7.314  1.2160 -1.6836  1.8404
   95SAPS  C210 9397   3.672   5.923   7.519  1.2279 -1.1079  0.5628
   95SAPS  H10R 9398   3.568   5.887   7.538  0.5528 -0.5317 -1.6657
   95SAPS  H10S 9399   3.700   6.010   7.582  0.2897  1.1427 -1.9064
   95SAPS  C211 9400   3.764   5.802   7.532  0.3609 -0.4995 -0.4740
   95SAPS  H11R 9401   3.774   5.737   7.444 -0.1968  1.0843 -1.7518
   95SAPS  C212 9402   3.826   5.767   7.646  0.2593 -0.5175  0.0166
   95SAPS  H12R 9403   3.891   5.678   7.642  2.8866  1.2920 -0.3989
   95SAPS  C213 9404   3.820   5.842   7.775  0.2279 -0.2002  0.2704
   95SAPS  H13R 9405   3.794   5.949   7.758 -0.5614 -0.3732  0.3460
   95SAPS  H13S 9406   3.923   5.851   7.816  1.1582  4.0888 -2.3322
   95SAPS  C214 9407   3.721   5.772   7.861  0.5608 -0.0507 -0.7665
   95SAPS  H14R 9408   3.615   5.764   7.834  0.0513 -2.2887  1.4769
   95SAPS  C215 9409   3.738   5.727   7.990  0.0253  0.6629  0.2884
   95SAPS  H15R 9410   3.658   5.676   8.045  0.4667 -1.5959 -1.0414
   95SAPS  C216 9411   3.866   5.727   8.065 -0.1954  0.4256 -0.0280
   95SAPS  H16R 9412   3.950   5.775   8.011 -1.7937 -0.4381 -3.5574
   95SAPS  H16S 9413   3.889   5.622   8.093  1.3623  1.4095  2.7659
   95SAPS  C217 9414   3.849   5.809   8.195  0.4895  0.5796 -0.6190
   95SAPS  H17R 9415   3.747   5.852   8.208  0.8413  0.8972  1.2990
   95SAPS  H17S 9416   3.919   5.893   8.178  1.2912 -0.1647 -1.0685
   95SAPS  C218 9417   3.879   5.737   8.327 -0.2840  0.4436  0.2007
   95SAPS  H18R 9418   3.886   5.805   8.415 -0.0006 -0.7996  1.1754
   95SAPS  H18S 9419   3.979   5.695   8.303  0.3704  2.0491  0.0033
   95SAPS  C219 9420   3.777   5.626   8.359 -0.5840 -0.3452  0.4094
   95SAPS  H19R 9421   3.769   5.553   8.276  2.5928 -1.5866  1.0506
   95SAPS  H19S 9422   3.680   5.675   8.382 -0.2669 -0.2548  1.6575
   95SAPS  C220 9423   3.823   5.546   8.480 -0.0514 -0.0753  0.4300
   95SAPS  H20R 9424   3.905   5.472   8.467  0.4920  0.5172  0.4624
   95SAPS  H20S 9425   3.741   5.477   8.509  0.7081 -0.5953  1.3913
   95SAPS  H20T 9426   3.840   5.620   8.561  1.3885  1.6434 -1.3548
   95SAPS   C33 9427   3.021   5.480   7.101  1.0462 -0.3295 -0.6577
   95SAPS   H3X 9428   3.000   5.375   7.130  2.1157  0.1149  1.9856
   95SAPS   H3Y 9429   2.926   5.527   7.134  0.3565 -0.7424 -2.0070
   95SAPS   C34 9430   3.118   5.563   7.182  0.3764 -0.3637  0.0640
   95SAPS   H4X 9431   3.109   5.669   7.150  0.4173 -1.0947 -2.6240
   95SAPS   H4Y 9432   3.218   5.531   7.145  0.3330 -2.8425  1.8250
   95SAPS   C35 9433   3.119   5.534   7.329 -0.0602 -0.1432  0.0183
   95SAPS   H5X 9434   3.166   5.440   7.366  0.3495  0.3860  0.8793
   95SAPS   H5Y 9435   3.023   5.548   7.383  1.7116  2.1274  2.8645
   95SAPS   C36 9436   3.213   5.636   7.402 -0.2414 -0.1529 -0.0571
   95SAPS   H6X 9437   3.160   5.732   7.389  0.0811  0.0111 -0.1761
   95SAPS   H6Y 9438   3.309   5.658   7.351 -1.3025  0.5504 -1.8476
   95SAPS   C37 9439   3.226   5.618   7.553 -0.2215 -0.2127  0.1796
   95SAPS   H7X 9440   3.286   5.525   7.569  1.3614  0.8031  0.3380
   95SAPS   H7Y 9441   3.126   5.606   7.599  0.2341  0.7161  1.4852
   95SAPS   C38 9442   3.283   5.747   7.618 -0.4442 -0.2008  0.4583
   95SAPS   H8X 9443   3.224   5.836   7.587 -1.2252 -0.0920  2.1085
   95SAPS   H8Y 9444   3.380   5.767   7.568 -1.5166  0.7000 -1.3543
   95SAPS   C39 9445   3.306   5.731   7.767  0.7603  0.0103 -0.0224
   95SAPS   H9X 9446   3.390   5.661   7.781  1.1172 -0.6177 -4.1018
   95SAPS   H9Y 9447   3.223   5.687   7.827  1.0703 -0.4420  0.0769
   95SAPS  C310 9448   3.331   5.868   7.833  0.1759 -0.0492  0.5804
   95SAPS  H10X 9449   3.235   5.922   7.845 -1.0602 -1.6261 -1.4623
   95SAPS  H10Y 9450   3.405   5.923   7.772 -0.8208  0.9223  0.2163
   95SAPS  C311 9451   3.389   5.854   7.975 -0.1848 -0.2698 -0.1669
   95SAPS  H11X 9452   3.456   5.940   7.992  1.5563 -1.4972 -0.4813
   95SAPS  H11Y 9453   3.462   5.770   7.973  1.5522  1.1487  0.8915
   95SAPS  C312 9454   3.279   5.857   8.078 -0.6739 -0.1894 -0.8564
   95SAPS  H12X 9455   3.225   5.759   8.076 -0.6168 -0.2533  0.4003
   95SAPS  H12Y 9456   3.204   5.938   8.064 -1.6796 -0.4883  2.0732
   95SAPS  C313 9457   3.330   5.866   8.224  0.3815  0.0593  0.2536
   95SAPS  H13X 9458   3.381   5.965   8.219 -1.8554  1.2558 -0.5133
   95SAPS  H13Y 9459   3.399   5.782   8.248 -2.2673 -1.5950  2.6794
   95SAPS  C314 9460   3.219   5.884   8.336 -0.6686  0.6831  0.2444
   95SAPS  H14X 9461   3.144   5.963   8.315 -2.3933 -0.6534  1.1057
   95SAPS  H14Y 9462   3.270   5.917   8.429  2.0312  0.8966 -1.2168
   95SAPS  C315 9463   3.134   5.761   8.368  0.4581  0.4990 -0.6381
   95SAPS  H15X 9464   3.207   5.678   8.381 -2.1249 -2.1418 -1.7691
   95SAPS  H15Y 9465   3.074   5.743   8.277  1.4521  0.0347 -1.2137
   95SAPS  C316 9466   3.046   5.782   8.494 -0.7523  0.1759 -0.2069
   95SAPS  H16X 9467   2.976   5.867   8.477 -0.5689  0.4075  0.1714
   95SAPS  H16Y 9468   3.104   5.798   8.588 -1.1314 -0.1820  0.0931
   95SAPS  C317 9469   2.960   5.660   8.529 -0.1649  0.5405  0.6506
   95SAPS  H17X 9470   3.027   5.576   8.501 -0.9184  0.5540 -1.3002
   95SAPS  H17Y 9471   2.880   5.651   8.453  1.5807 -0.4588 -1.1503
   95SAPS  C318 9472   2.920   5.662   8.675 -0.3123  0.1799 -0.1449
   95SAPS  H18X 9473   2.860   5.752   8.698 -1.3556 -0.0928 -1.6180
   95SAPS  H18Y 9474   3.014   5.668   8.733  0.6228 -0.0558 -1.5949
   95SAPS  H18Z 9475   2.871   5.563   8.692 -1.1468  0.1993 -2.1372
   96SAPS     N 9476   3.510   0.383   6.278  0.0167 -0.2115 -0.4728
   96SAPS   HN1 9477   3.528   0.459   6.347 -1.0960 -0.0826 -0.3051
   96SAPS   HN2 9478   3.516   0.294   6.331  0.6040  0.7519  1.1601
   96SAPS   HN3 9479   3.568   0.384   6.192 -0.2262  0.3313 -0.6332
   96SAPS   C12 9480   3.376   0.408   6.224  0.0515 -0.5031 -0.3123
   96SAPS  H12A 9481   3.384   0.499   6.167  1.0982  0.4189  1.2483
   96SAPS   C13 9482   3.346   0.300   6.120 -0.0548 -0.4844  0.0545
   96SAPS  O13A 9483   3.393   0.184   6.127 -0.2057  0.5887  0.6359
   96SAPS  O13B 9484   3.243   0.321   6.053  0.1584  0.7328  0.2893
   96SAPS   C11 9485   3.263   0.413   6.327  1.2999 -0.0962 -0.4033
   96SAPS  H11A 9486   3.258   0.317   6.384  1.6601  0.0965 -0.0359
   96SAPS  H11B 9487   3.168   0.419   6.271  1.6960 -0.4287 -1.1240
   96SAPS     P 9488   3.157   0.569   6.503  0.0299  0.3744  0.0476
   96SAPS   O13 9489   3.186   0.704   6.552 -0.3362 -0.3259 -0.1653
   96SAPS   O14 9490   3.029   0.554   6.425  0.9252 -0.1626  0.3216
   96SAPS   O12 9491   3.277   0.520   6.410  0.3389  0.0620 -0.4050
   96SAPS   O11 9492   3.169   0.474   6.624 -0.2790  0.1990 -0.3477
   96SAPS    C1 9493   3.300   0.451   6.680  0.1920  0.4702 -0.5738
   96SAPS    HA 9494   3.306   0.344   6.711 -3.5356  0.7158  1.7221
   96SAPS    HB 9495   3.380   0.467   6.605 -1.3871  0.4507 -2.3524
   96SAPS    C2 9496   3.322   0.532   6.808 -0.2749  0.3976 -0.8614
   96SAPS    HS 9497   3.345   0.636   6.776 -0.6947  1.0694  0.8965
   96SAPS   O21 9498   3.440   0.476   6.880  1.2491 -0.4873  0.0397
   96SAPS   C21 9499   3.557   0.530   6.846 -0.0544 -0.1249  0.3373
   96SAPS   O22 9500   3.577   0.612   6.756 -0.3130  0.0227 -0.3454
   96SAPS   C22 9501   3.678   0.452   6.920 -0.3556 -0.0453 -0.4068
   96SAPS   H2R 9502   3.619   0.369   6.965 -1.0081 -1.1385 -3.1324
   96SAPS   H2S 9503   3.742   0.422   6.835 -1.6169  1.0546 -1.7996
   96SAPS    C3 9504   3.191   0.532   6.894 -0.6547 -0.6474  0.4377
   96SAPS    HX 9505   3.162   0.425   6.901  1.9087 -1.4020  0.8350
   96SAPS    HY 9506   3.099   0.570   6.846  0.9137  1.9913 -0.6498
   96SAPS   O31 9507   3.213   0.589   7.028  0.1732 -1.1533 -0.5739
   96SAPS   C31 9508   3.186   0.719   7.040  0.5231 -0.1768 -0.9564
   96SAPS   O32 9509   3.159   0.796   6.948 -0.9012 -0.9512 -0.3249
   96SAPS   C32 9510   3.195   0.751   7.191 -0.2994  0.2015 -0.3804
   96SAPS   H2X 9511   3.111   0.698   7.242 -0.4057  1.4518  0.8136
   96SAPS   H2Y 9512   3.168   0.858   7.201 -1.7719  0.0095 -1.9190
   96SAPS   C23 9513   3.742   0.536   7.035 -0.5089  0.5375  0.6307
   96SAPS   H3R 9514   3.779   0.628   6.985 -1.1027  0.5318  0.1592
   96SAPS   H3S 9515   3.842   0.492   7.056 -0.4812  0.7194  0.8870
   96SAPS   C24 9516   3.671   0.562   7.160  0.3019 -0.1469 -0.7293
   96SAPS   H4R 9517   3.641   0.470   7.214 -0.4807  1.5101  1.8603
   96SAPS   H4S 9518   3.584   0.627   7.140  0.3504  0.7991  1.8191
   96SAPS   C25 9519   3.766   0.650   7.246  0.0929  0.5173  0.4643
   96SAPS   H5R 9520   3.812   0.728   7.183 -0.3587 -1.6265 -2.8034
   96SAPS   C26 9521   3.816   0.612   7.370  0.5445 -0.4909 -0.0917
   96SAPS   H6R 9522   3.889   0.675   7.424 -0.8560  0.8166  0.3368
   96SAPS   C27 9523   3.784   0.474   7.427 -0.7226  0.0470 -0.2385
   96SAPS   H7R 9524   3.802   0.399   7.348 -0.1832 -1.9453  1.6885
   96SAPS   H7S 9525   3.674   0.468   7.444 -0.7144 -0.3822 -0.3378
   96SAPS   C28 9526   3.854   0.452   7.562  0.9162 -0.0018 -0.7199
   96SAPS   H8R 9527   3.953   0.404   7.553  1.0741  0.1346  0.2259
   96SAPS   C29 9528   3.796   0.460   7.686 -0.0579  0.6006  0.2471
   96SAPS   H9R 9529   3.845   0.425   7.778 -0.4924  0.1521  0.3111
   96SAPS  C210 9530   3.652   0.509   7.722  0.5806  0.1906 -0.0302
   96SAPS  H10R 9531   3.593   0.420   7.752  2.3773 -1.5818 -1.4929
   96SAPS  H10S 9532   3.601   0.555   7.634  1.4445  1.0050 -0.1194
   96SAPS  C211 9533   3.650   0.617   7.823 -0.1557 -0.2250 -0.8441
   96SAPS  H11R 9534   3.680   0.715   7.784  2.4621 -0.2393  0.8443
   96SAPS  C212 9535   3.635   0.616   7.960 -0.0301 -0.0406 -0.5762
   96SAPS  H12R 9536   3.635   0.708   8.019 -1.2916 -0.3254 -0.1177
   96SAPS  C213 9537   3.617   0.493   8.043 -0.3068  0.0668  0.1253
   96SAPS  H13R 9538   3.681   0.507   8.133  0.8146  0.1618 -0.6641
   96SAPS  H13S 9539   3.645   0.397   7.995 -1.5157  0.1007 -0.6893
   96SAPS  C214 9540   3.478   0.475   8.088  0.0631  0.5646  0.0277
   96SAPS  H14R 9541   3.401   0.497   8.012  0.4881  1.8033 -0.0647
   96SAPS  C215 9542   3.438   0.427   8.204  0.1375 -0.2708 -0.0109
   96SAPS  H15R 9543   3.329   0.429   8.221  0.1175  1.3806 -0.1242
   96SAPS  C216 9544   3.525   0.381   8.320 -0.2665 -0.4841 -0.2524
   96SAPS  H16R 9545   3.629   0.357   8.288  0.1909  1.5657 -0.4393
   96SAPS  H16S 9546   3.481   0.296   8.377  2.6685 -3.8264 -2.4674
   96SAPS  C217 9547   3.538   0.501   8.416 -0.3606  0.2306  0.0771
   96SAPS  H17R 9548   3.435   0.528   8.447 -0.0988  1.5428 -0.1186
   96SAPS  H17S 9549   3.590   0.587   8.369 -1.8052  0.6260 -0.8604
   96SAPS  C218 9550   3.623   0.465   8.539  0.0166 -0.7621  0.4538
   96SAPS  H18R 9551   3.709   0.403   8.508  1.8828  1.7747  0.2254
   96SAPS  H18S 9552   3.549   0.399   8.590 -1.3307 -0.1517 -0.6379
   96SAPS  C219 9553   3.670   0.590   8.620 -0.2684 -0.2115  0.2348
   96SAPS  H19R 9554   3.585   0.662   8.628  1.6835  2.0681  2.0739
   96SAPS  H19S 9555   3.755   0.638   8.567 -0.2458 -0.2338  0.2513
   96SAPS  C220 9556   3.712   0.552   8.763  0.2711  0.5485 -0.8176
   96SAPS  H20R 9557   3.643   0.480   8.813  1.7586 -0.3048  0.0852
   96SAPS  H20S 9558   3.738   0.634   8.833  2.5843 -2.1130  1.7187
   96SAPS  H20T 9559   3.807   0.495   8.763  0.9851  1.6396  0.8330
   96SAPS   C33 9560   3.334   0.718   7.259  0.5530  0.4055  0.2699
   96SAPS   H3X 9561   3.403   0.799   7.225  0.5746  0.0988 -0.4383
   96SAPS   H3Y 9562   3.376   0.626   7.214  0.2295  0.5291 -0.2979
   96SAPS   C34 9563   3.325   0.706   7.411 -0.1053  0.3461 -0.4660
   96SAPS   H4X 9564   3.421   0.672   7.456 -0.1239  1.1340  0.1792
   96SAPS   H4Y 9565   3.264   0.619   7.444  1.4838 -0.0392  1.6733
   96SAPS   C35 9566   3.289   0.833   7.487  0.1610  0.2047 -0.1227
   96SAPS   H5X 9567   3.235   0.901   7.418 -0.4438 -0.4053 -0.2653
   96SAPS   H5Y 9568   3.383   0.886   7.515 -0.7178  0.3898  2.7896
   96SAPS   C36 9569   3.220   0.797   7.619  0.0655 -0.4808 -0.2150
   96SAPS   H6X 9570   3.293   0.739   7.678 -0.3867  0.2029  1.0458
   96SAPS   H6Y 9571   3.137   0.731   7.584  1.2412 -1.5600 -1.0313
   96SAPS   C37 9572   3.171   0.919   7.694 -0.3619 -0.3638  0.3100
   96SAPS   H7X 9573   3.063   0.910   7.720 -0.3903 -0.7923  0.0463
   96SAPS   H7Y 9574   3.178   1.013   7.635  0.4927 -1.8639 -2.1239
   96SAPS   C38 9575   3.243   0.928   7.830  0.4074  0.9498  0.1228
   96SAPS   H8X 9576   3.224   1.033   7.862 -1.2939  0.6614  0.1700
   96SAPS   H8Y 9577   3.351   0.908   7.812 -0.2679 -1.6779 -1.5423
   96SAPS   C39 9578   3.198   0.828   7.938 -0.0728  0.4832 -0.1623
   96SAPS   H9X 9579   3.192   0.726   7.895  0.5369  0.6859 -0.7495
   96SAPS   H9Y 9580   3.099   0.867   7.968  0.7151  1.9074  0.6858
   96SAPS  C310 9581   3.292   0.819   8.053  0.1717  0.0800 -0.1190
   96SAPS  H10X 9582   3.320   0.925   8.070 -0.5538  0.8637 -3.2602
   96SAPS  H10Y 9583   3.387   0.765   8.034 -1.0125 -1.2973 -2.5839
   96SAPS  C311 9584   3.207   0.771   8.178  0.7542 -0.3056 -0.8558
   96SAPS  H11X 9585   3.204   0.660   8.182 -1.2429 -0.2987 -1.3968
   96SAPS  H11Y 9586   3.107   0.817   8.185  1.1848  0.3979  1.7826
   96SAPS  C312 9587   3.275   0.812   8.311 -0.0342 -0.3208  0.3945
   96SAPS  H12X 9588   3.324   0.911   8.301  2.9413 -1.7656 -0.7296
   96SAPS  H12Y 9589   3.364   0.747   8.325 -1.0634 -1.3928  2.3857
   96SAPS  C313 9590   3.187   0.805   8.441  0.5878  0.0841  0.5683
   96SAPS  H13X 9591   3.254   0.790   8.528 -1.0802 -1.5373  1.6381
   96SAPS  H13Y 9592   3.135   0.707   8.445  0.2577  0.3065  3.7555
   96SAPS  C314 9593   3.093   0.924   8.460  0.0944  0.3688 -0.2996
   96SAPS  H14X 9594   3.023   0.947   8.377 -0.0856  2.2753  0.3120
   96SAPS  H14Y 9595   3.146   1.011   8.505  0.3881 -0.0347  0.1419
   96SAPS  C315 9596   2.998   0.900   8.577 -0.5860  0.0176 -0.7184
   96SAPS  H15X 9597   2.947   0.998   8.590  0.8767  0.9297 -1.5714
   96SAPS  H15Y 9598   3.062   0.889   8.667 -0.7119  1.2612 -0.4578
   96SAPS  C316 9599   2.890   0.793   8.569  0.0181  0.3958 -0.1704
   96SAPS  H16X 9600   2.937   0.694   8.554 -2.4777 -0.5374 -2.7040
   96SAPS  H16Y 9601   2.828   0.804   8.478 -2.3598  0.2657  1.3614
   96SAPS  C317 9602   2.803   0.796   8.691  0.1721 -0.6502 -0.1485
   96SAPS  H17X 9603   2.731   0.879   8.699 -0.1663 -1.0707  1.4024
   96SAPS  H17Y 9604   2.862   0.795   8.785 -0.1763  1.9532  0.1716
   96SAPS  C318 9605   2.741   0.651   8.704  0.8457  0.2226  0.2937
   96SAPS  H18X 9606   2.828   0.582   8.703  0.7109  0.0231 -1.6662
   96SAPS  H18Y 9607   2.684   0.628   8.611  1.3583  0.5657 -0.1068
   96SAPS  H18Z 9608   2.664   0.640   8.783 -0.6816  2.6665 -0.7447
   97SAPS     N 9609   5.030   5.083   6.052 -0.9632  0.3288 -0.2371
   97SAPS   HN1 9610   5.083   5.131   6.128  0.7183  1.0557 -1.7717
   97SAPS   HN2 9611   5.052   4.983   6.073  0.0595  0.4146 -0.8004
   97SAPS   HN3 9612   5.077   5.102   5.961  0.1088 -2.1470 -0.2865
   97SAPS   C12 9613   4.883   5.100   6.062 -0.0108 -0.0981 -1.0200
   97SAPS  H12A 9614   4.855   5.194   6.016 -1.2741  1.6295  2.8575
   97SAPS   C13 9615   4.793   4.997   5.991  0.2116  0.0553 -0.0739
   97SAPS  O13A 9616   4.841   4.937   5.892 -0.5178 -0.4748 -0.4815
   97SAPS  O13B 9617   4.672   5.022   5.998 -0.2684 -0.2756 -0.1801
   97SAPS   C11 9618   4.838   5.119   6.208 -0.1586 -0.0048 -1.1699
   97SAPS  H11A 9619   4.839   5.019   6.257 -1.9385 -0.0645 -1.1977
   97SAPS  H11B 9620   4.731   5.149   6.217 -0.8112 -2.5103  0.4743
   97SAPS     P 9621   4.872   5.292   6.403 -0.0339 -0.5803  0.1397
   97SAPS   O13 9622   4.982   5.312   6.500  0.2532  0.2246  1.0819
   97SAPS   O14 9623   4.794   5.407   6.351  0.5064 -0.4395  0.3803
   97SAPS   O12 9624   4.926   5.206   6.279  0.2134  0.0871 -0.3996
   97SAPS   O11 9625   4.766   5.200   6.468  0.5443 -0.0870  0.4265
   97SAPS    C1 9626   4.804   5.084   6.543  0.0581  0.4426 -0.0325
   97SAPS    HA 9627   4.721   5.013   6.520 -0.1056  0.4589  0.4878
   97SAPS    HB 9628   4.900   5.042   6.509  1.1455  0.5760  2.6257
   97SAPS    C2 9629   4.803   5.102   6.688  0.2028  0.1413 -0.5104
   97SAPS    HS 9630   4.873   5.185   6.711 -1.6519  1.6116  0.1797
   97SAPS   O21 9631   4.833   4.975   6.750  0.6871  0.1098 -0.3154
   97SAPS   C21 9632   4.913   4.991   6.858 -0.8413  0.2376 -0.4049
   97SAPS   O22 9633   4.959   5.093   6.901 -0.9644  0.1189 -0.6536
   97SAPS   C22 9634   4.923   4.850   6.922 -0.5627 -0.7289  0.7106
   97SAPS   H2R 9635   4.916   4.775   6.841 -1.7416  1.6159 -1.5066
   97SAPS   H2S 9636   5.024   4.845   6.969 -0.0497  1.1919 -0.1056
   97SAPS    C3 9637   4.658   5.149   6.730 -0.5783 -0.2270  0.4302
   97SAPS    HX 9638   4.575   5.085   6.691 -0.4018  0.0423 -0.4195
   97SAPS    HY 9639   4.644   5.247   6.680 -0.8144  0.2354  1.3861
   97SAPS   O31 9640   4.642   5.147   6.874 -0.1192 -0.6907 -0.0014
   97SAPS   C31 9641   4.561   5.240   6.931 -0.1175  0.4467  0.3104
   97SAPS   O32 9642   4.511   5.335   6.869  0.3107 -0.1684  0.4256
   97SAPS   C32 9643   4.536   5.207   7.080 -0.7582  0.1033 -0.3970
   97SAPS   H2X 9644   4.580   5.108   7.106 -0.0312  0.4124 -0.4126
   97SAPS   H2Y 9645   4.425   5.206   7.083 -0.9020  0.8231 -2.9529
   97SAPS   C23 9646   4.815   4.826   7.029  0.3229 -1.6420  0.3777
   97SAPS   H3R 9647   4.804   4.715   7.023 -0.1355 -1.5198 -2.4642
   97SAPS   H3S 9648   4.711   4.854   7.001  0.2198 -0.7595  1.5842
   97SAPS   C24 9649   4.840   4.891   7.158  0.1493 -0.6421  0.1381
   97SAPS   H4R 9650   4.749   4.879   7.221  3.4073 -2.5028  5.1710
   97SAPS   H4S 9651   4.847   4.998   7.130 -0.6377 -0.8011 -0.7073
   97SAPS   C25 9652   4.958   4.846   7.240 -0.2615  0.3865  0.4766
   97SAPS   H5R 9653   5.038   4.795   7.183  0.5096  0.0549  1.7887
   97SAPS   C26 9654   4.979   4.864   7.374 -0.2792  0.5963  0.5266
   97SAPS   H6R 9655   5.073   4.838   7.425 -1.1173  1.7112  2.7516
   97SAPS   C27 9656   4.880   4.942   7.461  0.5803  0.5063 -0.1145
   97SAPS   H7R 9657   4.844   4.881   7.546  2.3107 -0.2474  0.1145
   97SAPS   H7S 9658   4.788   4.971   7.405 -1.0576 -1.7685  1.2809
   97SAPS   C28 9659   4.945   5.066   7.518 -0.3165  0.5198 -0.0410
   97SAPS   H8R 9660   4.948   5.138   7.435  2.4825 -1.1452 -1.5383
   97SAPS   C29 9661   4.979   5.107   7.641 -0.5379  0.2454 -1.0485
   97SAPS   H9R 9662   5.037   5.200   7.653 -1.9287  1.2465 -1.8574
   97SAPS  C210 9663   4.965   5.021   7.768  0.2713 -0.8496  0.6661
   97SAPS  H10R 9664   5.064   4.971   7.763  0.2763 -0.7239 -1.4980
   97SAPS  H10S 9665   4.892   4.938   7.759 -0.0205 -0.7487  1.9177
   97SAPS  C211 9666   4.950   5.100   7.901  1.1941  0.6492 -0.3740
   97SAPS  H11R 9667   4.883   5.187   7.905  0.2049 -0.1516  1.9626
   97SAPS  C212 9668   5.003   5.070   8.017 -0.7781 -0.6428 -0.2217
   97SAPS  H12R 9669   4.990   5.134   8.105 -0.8767  1.0373 -1.4108
   97SAPS  C213 9670   5.092   4.957   8.038 -0.3533  0.1731  0.0909
   97SAPS  H13R 9671   5.194   4.995   8.015  0.8698 -1.4371  2.4303
   97SAPS  H13S 9672   5.082   4.873   7.966  1.6256  1.0240 -1.2682
   97SAPS  C214 9673   5.103   4.918   8.182 -0.6977  0.1124 -0.2330
   97SAPS  H14R 9674   5.038   4.835   8.214 -0.1391  0.3256  1.5858
   97SAPS  C215 9675   5.180   4.979   8.278  0.0544 -0.2444  0.3655
   97SAPS  H15R 9676   5.182   4.944   8.382  1.9521  1.5358  0.9972
   97SAPS  C216 9677   5.274   5.098   8.276  0.1788 -0.3900  0.8006
   97SAPS  H16R 9678   5.281   5.151   8.178 -2.1828 -0.1902  0.6807
   97SAPS  H16S 9679   5.376   5.064   8.303  0.1025 -1.3620 -0.1063
   97SAPS  C217 9680   5.220   5.199   8.378 -0.3070  1.0377 -0.0567
   97SAPS  H17R 9681   5.290   5.284   8.396  1.3568 -0.3238  0.2276
   97SAPS  H17S 9682   5.197   5.144   8.472 -0.1938  0.9364 -0.0872
   97SAPS  C218 9683   5.087   5.263   8.336 -0.1803  0.3990 -0.2443
   97SAPS  H18R 9684   5.007   5.186   8.334  0.0730 -0.0282  2.5439
   97SAPS  H18S 9685   5.096   5.319   8.240  0.5420  0.5520 -0.0915
   97SAPS  C219 9686   5.042   5.366   8.448 -0.1643  0.1848  0.3993
   97SAPS  H19R 9687   5.120   5.445   8.443 -0.3431  0.3015 -0.6944
   97SAPS  H19S 9688   5.040   5.316   8.547  0.0413  0.3332  0.4786
   97SAPS  C220 9689   4.895   5.422   8.430 -0.6217  0.3007  0.6276
   97SAPS  H20R 9690   4.828   5.341   8.465 -1.0153 -0.1658 -1.1054
   97SAPS  H20S 9691   4.868   5.440   8.324 -1.8504 -0.0032  0.8761
   97SAPS  H20T 9692   4.873   5.510   8.493 -0.3698  2.0487 -1.6131
   97SAPS   C33 9693   4.595   5.322   7.161 -0.5213  0.2173  0.3424
   97SAPS   H3X 9694   4.528   5.407   7.134  0.6122  0.8628 -0.5189
   97SAPS   H3Y 9695   4.696   5.354   7.129 -0.9227  0.1643 -1.0336
   97SAPS   C34 9696   4.597   5.304   7.313 -0.2371  0.5385 -0.1952
   97SAPS   H4X 9697   4.643   5.207   7.341 -0.9552  0.0362 -0.6943
   97SAPS   H4Y 9698   4.495   5.299   7.356 -0.0541 -1.5584  0.1091
   97SAPS   C35 9699   4.674   5.420   7.376  0.0485 -0.2604 -1.1637
   97SAPS   H5X 9700   4.631   5.520   7.356 -0.5859 -0.4411 -0.7625
   97SAPS   H5Y 9701   4.777   5.415   7.337  0.8998  0.2471  0.8921
   97SAPS   C36 9702   4.702   5.402   7.523  0.1983  0.0427  0.3108
   97SAPS   H6X 9703   4.748   5.303   7.544 -1.4317 -0.7645  0.2231
   97SAPS   H6Y 9704   4.608   5.398   7.582 -2.5044 -0.1233 -3.5723
   97SAPS   C37 9705   4.787   5.514   7.588  0.0034 -0.0159  0.4289
   97SAPS   H7X 9706   4.756   5.609   7.538 -0.6347  1.0112  2.6595
   97SAPS   H7Y 9707   4.894   5.499   7.560 -0.3979 -2.4731 -0.0108
   97SAPS   C38 9708   4.779   5.526   7.745 -0.2306 -0.2554 -0.1172
   97SAPS   H8X 9709   4.809   5.428   7.788  0.8959  0.1214 -0.0132
   97SAPS   H8Y 9710   4.670   5.539   7.763  0.0441  2.8588 -0.0908
   97SAPS   C39 9711   4.853   5.639   7.816  0.1851  0.9142  0.5186
   97SAPS   H9X 9712   4.820   5.734   7.769  0.2026  1.0028  0.6821
   97SAPS   H9Y 9713   4.961   5.626   7.798  0.2272  1.7234  0.1395
   97SAPS  C310 9714   4.823   5.638   7.966 -0.3760 -0.1499 -0.3192
   97SAPS  H10X 9715   4.870   5.727   8.013  0.1832 -0.0200 -1.1018
   97SAPS  H10Y 9716   4.877   5.553   8.011 -0.3241  0.9344  1.7767
   97SAPS  C311 9717   4.674   5.609   8.013 -0.6351 -0.0407 -0.1423
   97SAPS  H11X 9718   4.644   5.505   7.987  0.9826 -0.8655  1.1281
   97SAPS  H11Y 9719   4.601   5.681   7.969  0.0850  0.1297 -1.0928
   97SAPS  C312 9720   4.664   5.598   8.168  0.7387 -0.0582  0.7365
   97SAPS  H12X 9721   4.685   5.696   8.217  0.5248 -0.1495  1.0127
   97SAPS  H12Y 9722   4.731   5.514   8.197  0.4848 -0.6951 -0.4724
   97SAPS  C313 9723   4.517   5.560   8.215  0.2478 -0.2211  0.3705
   97SAPS  H13X 9724   4.475   5.474   8.159 -0.3921  0.2999  0.0426
   97SAPS  H13Y 9725   4.445   5.638   8.184  0.0662 -0.3675  0.4225
   97SAPS  C314 9726   4.521   5.555   8.372  0.8597  0.1324 -0.4042
   97SAPS  H14X 9727   4.571   5.647   8.410  1.7102 -0.1742 -0.7610
   97SAPS  H14Y 9728   4.573   5.464   8.409 -0.3269 -0.4740 -0.2017
   97SAPS  C315 9729   4.382   5.552   8.437  0.2907  0.7976 -0.8149
   97SAPS  H15X 9730   4.393   5.511   8.540 -2.9618  3.2305  0.6657
   97SAPS  H15Y 9731   4.313   5.497   8.369 -1.3195  1.8703 -0.0928
   97SAPS  C316 9732   4.313   5.687   8.462  0.3406 -0.7049 -0.0736
   97SAPS  H16X 9733   4.273   5.729   8.367 -2.3019  1.0485  1.6577
   97SAPS  H16Y 9734   4.373   5.761   8.518  0.4261 -0.1526 -0.8813
   97SAPS  C317 9735   4.188   5.671   8.550 -0.1545 -0.2941  0.1440
   97SAPS  H17X 9736   4.209   5.618   8.645 -1.4938 -1.1245  0.0022
   97SAPS  H17Y 9737   4.106   5.619   8.496  0.7596  0.3352 -1.9755
   97SAPS  C318 9738   4.140   5.810   8.597  0.5934 -0.7934  0.1401
   97SAPS  H18X 9739   4.123   5.884   8.515  1.8381 -0.7981 -0.1479
   97SAPS  H18Y 9740   4.218   5.873   8.644  1.0471 -0.7427 -0.6598
   97SAPS  H18Z 9741   4.050   5.801   8.662 -0.8055 -1.8085 -1.8218
   98SAPS     N 9742   2.383   6.046   6.272 -0.0880  0.3316 -0.6302
   98SAPS   HN1 9743   2.336   5.957   6.297  0.3071  0.2116 -0.3060
   98SAPS   HN2 9744   2.483   6.049   6.302  0.1229 -1.7239 -0.9842
   98SAPS   HN3 9745   2.329   6.127   6.306 -0.7912 -0.3433 -0.1055
   98SAPS   C12 9746   2.384   6.049   6.123 -0.3936  0.7356  0.0029
   98SAPS  H12A 9747   2.376   6.154   6.099  0.3703  1.4754  2.6400
   98SAPS   C13 9748   2.516   6.000   6.059  0.2694 -0.3652  0.3032
   98SAPS  O13A 9749   2.588   5.922   6.132  0.1048  0.5358 -0.1505
   98SAPS  O13B 9750   2.534   6.009   5.934  0.5860 -0.0634  0.1354
   98SAPS   C11 9751   2.253   5.978   6.075  0.5886  0.1457 -0.2624
   98SAPS  H11A 9752   2.259   5.875   6.117  0.6323  0.3552  0.2461
   98SAPS  H11B 9753   2.261   5.959   5.966 -1.3641 -1.2715 -0.2298
   98SAPS     P 9754   1.983   5.999   6.084 -0.3235  0.1697  0.2464
   98SAPS   O13 9755   1.897   6.072   6.174 -0.1836 -0.0646  0.0844
   98SAPS   O14 9756   1.946   5.987   5.941 -0.2112 -0.0193 -0.1853
   98SAPS   O12 9757   2.136   6.052   6.102  0.1841  0.0141 -0.0704
   98SAPS   O11 9758   2.002   5.857   6.152 -0.4043  0.1856 -0.0591
   98SAPS    C1 9759   1.902   5.759   6.144  0.6444  0.0691 -0.1426
   98SAPS    HA 9760   1.798   5.799   6.147  0.2331 -0.8617 -1.2190
   98SAPS    HB 9761   1.912   5.690   6.057 -0.5215 -2.2254  1.4519
   98SAPS    C2 9762   1.905   5.675   6.281  0.1901 -0.2125  0.0497
   98SAPS    HS 9763   1.803   5.632   6.294  0.2151 -0.8628 -1.6764
   98SAPS   O21 9764   1.942   5.762   6.387 -0.2277  0.1751 -0.2430
   98SAPS   C21 9765   1.844   5.811   6.467 -0.1030 -0.1390  0.3867
   98SAPS   O22 9766   1.726   5.787   6.445  0.3979  0.6275  0.1832
   98SAPS   C22 9767   1.911   5.902   6.565  0.3037 -0.3056  0.8625
   98SAPS   H2R 9768   2.022   5.899   6.564  0.4048  1.6922  0.2971
   98SAPS   H2S 9769   1.893   6.008   6.537 -0.7802 -0.4805  0.8358
   98SAPS    C3 9770   2.012   5.565   6.265 -0.4045 -0.0254 -0.8532
   98SAPS    HX 9771   2.112   5.609   6.244 -0.7460  2.2429  1.6912
   98SAPS    HY 9772   1.990   5.504   6.174  0.5872  0.4193 -1.4084
   98SAPS   O31 9773   2.018   5.477   6.383 -0.3225  0.0069 -0.5015
   98SAPS   C31 9774   2.084   5.513   6.493 -0.3801 -0.3491 -0.9942
   98SAPS   O32 9775   2.150   5.621   6.505 -0.2230 -0.2746 -1.2183
   98SAPS   C32 9776   2.096   5.397   6.593  0.0902 -0.7802 -0.4342
   98SAPS   H2X 9777   2.206   5.383   6.606 -0.1881 -2.4913  0.3308
   98SAPS   H2Y 9778   2.056   5.300   6.556  2.0642 -1.2393 -1.5008
   98SAPS   C23 9779   1.866   5.874   6.711 -0.5026  0.1955  0.0617
   98SAPS   H3R 9780   1.888   5.776   6.757 -1.6884  0.2978  0.8808
   98SAPS   H3S 9781   1.757   5.893   6.721 -0.2956  0.9798  1.1074
   98SAPS   C24 9782   1.919   5.979   6.812  0.2901  1.2207 -0.0687
   98SAPS   H4R 9783   1.898   6.072   6.756 -2.7048 -0.8619 -2.7621
   98SAPS   H4S 9784   2.028   5.963   6.827  0.2925 -1.0264 -1.8946
   98SAPS   C25 9785   1.841   5.977   6.941  0.0410 -0.1101 -0.1130
   98SAPS   H5R 9786   1.748   6.034   6.936 -0.8898 -1.5826  0.0032
   98SAPS   C26 9787   1.874   5.915   7.055 -0.0211 -0.7500 -0.4695
   98SAPS   H6R 9788   1.801   5.909   7.137  1.2316 -1.6779  0.6046
   98SAPS   C27 9789   2.001   5.837   7.086 -0.0638 -0.1981  0.0072
   98SAPS   H7R 9790   2.090   5.901   7.104 -1.0639  1.0459  0.6639
   98SAPS   H7S 9791   2.028   5.785   6.992 -1.2534 -0.1766 -0.3572
   98SAPS   C28 9792   1.969   5.739   7.200  0.1455  0.3730 -0.3336
   98SAPS   H8R 9793   1.922   5.651   7.153 -0.4186  0.9342 -0.8502
   98SAPS   C29 9794   1.989   5.751   7.337  0.3511  0.4574 -0.2880
   98SAPS   H9R 9795   1.972   5.671   7.411  0.2245  0.8685  0.1293
   98SAPS  C210 9796   2.047   5.870   7.396 -0.2484 -0.4843  0.6676
   98SAPS  H10R 9797   2.143   5.890   7.344 -0.1154 -2.3937  0.0790
   98SAPS  H10S 9798   2.071   5.857   7.504  2.0118  2.9947  0.7426
   98SAPS  C211 9799   1.959   5.996   7.402 -0.5097 -0.3530 -0.0666
   98SAPS  H11R 9800   1.948   6.050   7.307 -2.2221 -2.6031 -1.2443
   98SAPS  C212 9801   1.896   6.033   7.515  0.9084  0.4125 -0.0650
   98SAPS  H12R 9802   1.817   6.110   7.508  0.5065  0.0675  0.5275
   98SAPS  C213 9803   1.908   5.974   7.655  0.2835  0.5622  0.0701
   98SAPS  H13R 9804   1.862   6.047   7.725 -0.1510  0.1208  0.2453
   98SAPS  H13S 9805   2.017   5.966   7.674 -0.1638 -0.1254  2.7252
   98SAPS  C214 9806   1.843   5.840   7.682  0.4248 -0.5565 -0.6918
   98SAPS  H14R 9807   1.842   5.776   7.592 -0.5791 -3.2364  1.0819
   98SAPS  C215 9808   1.782   5.801   7.792  0.0715 -0.1489  0.1469
   98SAPS  H15R 9809   1.752   5.695   7.796  1.4464 -0.7372 -2.6456
   98SAPS  C216 9810   1.759   5.886   7.918  0.0554  0.2557  0.4256
   98SAPS  H16R 9811   1.740   5.989   7.884 -0.7162 -0.1931 -0.5521
   98SAPS  H16S 9812   1.854   5.890   7.976  2.0932 -0.5234 -2.6632
   98SAPS  C217 9813   1.660   5.828   8.021  0.2283 -0.8852  0.1570
   98SAPS  H17R 9814   1.687   5.725   8.056 -0.4114 -0.4715  1.9675
   98SAPS  H17S 9815   1.558   5.825   7.978 -0.5495 -0.0499  1.8415
   98SAPS  C218 9816   1.650   5.913   8.152  0.6663 -0.7215 -0.6076
   98SAPS  H18R 9817   1.641   6.019   8.118  0.9172 -1.3963 -2.8934
   98SAPS  H18S 9818   1.746   5.907   8.209 -0.6611 -0.8060  1.7437
   98SAPS  C219 9819   1.539   5.872   8.255 -0.3716  0.3422 -0.1916
   98SAPS  H19R 9820   1.576   5.788   8.317 -0.8008  0.2266 -0.0849
   98SAPS  H19S 9821   1.441   5.845   8.209 -0.8641 -0.1942  1.1257
   98SAPS  C220 9822   1.511   5.987   8.353 -0.6792 -0.5272 -0.1578
   98SAPS  H20R 9823   1.597   5.999   8.422  0.6383 -2.7465 -1.2888
   98SAPS  H20S 9824   1.413   5.974   8.404 -0.9915 -0.3811 -0.7179
   98SAPS  H20T 9825   1.503   6.084   8.299  1.6137 -0.6333 -0.7946
   98SAPS   C33 9826   2.037   5.432   6.736 -0.5797 -0.1659 -0.3128
   98SAPS   H3X 9827   1.927   5.434   6.721 -0.8254  3.1085  1.0735
   98SAPS   H3Y 9828   2.066   5.536   6.764 -0.2466 -0.3025 -0.1584
   98SAPS   C34 9829   2.075   5.331   6.848  0.2108 -0.3534  0.1384
   98SAPS   H4X 9830   2.184   5.344   6.864  0.2938  1.8782 -1.6857
   98SAPS   H4Y 9831   2.053   5.231   6.806 -0.0406  0.3266 -1.4191
   98SAPS   C35 9832   2.014   5.360   6.982 -0.6985 -0.4695  0.4428
   98SAPS   H5X 9833   1.903   5.360   6.975 -0.6857 -0.9726  0.2030
   98SAPS   H5Y 9834   2.040   5.464   7.011  1.0385 -1.0219  1.0077
   98SAPS   C36 9835   2.048   5.261   7.100 -0.4383 -0.6664 -0.1513
   98SAPS   H6X 9836   2.158   5.246   7.099  0.6658  4.4901  4.0603
   98SAPS   H6Y 9837   2.001   5.168   7.061  1.1308 -1.3600 -0.4860
   98SAPS   C37 9838   2.001   5.312   7.238 -0.2657 -0.3739  0.3023
   98SAPS   H7X 9839   1.903   5.364   7.228 -0.1965 -0.4975 -1.2049
   98SAPS   H7Y 9840   2.058   5.403   7.264  1.8630 -1.2704 -0.9570
   98SAPS   C38 9841   2.009   5.200   7.337  0.4784  0.1167 -0.5661
   98SAPS   H8X 9842   2.108   5.149   7.339  0.8049  0.7645  0.1024
   98SAPS   H8Y 9843   1.932   5.127   7.307 -0.9795  2.2184 -2.2666
   98SAPS   C39 9844   1.968   5.252   7.479 -1.0649  0.5843  0.3252
   98SAPS   H9X 9845   1.967   5.169   7.552  1.1760  0.1070 -0.0962
   98SAPS   H9Y 9846   1.869   5.302   7.470 -0.6407  1.4606  0.4206
   98SAPS  C310 9847   2.072   5.351   7.533 -0.1354 -0.0034  0.1504
   98SAPS  H10X 9848   2.068   5.447   7.478 -1.6726 -0.8657 -1.3166
   98SAPS  H10Y 9849   2.171   5.300   7.537  0.1539  0.6097  1.7679
   98SAPS  C311 9850   2.038   5.393   7.683 -0.1149 -0.1733  0.5996
   98SAPS  H11X 9851   2.013   5.299   7.736  0.2501 -1.4971 -1.4747
   98SAPS  H11Y 9852   1.946   5.455   7.680  0.2142  0.3245  0.4742
   98SAPS  C312 9853   2.148   5.471   7.749 -0.4801 -0.0068  0.8768
   98SAPS  H12X 9854   2.162   5.564   7.689  0.5612  1.0778  2.6981
   98SAPS  H12Y 9855   2.236   5.403   7.750 -0.8424 -0.4944  2.5357
   98SAPS  C313 9856   2.112   5.508   7.896  0.1626 -0.2032  0.5037
   98SAPS  H13X 9857   2.005   5.537   7.900  0.3264  1.1703 -2.5276
   98SAPS  H13Y 9858   2.175   5.593   7.930 -2.0790  1.1302  1.5881
   98SAPS  C314 9859   2.132   5.387   7.991 -0.0275 -0.3405 -0.1172
   98SAPS  H14X 9860   2.240   5.393   8.017  0.1261 -1.8447 -0.3326
   98SAPS  H14Y 9861   2.121   5.293   7.933 -0.2046  1.1460 -2.6731
   98SAPS  C315 9862   2.051   5.394   8.120 -0.0114 -0.2311 -1.0311
   98SAPS  H15X 9863   2.067   5.315   8.196 -0.3408  0.3046 -0.3935
   98SAPS  H15Y 9864   1.946   5.378   8.086 -0.6056  2.6008 -0.7857
   98SAPS  C316 9865   2.056   5.531   8.181  0.0162 -0.2416  0.0686
   98SAPS  H16X 9866   1.998   5.602   8.118  0.0722 -1.3177 -1.2377
   98SAPS  H16Y 9867   2.158   5.571   8.198 -0.2562 -0.0364  1.3096
   98SAPS  C317 9868   1.991   5.528   8.318 -0.2850 -0.2009  0.2639
   98SAPS  H17X 9869   2.047   5.453   8.378  3.0858 -1.0514 -3.5422
   98SAPS  H17Y 9870   1.884   5.500   8.307 -0.5643  0.6777  0.6683
   98SAPS  C318 9871   1.987   5.662   8.391 -0.1726 -0.3790 -0.7761
   98SAPS  H18X 9872   2.085   5.713   8.405  0.3193 -1.7692  1.4340
   98SAPS  H18Y 9873   1.947   5.650   8.495  0.5279 -1.2655 -0.5892
   98SAPS  H18Z 9874   1.926   5.738   8.339 -0.7807  0.9667  1.7306
   99SAPS     N 9875   1.269   2.484   5.857 -0.4793  0.1745 -0.1341
   99SAPS   HN1 9876   1.176   2.515   5.889 -0.2258 -1.7482  2.9261
   99SAPS   HN2 9877   1.270   2.466   5.754 -1.9250 -1.3929  0.0848
   99SAPS   HN3 9878   1.295   2.406   5.921  0.1079 -0.3491 -0.9758
   99SAPS   C12 9879   1.352   2.603   5.900  0.2388  0.6805 -0.1722
   99SAPS  H12A 9880   1.457   2.579   5.901 -0.1004 -0.9221 -0.5917
   99SAPS   C13 9881   1.354   2.724   5.804 -0.1448  0.4021 -0.4926
   99SAPS  O13A 9882   1.279   2.720   5.706 -0.6139 -0.4345  0.3004
   99SAPS  O13B 9883   1.424   2.829   5.828 -0.7964  0.6164  0.1662
   99SAPS   C11 9884   1.311   2.653   6.042  0.1072  0.6387  0.0899
   99SAPS  H11A 9885   1.201   2.668   6.044  0.1282  1.3406  3.7695
   99SAPS  H11B 9886   1.345   2.757   6.060  0.2142  0.3135  2.0081
   99SAPS     P 9887   1.314   2.444   6.210  0.3067  0.1966 -0.3985
   99SAPS   O13 9888   1.253   2.369   6.101 -0.0001  0.3984  0.1959
   99SAPS   O14 9889   1.427   2.379   6.282 -0.2354 -0.4858 -0.0061
   99SAPS   O12 9890   1.368   2.571   6.145  0.1138 -0.3795 -0.5532
   99SAPS   O11 9891   1.202   2.486   6.319  0.0492  0.0629  0.5040
   99SAPS    C1 9892   1.194   2.623   6.363 -0.7036  0.1112  0.3116
   99SAPS    HA 9893   1.287   2.661   6.409  0.1700 -1.4497 -0.0909
   99SAPS    HB 9894   1.175   2.689   6.275  3.0217 -0.4182 -1.0803
   99SAPS    C2 9895   1.084   2.639   6.474  0.0665 -1.0066  0.8886
   99SAPS    HS 9896   1.076   2.742   6.515  0.2316 -0.5964 -0.0797
   99SAPS   O21 9897   1.093   2.542   6.580 -0.3095  0.4338 -0.0796
   99SAPS   C21 9898   1.195   2.562   6.667 -0.1374  0.0699 -0.3744
   99SAPS   O22 9899   1.280   2.648   6.655  0.8501 -0.1761  0.0239
   99SAPS   C22 9900   1.176   2.472   6.791 -0.1064  0.0504  0.1464
   99SAPS   H2R 9901   1.259   2.399   6.800 -2.3544 -2.5665  1.0116
   99SAPS   H2S 9902   1.184   2.534   6.883 -2.2924  2.1187 -0.9556
   99SAPS    C3 9903   0.948   2.617   6.412 -0.5030  0.4470  0.5333
   99SAPS    HX 9904   0.964   2.519   6.362  1.4429  1.4954 -1.0361
   99SAPS    HY 9905   0.922   2.682   6.326 -0.8107 -1.1460 -0.6210
   99SAPS   O31 9906   0.841   2.622   6.503 -0.1248  0.3597  0.5712
   99SAPS   C31 9907   0.800   2.509   6.550 -0.2181  0.0824 -0.3560
   99SAPS   O32 9908   0.845   2.396   6.521  0.1891 -0.2549 -0.6752
   99SAPS   C32 9909   0.683   2.542   6.642  0.6115  0.3051  0.1540
   99SAPS   H2X 9910   0.585   2.557   6.591 -0.5810 -1.0964  1.9242
   99SAPS   H2Y 9911   0.703   2.637   6.697 -0.2666  1.0224 -0.7242
   99SAPS   C23 9912   1.035   2.395   6.798  0.0596 -0.6625  0.3792
   99SAPS   H3R 9913   1.035   2.344   6.699 -3.3153 -1.1118  0.5240
   99SAPS   H3S 9914   0.956   2.473   6.791 -0.0162 -0.8221 -0.9442
   99SAPS   C24 9915   1.009   2.307   6.922  0.0672  0.3986 -0.3818
   99SAPS   H4R 9916   0.915   2.250   6.906 -0.9874  1.6372  1.1674
   99SAPS   H4S 9917   0.990   2.369   7.012  0.4555 -0.4327  0.2838
   99SAPS   C25 9918   1.117   2.206   6.946 -0.7438 -0.1280  0.1249
   99SAPS   H5R 9919   1.151   2.158   6.852  2.2161 -1.7736  1.8742
   99SAPS   C26 9920   1.172   2.177   7.065  0.4405  0.1440  0.1892
   99SAPS   H6R 9921   1.260   2.111   7.065  0.4089  0.0986 -0.0686
   99SAPS   C27 9922   1.136   2.236   7.199 -0.0759  0.3732  0.5167
   99SAPS   H7R 9923   1.026   2.227   7.212  0.1605 -1.3400  1.6297
   99SAPS   H7S 9924   1.161   2.342   7.175  2.7414  0.3631  2.8856
   99SAPS   C28 9925   1.194   2.179   7.323 -0.3027  0.3012  0.1842
   99SAPS   H8R 9926   1.243   2.084   7.298  0.6393  1.1784 -1.4707
   99SAPS   C29 9927   1.181   2.223   7.450 -0.4819  0.3334 -0.1023
   99SAPS   H9R 9928   1.223   2.167   7.535  0.6238  1.7465  0.3240
   99SAPS  C210 9929   1.118   2.352   7.493 -0.3852 -0.0071  0.2566
   99SAPS  H10R 9930   1.117   2.423   7.407  2.3195  0.6353  0.6822
   99SAPS  H10S 9931   1.170   2.397   7.580  0.7546 -1.1909  0.2093
   99SAPS  C211 9932   0.976   2.328   7.547  0.2040 -0.1029  0.3137
   99SAPS  H11R 9933   0.922   2.247   7.496  1.5547 -1.1430  0.4840
   99SAPS  C212 9934   0.914   2.392   7.648  0.5443 -0.3247  0.4072
   99SAPS  H12R 9935   0.820   2.353   7.689  0.5579  2.9792  4.1819
   99SAPS  C213 9936   0.955   2.514   7.726 -0.3208  0.2739  0.6513
   99SAPS  H13R 9937   1.013   2.576   7.655 -0.6592  1.2535  1.2139
   99SAPS  H13S 9938   1.036   2.481   7.794  0.6259  1.1798 -0.0093
   99SAPS  C214 9939   0.851   2.600   7.791 -0.0988 -0.2206 -0.1757
   99SAPS  H14R 9940   0.854   2.598   7.901  1.1533 -0.1877 -0.1920
   99SAPS  C215 9941   0.757   2.673   7.723 -0.0929 -0.0945  0.4726
   99SAPS  H15R 9942   0.697   2.742   7.784 -0.7054 -0.0585 -0.1522
   99SAPS  C216 9943   0.730   2.670   7.578 -0.5239  0.0161  0.4367
   99SAPS  H16R 9944   0.819   2.635   7.521  1.8987  0.2331  3.7512
   99SAPS  H16S 9945   0.720   2.774   7.539  1.0760 -1.0463 -3.2305
   99SAPS  C217 9946   0.625   2.572   7.526  0.0661  0.2622 -0.6635
   99SAPS  H17R 9947   0.529   2.598   7.576  0.8245 -2.1815  2.3672
   99SAPS  H17S 9948   0.632   2.466   7.559 -2.1300 -0.5629 -2.6085
   99SAPS  C218 9949   0.621   2.552   7.375  0.1331 -1.0293 -0.1909
   99SAPS  H18R 9950   0.599   2.655   7.338 -0.4039 -0.2273  2.2160
   99SAPS  H18S 9951   0.526   2.497   7.356 -0.8320  0.7205 -0.6732
   99SAPS  C219 9952   0.743   2.497   7.307  0.2076 -0.2372 -0.4009
   99SAPS  H19R 9953   0.761   2.395   7.348  0.4625  0.4336  1.2395
   99SAPS  H19S 9954   0.837   2.553   7.326  1.4478 -2.3827  0.1537
   99SAPS  C220 9955   0.728   2.476   7.155 -0.0156 -0.4572  0.6949
   99SAPS  H20R 9956   0.714   2.568   7.096  0.3832 -0.5748  0.4106
   99SAPS  H20S 9957   0.640   2.411   7.136  1.4887 -2.8007  1.1930
   99SAPS  H20T 9958   0.817   2.430   7.106 -0.5046 -0.0996 -0.5609
   99SAPS   C33 9959   0.655   2.438   6.753 -0.9730 -0.1888 -0.1895
   99SAPS   H3X 9960   0.581   2.486   6.821  1.6953  1.9674  1.4337
   99SAPS   H3Y 9961   0.743   2.412   6.814 -0.7862  0.0400 -0.3577
   99SAPS   C34 9962   0.594   2.310   6.704  0.1034  0.5590 -0.2337
   99SAPS   H4X 9963   0.637   2.286   6.604  1.9965  1.7569  0.2305
   99SAPS   H4Y 9964   0.484   2.309   6.691 -0.0087 -1.5458  0.5933
   99SAPS   C35 9965   0.627   2.189   6.785  0.7253  0.0410 -0.6387
   99SAPS   H5X 9966   0.732   2.174   6.819  1.2724 -1.7456 -2.8326
   99SAPS   H5Y 9967   0.621   2.099   6.720  0.5941  0.9258 -1.8850
   99SAPS   C36 9968   0.526   2.168   6.901  0.2209 -0.1383  0.6678
   99SAPS   H6X 9969   0.465   2.079   6.873  2.0988 -1.2822 -0.0148
   99SAPS   H6Y 9970   0.476   2.265   6.922 -2.7601 -1.5683  0.6468
   99SAPS   C37 9971   0.595   2.135   7.033  0.6146  0.4318  0.3576
   99SAPS   H7X 9972   0.694   2.185   7.044  1.1986 -0.0163 -2.1214
   99SAPS   H7Y 9973   0.608   2.025   7.037 -2.5463 -0.0177  0.3074
   99SAPS   C38 9974   0.520   2.165   7.160  0.1183  0.3603 -0.5027
   99SAPS   H8X 9975   0.425   2.108   7.148 -0.7868  1.3490  1.5577
   99SAPS   H8Y 9976   0.495   2.273   7.160  2.1097  0.8602 -0.2595
   99SAPS   C39 9977   0.592   2.132   7.287  0.3484  0.0980  0.3423
   99SAPS   H9X 9978   0.669   2.212   7.290 -0.2079  0.7004 -0.8899
   99SAPS   H9Y 9979   0.631   2.028   7.287 -0.4960 -0.2749  2.4584
   99SAPS  C310 9980   0.507   2.135   7.417 -0.2363 -0.6035  0.7755
   99SAPS  H10X 9981   0.432   2.053   7.416 -1.9305  0.8388  1.7793
   99SAPS  H10Y 9982   0.455   2.233   7.408 -1.2577 -1.2234 -0.3163
   99SAPS  C311 9983   0.583   2.132   7.553  0.5984  0.0778 -0.2680
   99SAPS  H11X 9984   0.674   2.195   7.543  0.1963  0.9420  1.2304
   99SAPS  H11Y 9985   0.614   2.027   7.574 -0.6681  0.1144  2.1393
   99SAPS  C312 9986   0.501   2.183   7.673 -0.0135 -0.0872 -0.4289
   99SAPS  H12X 9987   0.407   2.125   7.687 -0.1767  0.2685 -0.0493
   99SAPS  H12Y 9988   0.472   2.289   7.653  1.1200  0.8600  2.4499
   99SAPS  C313 9989   0.582   2.169   7.797 -0.1520 -1.0233 -0.4249
   99SAPS  H13X 9990   0.661   2.247   7.806 -1.0912 -0.0223 -0.6048
   99SAPS  H13Y 9991   0.641   2.076   7.787 -0.3136 -1.0365 -1.3571
   99SAPS  C314 9992   0.496   2.179   7.926  0.1355  0.4262 -0.4685
   99SAPS  H14X 9993   0.444   2.082   7.943  1.4750  0.0539  1.9742
   99SAPS  H14Y 9994   0.426   2.265   7.935 -0.2623 -0.0343  1.3738
   99SAPS  C315 9995   0.594   2.175   8.046  0.6497  0.2599  0.5869
   99SAPS  H15X 9996   0.651   2.270   8.037 -0.1632  0.5400 -2.5529
   99SAPS  H15Y 9997   0.656   2.084   8.032  1.2156  0.8036 -0.6436
   99SAPS  C316 9998   0.508   2.166   8.178  0.0223 -0.4276 -0.1674
   99SAPS  H16X 9999   0.455   2.068   8.187 -0.1748 -0.3699 -0.6495
   99SAPS  H16Y10000   0.431   2.247   8.177  2.4475  1.9995 -0.5675
   99SAPS  C31710001   0.595   2.172   8.306 -0.0964 -0.0029  0.8101
   99SAPS  H17X10002   0.644   2.272   8.303  2.4870 -1.2339 -0.5538
   99SAPS  H17Y10003   0.683   2.106   8.297 -0.1509 -0.3341  2.4952
   99SAPS  C31810004   0.531   2.164   8.441  0.2496 -0.0343 -0.5479
   99SAPS  H18X10005   0.601   2.182   8.526  1.4125  0.5042 -1.5873
   99SAPS  H18Y10006   0.476   2.068   8.447 -0.2396  0.0837 -2.4530
   99SAPS  H18Z10007   0.449   2.239   8.434 -0.1662 -0.4771 -0.4220
  100SAPS     N10008   4.692   4.615   5.943  0.7842  0.0945  0.2267
  100SAPS   HN110009   4.694   4.517   5.910 -1.8706  0.3099 -0.7900
  100SAPS   HN210010   4.674   4.688   5.870 -2.1766 -1.0902 -0.3682
  100SAPS   HN310011   4.777   4.628   6.001 -0.2501 -1.5916  2.2229
  100SAPS   C1210012   4.572   4.626   6.037  0.3743 -0.7105 -0.3182
  100SAPS  H12A10013   4.577   4.720   6.090  0.9180 -0.5550 -0.6412
  100SAPS   C1310014   4.437   4.611   5.968  0.5070  1.0715 -0.0808
  100SAPS  O13A10015   4.428   4.615   5.841  0.6137  0.1802  0.1544
  100SAPS  O13B10016   4.330   4.635   6.037  0.1536 -0.3500  0.2165
  100SAPS   C1110017   4.589   4.513   6.137 -0.1815  0.0257 -0.2523
  100SAPS  H11A10018   4.503   4.510   6.208 -1.7478 -1.8479 -2.0948
  100SAPS  H11B10019   4.678   4.531   6.201  0.2353 -2.2230 -0.1024
  100SAPS     P10020   4.541   4.249   6.105 -0.0457  0.1947 -0.4827
  100SAPS   O1310021   4.400   4.247   6.061  0.4904 -0.8022 -0.6290
  100SAPS   O1410022   4.627   4.146   6.044 -0.1276  0.0273 -0.3157
  100SAPS   O1210023   4.605   4.386   6.066  0.8179 -0.3915  0.1184
  100SAPS   O1110024   4.551   4.242   6.260 -0.2297  0.4559  0.8055
  100SAPS    C110025   4.451   4.177   6.335  0.2802  0.1537 -0.4959
  100SAPS    HA10026   4.347   4.217   6.326 -0.5576 -1.9245 -0.4557
  100SAPS    HB10027   4.450   4.069   6.309  2.5056  0.8781 -4.3223
  100SAPS    C210028   4.481   4.195   6.491  0.0839  0.0549  0.6755
  100SAPS    HS10029   4.581   4.242   6.501 -0.5136  0.9423  3.2215
  100SAPS   O2110030   4.471   4.070   6.550  0.4166  0.1156 -0.5489
  100SAPS   C2110031   4.576   3.991   6.531  0.5317 -0.6202 -0.2561
  100SAPS   O2210032   4.675   4.021   6.468  0.9253  0.1495 -0.3953
  100SAPS   C2210033   4.547   3.850   6.582  0.1146  0.8512 -0.3977
  100SAPS   H2R10034   4.437   3.851   6.597  0.0427 -1.3309 -0.4977
  100SAPS   H2S10035   4.568   3.778   6.500 -2.4510 -0.1857 -0.2346
  100SAPS    C310036   4.392   4.299   6.554  0.5018 -0.6865  0.5687
  100SAPS    HX10037   4.288   4.276   6.519  0.2390 -0.0824  0.9395
  100SAPS    HY10038   4.414   4.398   6.509 -2.5665 -0.0716  0.1635
  100SAPS   O3110039   4.380   4.310   6.698  0.6507 -0.0578 -0.2100
  100SAPS   C3110040   4.493   4.338   6.765  0.4823  0.3521 -0.3593
  100SAPS   O3210041   4.604   4.351   6.726  0.2908  0.0348  0.1980
  100SAPS   C3210042   4.452   4.366   6.915  0.4374  0.7791  0.7686
  100SAPS   H2X10043   4.392   4.285   6.961 -1.1748  0.8838 -1.0516
  100SAPS   H2Y10044   4.368   4.438   6.904  0.1399  0.2040 -1.0721
  100SAPS   C2310045   4.611   3.805   6.721  0.7634 -0.1779 -0.1616
  100SAPS   H3R10046   4.722   3.815   6.720  0.7266  0.2619 -0.6144
  100SAPS   H3S10047   4.579   3.702   6.746 -0.2693  0.3689  0.8361
  100SAPS   C2410048   4.539   3.893   6.828 -0.1384  0.8316  0.1319
  100SAPS   H4R10049   4.430   3.881   6.811 -0.2607 -0.7952  1.7810
  100SAPS   H4S10050   4.572   3.999   6.832  1.4213  0.3414  2.8256
  100SAPS   C2510051   4.585   3.831   6.963 -0.2410 -0.4653  0.5273
  100SAPS   H5R10052   4.572   3.722   6.962  0.6596 -0.5826  1.0092
  100SAPS   C2610053   4.632   3.893   7.075 -0.4752  0.1092  0.2652
  100SAPS   H6R10054   4.640   3.822   7.159  0.7057  0.1511  0.2017
  100SAPS   C2710055   4.651   4.040   7.106 -0.2921  0.1581 -0.1183
  100SAPS   H7R10056   4.558   4.074   7.156 -0.0967 -0.0724  0.4022
  100SAPS   H7S10057   4.676   4.089   7.009 -0.1919 -2.4721 -1.5228
  100SAPS   C2810058   4.767   4.035   7.215  0.7957 -0.6625  0.4326
  100SAPS   H8R10059   4.864   4.037   7.164 -0.0660 -0.0642 -1.2843
  100SAPS   C2910060   4.767   4.020   7.349  0.3731  0.1069 -0.3401
  100SAPS   H9R10061   4.866   4.023   7.398  0.6125  1.5300 -0.8672
  100SAPS  C21010062   4.645   4.025   7.442 -0.9677  0.5318  0.5857
  100SAPS  H10R10063   4.624   3.928   7.493 -0.7465  0.9850  1.5539
  100SAPS  H10S10064   4.556   4.040   7.377 -0.7271 -0.0086  0.1197
  100SAPS  C21110065   4.660   4.136   7.542 -0.0120 -0.2595 -0.2559
  100SAPS  H11R10066   4.706   4.229   7.506 -1.0576 -0.1868 -1.4543
  100SAPS  C21210067   4.622   4.141   7.670  0.1936  0.7009  0.0603
  100SAPS  H12R10068   4.644   4.222   7.741  1.7197 -0.9812  1.5958
  100SAPS  C21310069   4.549   4.027   7.739  0.0075  0.3442 -0.0721
  100SAPS  H13R10070   4.478   3.986   7.664 -0.1904 -1.0955  0.8777
  100SAPS  H13S10071   4.509   4.081   7.828  0.3383  2.1386 -0.9567
  100SAPS  C21410072   4.629   3.908   7.782 -0.0820  0.2166  0.3990
  100SAPS  H14R10073   4.681   3.853   7.702  0.4397  2.0444 -0.5630
  100SAPS  C21510074   4.622   3.846   7.899 -0.0637  0.8776  0.3847
  100SAPS  H15R10075   4.685   3.757   7.904  1.3350  1.7998 -0.0764
  100SAPS  C21610076   4.546   3.894   8.022  0.0324  0.0995  0.2617
  100SAPS  H16R10077   4.491   3.807   8.063  0.7965  0.5000  2.2514
  100SAPS  H16S10078   4.463   3.958   7.985  0.4506 -0.9847 -2.8473
  100SAPS  C21710079   4.626   3.965   8.136 -0.3087 -0.2061  0.1141
  100SAPS  H17R10080   4.658   4.068   8.108 -1.7172  1.1240  2.9969
  100SAPS  H17S10081   4.718   3.913   8.170  0.4000  1.7090  1.3346
  100SAPS  C21810082   4.532   3.989   8.252 -0.1898  0.0371 -0.3605
  100SAPS  H18R10083   4.487   3.899   8.300  1.0429 -0.0868  0.6327
  100SAPS  H18S10084   4.452   4.053   8.210  1.2928  0.1291 -3.3161
  100SAPS  C21910085   4.590   4.067   8.370  0.2229  0.5758 -0.8845
  100SAPS  H19R10086   4.608   4.165   8.320  0.3041  0.1923 -1.6266
  100SAPS  H19S10087   4.680   4.012   8.405  0.0508  0.7993 -0.0679
  100SAPS  C22010088   4.493   4.073   8.486  0.2726 -0.1909 -0.4098
  100SAPS  H20R10089   4.387   4.096   8.460 -0.0438 -2.1832 -1.0670
  100SAPS  H20S10090   4.530   4.153   8.554  1.5525 -0.3593 -0.8936
  100SAPS  H20T10091   4.488   3.981   8.548 -0.1933 -1.6328 -2.4873
  100SAPS   C3310092   4.572   4.410   7.004  0.7785 -0.2457  0.0302
  100SAPS   H3X10093   4.631   4.488   6.952  1.6564  0.0689  1.4681
  100SAPS   H3Y10094   4.638   4.322   7.008 -0.4157 -1.2889 -1.6436
  100SAPS   C3410095   4.526   4.463   7.140 -0.2167 -0.0855 -0.7957
  100SAPS   H4X10096   4.468   4.382   7.188 -1.5555  1.3416  0.0788
  100SAPS   H4Y10097   4.467   4.555   7.121  0.9851  1.3967  2.1208
  100SAPS   C3510098   4.638   4.496   7.239 -0.0647 -0.0502  0.0185
  100SAPS   H5X10099   4.701   4.581   7.204 -0.6500  0.4048  0.0536
  100SAPS   H5Y10100   4.704   4.413   7.273 -0.1095  0.2886  0.9831
  100SAPS   C3610101   4.565   4.526   7.376 -0.0753 -0.3257  0.6066
  100SAPS   H6X10102   4.515   4.433   7.411  1.6926 -1.4067  0.3489
  100SAPS   H6Y10103   4.487   4.604   7.357  0.6541  0.1049 -0.7443
  100SAPS   C3710104   4.666   4.591   7.472  0.2685  0.6173 -0.0085
  100SAPS   H7X10105   4.692   4.690   7.428 -0.3930  0.4713 -0.7623
  100SAPS   H7Y10106   4.756   4.528   7.488  0.7484  1.3754  0.3219
  100SAPS   C3810107   4.609   4.603   7.619 -0.4715  0.0617  0.4278
  100SAPS   H8X10108   4.592   4.509   7.676  1.9692 -0.4095  0.4703
  100SAPS   H8Y10109   4.510   4.653   7.606 -1.5720 -1.4016  2.6288
  100SAPS   C3910110   4.704   4.682   7.709  0.2707  0.7509  0.6945
  100SAPS   H9X10111   4.712   4.787   7.673  1.1718  0.5498  0.2840
  100SAPS   H9Y10112   4.808   4.644   7.705  0.6099  1.7616 -1.1168
  100SAPS  C31010113   4.643   4.684   7.846  0.1711 -0.3982 -0.5943
  100SAPS  H10X10114   4.598   4.584   7.865  0.9424 -0.9870 -1.7558
  100SAPS  H10Y10115   4.567   4.764   7.836  0.5053 -0.0745 -0.5651
  100SAPS  C31110116   4.743   4.722   7.951 -0.2710  0.0384  0.7965
  100SAPS  H11X10117   4.760   4.832   7.943 -0.0603 -0.1415 -3.1047
  100SAPS  H11Y10118   4.837   4.663   7.946  0.6015  1.3852  0.8478
  100SAPS  C31210119   4.677   4.705   8.087  0.0019 -0.1556  0.8898
  100SAPS  H12X10120   4.647   4.600   8.104  1.9738 -1.1760 -1.3372
  100SAPS  H12Y10121   4.585   4.767   8.082 -0.6528 -1.2190 -1.3448
  100SAPS  C31310122   4.762   4.760   8.203  0.3976 -0.8878  0.8239
  100SAPS  H13X10123   4.826   4.844   8.169 -2.3517  0.2262 -2.1083
  100SAPS  H13Y10124   4.825   4.676   8.238  1.3870 -0.5817 -0.1790
  100SAPS  C31410125   4.682   4.823   8.321  0.0066 -0.6981  0.6414
  100SAPS  H14X10126   4.613   4.751   8.369  0.3391 -1.5494 -0.1286
  100SAPS  H14Y10127   4.612   4.897   8.276  0.8682 -1.2701 -1.8413
  100SAPS  C31510128   4.777   4.887   8.423  0.0755 -0.4184  0.9530
  100SAPS  H15X10129   4.842   4.962   8.373 -1.6133 -0.3251 -1.2450
  100SAPS  H15Y10130   4.852   4.809   8.452  1.6384  0.4938 -0.4588
  100SAPS  C31610131   4.701   4.946   8.542 -0.1957  0.4385  0.5115
  100SAPS  H16X10132   4.769   4.931   8.629 -0.6462 -1.6120  0.5794
  100SAPS  H16Y10133   4.609   4.890   8.567  0.7467 -0.5700  1.9263
  100SAPS  C31710134   4.679   5.096   8.516  0.1213  0.4105  0.4179
  100SAPS  H17X10135   4.608   5.103   8.431  0.2913  0.7518  0.3025
  100SAPS  H17Y10136   4.775   5.145   8.486 -0.6996  0.9846 -1.4537
  100SAPS  C31810137   4.615   5.175   8.635  0.1972  0.1251 -0.2641
  100SAPS  H18X10138   4.576   5.265   8.583 -0.3556 -0.5479 -1.0303
  100SAPS  H18Y10139   4.692   5.213   8.705  1.7211 -3.0692 -0.0372
  100SAPS  H18Z10140   4.534   5.115   8.679  0.1417 -0.1616 -0.7480
  101OSM      N10141   2.785   5.590  11.363  0.1266  0.2861 -0.2183
  101OSM    C1510142   2.673   5.510  11.418  0.2791  0.7369 -0.2365
  101OSM   H15A10143   2.619   5.467  11.335  1.0668 -1.0513  0.1268
  101OSM   H15B10144   2.613   5.571  11.483  0.4773 -0.8725  1.5510
  101OSM   H15C10145   2.706   5.425  11.477 -0.6625  0.2526 -0.3875
  101OSM    C1410146   2.858   5.654  11.472 -0.2843 -0.0284 -0.2379
  101OSM   H14A10147   2.905   5.584  11.539  0.4444 -1.0644 -1.7753
  101OSM   H14B10148   2.803   5.727  11.530 -0.6886 -0.9416  0.5459
  101OSM   H14C10149   2.930   5.712  11.416  2.1095 -1.3377  1.2977
  101OSM    C1310150   2.868   5.492  11.287  0.0832 -0.6106  0.3034
  101OSM   H13A10151   2.967   5.529  11.262 -0.3759  1.0166  0.7665
  101OSM   H13B10152   2.813   5.459  11.201  0.0863 -0.4712  0.2478
  101OSM   H13C10153   2.881   5.406  11.351  0.8649 -0.7954 -0.0836
  101OSM    C1210154   2.726   5.702  11.275  0.3597 -0.2076 -0.2474
  101OSM   H12A10155   2.804   5.764  11.233 -1.3441  1.2283 -1.4326
  101OSM   H12B10156   2.669   5.765  11.342 -0.6393 -2.4020  1.0891
  101OSM    C1110157   2.632   5.664  11.158 -0.2113 -0.6716 -0.6461
  101OSM   H11A10158   2.573   5.747  11.115  1.0028  0.0444 -0.9927
  101OSM   H11B10159   2.554   5.594  11.195  0.4949 -0.5353  1.1920
  101OSM      P10160   2.787   5.710  10.956  0.0901 -0.3946 -0.6270
  101OSM    O1310161   2.696   5.827  10.941 -0.1786 -0.3945 -0.3100
  101OSM    O1410162   2.916   5.732  11.016 -0.1193 -0.6848 -0.3826
  101OSM    O1110163   2.795   5.645  10.817  0.2002 -0.0713  0.4450
  101OSM    O1210164   2.703   5.607  11.049  0.2222  0.3119 -0.0032
  101OSM    C1S10165   2.690   5.564  10.765 -0.6353  0.1323  0.3848
  101OSM    H1S10166   2.587   5.592  10.798 -1.3308 -1.9945  0.2147
  101OSM    H1T10167   2.718   5.465  10.808  2.1574  1.6835  2.4493
  101OSM     NF10168   2.574   5.483  10.556  0.2343 -0.4027  0.1298
  101OSM    HNF10169   2.569   5.384  10.549 -2.0695 -0.5193  2.2783
  101OSM    C2S10170   2.694   5.554  10.605  0.3259 -0.2844  0.1259
  101OSM    H2S10171   2.686   5.660  10.575 -2.1847 -0.0227  1.3974
  101OSM    C3S10172   2.832   5.496  10.561 -0.5283  0.1988 -0.3094
  101OSM    H3S10173   2.834   5.387  10.584 -2.7879 -0.4598 -2.7540
  101OSM     O310174   2.948   5.549  10.624 -0.4519  0.0176  0.1691
  101OSM    HO310175   2.903   5.595  10.695  0.6705  1.0649  0.2293
  101OSM    C4S10176   2.845   5.519  10.413 -0.7687  0.9883 -0.7321
  101OSM    H4S10177   2.852   5.623  10.379  2.4176  0.1811 -3.1069
  101OSM    C5S10178   2.855   5.422  10.322 -0.5264  0.1550 -0.4661
  101OSM    H5S10179   2.857   5.318  10.356 -1.1930  0.8363  1.8073
  101OSM    C6S10180   2.885   5.452  10.175  0.0317  0.7115  0.0118
  101OSM    H6S10181   2.979   5.402  10.143 -1.7228 -0.7682 -3.3166
  101OSM    H6T10182   2.908   5.561  10.168  2.1136  0.7077  3.9052
  101OSM    C7S10183   2.768   5.390  10.093 -0.4292  0.9977  0.4143
  101OSM    H7S10184   2.666   5.431  10.104 -1.1317 -0.0780 -1.6541
  101OSM    H7T10185   2.758   5.283  10.119 -1.1843  0.2900 -2.4471
  101OSM    C8S10186   2.797   5.377   9.943  0.1143  0.7493 -0.8322
  101OSM    H8S10187   2.723   5.311   9.891  0.1291 -1.5677  1.8682
  101OSM    H8T10188   2.889   5.318   9.926 -1.1803 -1.3283 -1.0377
  101OSM    C9S10189   2.790   5.513   9.871  0.6835 -0.0395 -0.2661
  101OSM    H9S10190   2.850   5.583   9.934  1.4601 -1.5545  0.7221
  101OSM    H9T10191   2.684   5.548   9.870  0.7802  0.2613 -0.1160
  101OSM   C10S10192   2.835   5.518   9.726 -0.5912  0.3766  0.5798
  101OSM   H10S10193   2.942   5.486   9.724 -0.5030  0.6828  0.0712
  101OSM   H10T10194   2.838   5.622   9.688 -1.7960  0.3053  0.2662
  101OSM   C11S10195   2.741   5.444   9.627  0.4956 -0.2539 -0.3632
  101OSM   H11S10196   2.636   5.481   9.625  0.2343 -0.9333  0.4057
  101OSM   H11T10197   2.728   5.339   9.660  0.6586 -0.3733 -0.6822
  101OSM   C12S10198   2.792   5.469   9.479  0.3663  0.8637  0.0611
  101OSM   H12S10199   2.896   5.431   9.469 -0.3145 -1.7620  1.9055
  101OSM   H12T10200   2.788   5.578   9.459  2.3270  1.1212  0.8565
  101OSM   C13S10201   2.714   5.378   9.377 -0.0540 -0.0149 -0.7453
  101OSM   H13S10202   2.608   5.404   9.399 -0.1978 -1.9324  1.1932
  101OSM   H13T10203   2.720   5.269   9.398  0.4456  0.2387  0.4873
  101OSM   C14S10204   2.762   5.412   9.238 -0.5291 -0.5610 -0.0900
  101OSM   H14S10205   2.865   5.374   9.231  0.4562  1.5774  1.5737
  101OSM   H14T10206   2.755   5.523   9.228 -0.2673 -0.3250  1.9155
  101OSM   C15S10207   2.671   5.334   9.142 -0.2199 -0.5397 -1.0122
  101OSM   H15S10208   2.568   5.373   9.152 -0.1455 -0.4405 -0.6294
  101OSM   H15T10209   2.668   5.232   9.186  0.0602  0.5152  1.5758
  101OSM   C16S10210   2.721   5.346   8.996  0.0964  0.4372  0.4442
  101OSM   H16S10211   2.821   5.308   8.969 -0.7129 -0.1267 -2.0484
  101OSM   H16T10212   2.730   5.453   8.965 -1.0893 -0.6289 -4.3795
  101OSM   C17S10213   2.621   5.268   8.911 -0.1990 -0.4096 -0.1152
  101OSM   H17S10214   2.521   5.317   8.909  0.9229  2.0108 -1.4838
  101OSM   H17T10215   2.608   5.169   8.959 -1.8903 -0.5593 -0.8331
  101OSM   C18S10216   2.678   5.235   8.771 -0.2272 -0.4042  0.1566
  101OSM   H18S10217   2.768   5.173   8.792  0.6243  0.8310  0.3064
  101OSM   H18T10218   2.695   5.321   8.702 -0.2945 -0.5127  0.0058
  101OSM   H18U10219   2.599   5.181   8.715 -0.9814  0.9454 -0.1110
  101OSM    C1F10220   2.461   5.550  10.532  0.3335 -0.2763 -0.2957
  101OSM     OF10221   2.443   5.665  10.570  0.5749 -0.4555 -0.1770
  101OSM    C2F10222   2.352   5.476  10.461 -0.3407  0.0063 -0.6059
  101OSM    H2F10223   2.265   5.461  10.529 -2.5014 -1.4454 -3.4545
  101OSM    H2G10224   2.399   5.378  10.440  1.7385  0.9810 -0.7714
  101OSM    C3F10225   2.303   5.533  10.334  0.1027  0.6675  1.1086
  101OSM    H3F10226   2.243   5.626  10.340  0.2700  0.8823 -0.3598
  101OSM    H3G10227   2.242   5.456  10.283 -1.5800  1.1268  2.3435
  101OSM    C4F10228   2.412   5.571  10.235 -0.4867 -0.2930  0.8888
  101OSM    H4F10229   2.498   5.505  10.258 -0.6838 -0.2882  1.6769
  101OSM    H4G10230   2.454   5.671  10.261 -0.2811  0.3178 -1.5310
  101OSM    C5F10231   2.363   5.593  10.088  0.1827  0.6554 -0.2593
  101OSM    H5F10232   2.340   5.497  10.038 -0.7380  0.7388 -0.0168
  101OSM    H5G10233   2.450   5.640  10.036 -0.2876  0.9326 -0.8170
  101OSM    C6F10234   2.240   5.681  10.064 -0.6840  0.3656 -0.4044
  101OSM    H6F10235   2.261   5.785  10.097 -0.9005  0.0921  0.6240
  101OSM    H6G10236   2.169   5.645  10.140 -0.6551  2.1403  0.5200
  101OSM    C7F10237   2.182   5.674   9.927  0.0979  0.2766  0.2547
  101OSM    H7F10238   2.143   5.573   9.900  1.5319  0.2983 -2.1646
  101OSM    H7G10239   2.254   5.697   9.846 -1.0808  1.5115 -0.4873
  101OSM    C8F10240   2.076   5.790   9.919  0.1295  0.5520 -0.6321
  101OSM    H8F10241   2.001   5.787  10.001 -1.3995 -0.8197 -2.0141
  101OSM    H8G10242   2.012   5.752   9.836 -0.9257 -1.7192  1.1147
  101OSM    C9F10243   2.120   5.932   9.896  0.2625 -0.0489 -0.2543
  101OSM    H9F10244   2.086   6.005   9.970 -0.7524  0.3867 -1.1252
  101OSM   C10F10245   2.181   5.973   9.775  0.5404  0.1971  0.0142
  101OSM   H10F10246   2.211   6.076   9.750  1.2618  0.0469  0.2274
  101OSM   C11F10247   2.211   5.888   9.656  0.6831  0.2720 -0.1928
  101OSM   H11F10248   2.177   5.783   9.669  0.2469  0.3785 -0.4483
  101OSM   H11G10249   2.320   5.888   9.636  0.2232  0.9260 -3.1502
  101OSM   C12F10250   2.131   5.930   9.524  0.1191 -0.4442  0.0852
  101OSM   H12F10251   2.172   6.029   9.496 -0.6837  0.0679  0.6647
  101OSM   H12G10252   2.021   5.932   9.540 -0.2223 -1.7923 -1.8476
  101OSM   C13F10253   2.155   5.825   9.422 -0.0263 -0.1404 -0.1953
  101OSM   H13F10254   2.094   5.740   9.458 -2.3838  1.2914 -0.5896
  101OSM   H13G10255   2.259   5.787   9.411 -0.7630 -1.8442 -2.0875
  101OSM   C14F10256   2.103   5.875   9.279 -0.5950 -0.6809  0.1073
  101OSM   H14F10257   1.992   5.883   9.278 -0.6491 -1.3458  0.1479
  101OSM   H14G10258   2.129   5.787   9.216  0.6400 -0.2327 -0.0392
  101OSM   C15F10259   2.185   5.991   9.220 -0.2562  0.2416 -0.0759
  101OSM   H15F10260   2.289   5.967   9.250 -1.0546 -1.1740  1.7716
  101OSM   H15G10261   2.156   6.087   9.268  0.4610  0.0174  0.8444
  101OSM   C16F10262   2.191   6.000   9.069  0.0194 -0.3617  0.6250
  101OSM   H16F10263   2.092   6.001   9.019  1.1073 -0.0091 -1.6409
  101OSM   H16G10264   2.251   5.920   9.021 -0.5963  0.5931 -1.8864
  101OSM   C17F10265   2.265   6.128   9.017 -0.2488  0.1401 -0.5278
  101OSM   H17F10266   2.328   6.157   9.103  1.8471 -3.5383 -0.6354
  101OSM   H17G10267   2.190   6.208   8.997  1.1487  1.3921 -0.9515
  101OSM   C18F10268   2.351   6.107   8.886 -0.2299 -0.1502 -0.6014
  101OSM   H18F10269   2.396   6.197   8.839 -2.3651  1.6117  0.5289
  101OSM   H18G10270   2.294   6.046   8.812 -2.2812  1.1453 -0.1657
  101OSM   H18H10271   2.441   6.053   8.921  0.2586  1.6432  1.0693
  102OSM      N10272   1.524   4.413  11.149  0.1393  0.3275  0.1568
  102OSM    C1510273   1.518   4.266  11.174  0.3093 -0.4615  0.2332
  102OSM   H15A10274   1.615   4.220  11.163  0.3545 -0.1202 -0.9892
  102OSM   H15B10275   1.469   4.223  11.088  0.5342 -0.7201  0.2353
  102OSM   H15C10276   1.476   4.243  11.271 -0.0056 -0.8529  0.0065
  102OSM    C1410277   1.380   4.466  11.139  0.0237 -0.2300  0.0298
  102OSM   H14A10278   1.367   4.571  11.158 -1.0492  0.0747 -2.1238
  102OSM   H14B10279   1.319   4.418  11.215  1.0869  0.1213  1.1455
  102OSM   H14C10280   1.338   4.451  11.041 -0.3837 -0.1464  0.1874
  102OSM    C1310281   1.588   4.473  11.270  0.1472  0.6318  0.2845
  102OSM   H13A10282   1.604   4.579  11.268  1.0481  0.5643  1.9489
  102OSM   H13B10283   1.681   4.419  11.280 -1.0808 -1.4000  1.7488
  102OSM   H13C10284   1.524   4.446  11.353  1.7151 -3.6827  0.3551
  102OSM    C1210285   1.600   4.449  11.025  0.5555  0.4869 -0.1317
  102OSM   H12A10286   1.700   4.407  11.025  0.2762 -0.1894  0.1233
  102OSM   H12B10287   1.617   4.556  11.027  1.3007  0.3732  0.5728
  102OSM    C1110288   1.536   4.403  10.892 -0.5825 -0.0429 -0.3095
  102OSM   H11A10289   1.594   4.443  10.806 -1.6788 -0.7814 -1.4293
  102OSM   H11B10290   1.440   4.459  10.880 -1.0398 -0.7793 -0.1371
  102OSM      P10291   1.624   4.154  10.850 -0.0898 -0.1590 -0.1504
  102OSM    O1310292   1.743   4.157  10.936 -0.0062 -0.5628  0.1781
  102OSM    O1410293   1.544   4.029  10.843  0.0380  0.9174  0.3099
  102OSM    O1110294   1.676   4.175  10.701  0.0943  0.2153  0.4291
  102OSM    O1210295   1.517   4.264  10.885 -0.3076 -0.3859 -0.4041
  102OSM    C1S10296   1.574   4.188  10.601  0.3762  0.6893 -0.1785
  102OSM    H1S10297   1.499   4.265  10.629 -0.5479 -0.1023 -0.3868
  102OSM    H1T10298   1.515   4.094  10.588 -1.8949  1.9242  0.5198
  102OSM     NF10299   1.537   4.246  10.355  0.1897  0.0928 -0.1605
  102OSM    HNF10300   1.572   4.200  10.274  0.4189  2.0424 -1.2193
  102OSM    C2S10301   1.634   4.234  10.469  0.3187  0.1935 -0.2784
  102OSM    H2S10302   1.677   4.336  10.482  0.0099  0.3757 -0.6677
  102OSM    C3S10303   1.759   4.142  10.429 -0.0457  0.5875  0.6560
  102OSM    H3S10304   1.715   4.040  10.436  1.1230  0.0507  0.4881
  102OSM     O310305   1.865   4.128  10.527 -0.4686  0.1157  0.2111
  102OSM    HO310306   1.826   4.159  10.608 -1.5009  2.3487 -1.0460
  102OSM    C4S10307   1.819   4.175  10.295 -0.1394 -0.0413  0.0013
  102OSM    H4S10308   1.825   4.280  10.264  1.4686 -0.2420 -0.4605
  102OSM    C5S10309   1.842   4.090  10.194  0.6779 -0.7608  0.0802
  102OSM    H5S10310   1.818   3.983  10.202 -2.5314 -0.0705  1.4798
  102OSM    C6S10311   1.894   4.138  10.060 -0.3693  0.0279 -0.1891
  102OSM    H6S10312   1.972   4.068  10.022 -0.6056 -0.5068  0.2954
  102OSM    H6T10313   1.950   4.234  10.068 -0.2751  0.2863 -2.9222
  102OSM    C7S10314   1.782   4.171   9.964  0.4794  0.5258  0.1804
  102OSM    H7S10315   1.728   4.249  10.021 -0.4303 -0.8667  1.3022
  102OSM    H7T10316   1.712   4.084   9.962  1.1619 -0.0251 -0.2492
  102OSM    C8S10317   1.831   4.225   9.830  0.0884  0.0165  0.6233
  102OSM    H8S10318   1.923   4.168   9.804 -0.5079 -0.9522  0.5590
  102OSM    H8T10319   1.852   4.334   9.833 -1.6996  0.5327 -1.8246
  102OSM    C9S10320   1.725   4.197   9.716  0.3556  0.5174 -0.2567
  102OSM    H9S10321   1.625   4.242   9.733 -0.8716 -2.2437  0.5170
  102OSM    H9T10322   1.703   4.088   9.718  0.6379  0.4514 -0.6839
  102OSM   C10S10323   1.775   4.225   9.578  0.7138 -0.1702 -0.0094
  102OSM   H10S10324   1.861   4.158   9.560 -0.1215 -1.9661  2.2605
  102OSM   H10T10325   1.822   4.325   9.568 -0.3509  0.3560  0.0617
  102OSM   C11S10326   1.674   4.226   9.465  0.5875  0.2345 -0.0948
  102OSM   H11S10327   1.644   4.331   9.449 -0.8502 -0.1539 -0.0233
  102OSM   H11T10328   1.582   4.171   9.493  0.2548  0.0135 -1.5216
  102OSM   C12S10329   1.715   4.162   9.330  0.0070  0.0035 -0.1869
  102OSM   H12S10330   1.768   4.068   9.354 -2.0361 -0.7429  1.7323
  102OSM   H12T10331   1.785   4.233   9.281  0.2411  0.3969  0.6934
  102OSM   C13S10332   1.597   4.145   9.248  0.3316  0.8703  0.4431
  102OSM   H13S10333   1.545   4.241   9.229 -0.9703  0.5195  2.0711
  102OSM   H13T10334   1.523   4.079   9.298  0.8084  1.1311  1.5071
  102OSM   C14S10335   1.634   4.097   9.101 -0.2556 -0.3844 -0.3582
  102OSM   H14S10336   1.541   4.088   9.041  0.6069 -0.3103 -1.7701
  102OSM   H14T10337   1.678   3.996   9.107 -1.3948 -0.7857  4.0823
  102OSM   C15S10338   1.723   4.203   9.022 -0.0864 -1.2022 -1.0147
  102OSM   H15S10339   1.817   4.227   9.077 -0.4831  0.9610 -1.1617
  102OSM   H15T10340   1.664   4.296   9.007 -1.4760 -1.6546  1.1404
  102OSM   C16S10341   1.766   4.138   8.893  0.3109  0.0551  0.5541
  102OSM   H16S10342   1.678   4.091   8.843  0.9268  0.6901 -1.2068
  102OSM   H16T10343   1.833   4.052   8.913 -1.9900 -1.9014  0.3412
  102OSM   C17S10344   1.834   4.237   8.791 -0.3364  0.3607  0.0264
  102OSM   H17S10345   1.938   4.270   8.808 -0.3464  1.0876 -1.2267
  102OSM   H17T10346   1.770   4.327   8.783 -2.6835 -1.2236 -0.1333
  102OSM   C18S10347   1.841   4.161   8.656 -0.5827  0.6937 -0.0345
  102OSM   H18S10348   1.922   4.086   8.648  0.0255  1.4677 -1.4026
  102OSM   H18T10349   1.877   4.228   8.576  1.3012  0.9046  0.9319
  102OSM   H18U10350   1.742   4.117   8.632  0.1004 -1.5543  1.0257
  102OSM    C1F10351   1.440   4.332  10.360 -0.4495 -0.5995  1.0333
  102OSM     OF10352   1.424   4.406  10.459 -0.6068  0.1903 -0.2708
  102OSM    C2F10353   1.363   4.346  10.242  0.1569  0.1561  0.2108
  102OSM    H2F10354   1.281   4.417  10.266  0.6046  0.2229  1.6387
  102OSM    H2G10355   1.317   4.247  10.224 -1.3459  0.5900  1.4447
  102OSM    C3F10356   1.437   4.395  10.120  0.2802 -0.3905  0.5713
  102OSM    H3F10357   1.520   4.324  10.097 -1.3692 -1.6007 -2.1219
  102OSM    H3G10358   1.473   4.499  10.136  1.1718 -0.6975  0.6403
  102OSM    C4F10359   1.348   4.410   9.997  0.6566  0.0779  0.0992
  102OSM    H4F10360   1.278   4.493  10.020  1.0717 -0.2455  3.0065
  102OSM    H4G10361   1.279   4.324   9.991 -1.2696  1.3969  1.8979
  102OSM    C5F10362   1.413   4.438   9.866 -1.1006  0.0766  0.5438
  102OSM    H5F10363   1.496   4.366   9.853 -1.0284 -0.1707  2.1039
  102OSM    H5G10364   1.457   4.540   9.868  0.4567 -0.4443 -2.2810
  102OSM    C6F10365   1.322   4.414   9.752  0.1296 -0.2219  0.6377
  102OSM    H6F10366   1.237   4.485   9.751  0.0198 -0.3478  0.8361
  102OSM    H6G10367   1.278   4.312   9.745 -1.9225  0.5749  1.0619
  102OSM    C7F10368   1.394   4.441   9.616  0.5984 -0.2947  0.3689
  102OSM    H7F10369   1.467   4.360   9.594  1.1772 -0.0596  1.3845
  102OSM    H7G10370   1.460   4.528   9.636  0.8904 -1.1267  3.6067
  102OSM    C8F10371   1.300   4.461   9.493  0.4960  0.0888  0.4596
  102OSM    H8F10372   1.236   4.548   9.520 -0.1937 -1.1053  2.9409
  102OSM    H8G10373   1.222   4.383   9.493  1.0773 -0.5047  0.8076
  102OSM    C9F10374   1.367   4.483   9.361  0.8923 -0.0263 -0.1333
  102OSM    H9F10375   1.414   4.581   9.345 -1.0464  0.8725 -0.5937
  102OSM   C10F10376   1.344   4.410   9.252  0.4533 -0.1532 -0.0762
  102OSM   H10F10377   1.393   4.438   9.157  0.0956  0.0314 -0.2084
  102OSM   C11F10378   1.265   4.279   9.247 -0.5387 -0.1421 -0.6518
  102OSM   H11F10379   1.255   4.234   9.348  1.2099 -0.1293 -0.4396
  102OSM   H11G10380   1.318   4.199   9.190 -1.1559 -1.3384  0.4045
  102OSM   C12F10381   1.132   4.297   9.192  0.3483  0.4079 -0.2515
  102OSM   H12F10382   1.071   4.381   9.233 -1.3049 -0.0845 -1.5995
  102OSM   H12G10383   1.081   4.201   9.213 -0.6877  1.2326  1.2645
  102OSM   C13F10384   1.141   4.328   9.040 -0.3705  0.2235 -0.1429
  102OSM   H13F10385   1.196   4.247   8.988  1.6463  0.6449  1.2154
  102OSM   H13G10386   1.199   4.422   9.026 -1.9653  1.0082 -2.0442
  102OSM   C14F10387   1.008   4.359   8.972  0.2217 -0.0965 -0.3668
  102OSM   H14F10388   1.044   4.386   8.870  0.6507  0.8329  0.0103
  102OSM   H14G10389   0.959   4.449   9.015  0.1480  0.1041 -0.8571
  102OSM   C15F10390   0.922   4.240   8.975 -0.8186 -0.0203  0.3380
  102OSM   H15F10391   0.884   4.209   9.075 -0.7182 -1.2411  0.0244
  102OSM   H15G10392   0.987   4.152   8.954 -0.5919  0.5858 -1.7449
  102OSM   C16F10393   0.802   4.230   8.873 -0.1391  0.1684 -0.5551
  102OSM   H16F10394   0.791   4.124   8.844 -0.4527 -0.0472  0.3179
  102OSM   H16G10395   0.819   4.279   8.775  1.4433 -0.5664 -0.6683
  102OSM   C17F10396   0.675   4.289   8.939  0.1974 -0.1205  0.3666
  102OSM   H17F10397   0.686   4.399   8.946 -0.1781 -0.1178  0.9348
  102OSM   H17G10398   0.666   4.249   9.042  0.7680 -1.2033  0.0136
  102OSM   C18F10399   0.544   4.264   8.859  0.3087  0.9344  0.0691
  102OSM   H18F10400   0.445   4.286   8.905  0.2766  1.7892 -0.3805
  102OSM   H18G10401   0.551   4.162   8.816 -0.1530  1.2795 -0.8540
  102OSM   H18H10402   0.545   4.339   8.777 -1.3961  1.2135  0.2665
  103OSM      N10403   3.191   2.833  10.947  0.0938  0.3241 -0.0229
  103OSM    C1510404   3.105   2.959  10.961  0.2345 -0.9453  0.0617
  103OSM   H15A10405   3.080   2.979  11.064 -1.3254 -0.7473 -0.3347
  103OSM   H15B10406   3.014   2.954  10.903  0.6974  0.2831 -0.8261
  103OSM   H15C10407   3.153   3.051  10.930 -0.8681 -0.9045 -1.6567
  103OSM    C1410408   3.095   2.723  10.965  0.1036  1.0694  0.6691
  103OSM   H14A10409   3.017   2.729  10.891  0.6856 -0.1424 -0.0798
  103OSM   H14B10410   3.046   2.720  11.062 -0.1337  0.9338  0.5471
  103OSM   H14C10411   3.140   2.625  10.977 -3.4573 -0.7786  0.4236
  103OSM    C1310412   3.256   2.823  10.814  0.3574  0.7226  0.2736
  103OSM   H13A10413   3.321   2.909  10.803 -0.4232  1.3182  0.2343
  103OSM   H13B10414   3.185   2.835  10.734  0.1033  1.1582  0.5559
  103OSM   H13C10415   3.314   2.733  10.806  2.8183  2.2597 -0.3078
  103OSM    C1210416   3.292   2.819  11.056  0.0015  0.1518  0.2047
  103OSM   H12A10417   3.246   2.833  11.153 -3.2995 -0.6730 -1.1357
  103OSM   H12B10418   3.370   2.893  11.043 -0.8193  0.9584 -0.1847
  103OSM    C1110419   3.373   2.682  11.071 -1.0630 -0.3038 -0.4394
  103OSM   H11A10420   3.299   2.603  11.094 -0.9131 -0.6286 -1.0426
  103OSM   H11B10421   3.439   2.689  11.160  3.0525 -1.0252 -3.1474
  103OSM      P10422   3.449   2.490  10.901  0.3632 -0.0937 -0.0257
  103OSM    O1310423   3.550   2.413  10.970 -0.1203  0.3491 -0.6058
  103OSM    O1410424   3.307   2.448  10.902  0.6886  0.0105  0.3639
  103OSM    O1110425   3.497   2.504  10.752  0.1088 -0.1643  0.3464
  103OSM    O1210426   3.457   2.639  10.962  0.7914  0.3218 -0.1445
  103OSM    C1S10427   3.556   2.628  10.705  0.3368  0.7535 -0.2528
  103OSM    H1S10428   3.648   2.657  10.760  0.8946 -2.2623  0.6184
  103OSM    H1T10429   3.484   2.712  10.707 -1.1879 -0.3729 -2.6096
  103OSM     NF10430   3.680   2.723  10.516 -0.0242 -0.5415 -0.2847
  103OSM    HNF10431   3.636   2.786  10.453  1.9569 -0.6724 -1.8943
  103OSM    C2S10432   3.597   2.610  10.558  0.1534 -0.4073 -0.4124
  103OSM    H2S10433   3.657   2.516  10.555  0.8775  0.0001  0.8020
  103OSM    C3S10434   3.467   2.579  10.473 -0.0941 -0.1479 -0.0363
  103OSM    H3S10435   3.402   2.668  10.488  2.5386  1.7146  1.2360
  103OSM     O310436   3.392   2.468  10.514  0.1199  0.1106  0.0570
  103OSM    HO310437   3.423   2.469  10.604  2.1142  1.0469 -0.5725
  103OSM    C4S10438   3.504   2.554  10.322  0.2691  0.0139 -0.9308
  103OSM    H4S10439   3.551   2.457  10.301  0.9872  0.3073 -0.7019
  103OSM    C5S10440   3.488   2.643  10.226 -0.5399 -0.4410 -0.7676
  103OSM    H5S10441   3.442   2.740  10.250  1.3956  0.6112 -1.1497
  103OSM    C6S10442   3.524   2.619  10.082  0.2441  0.8164 -0.2862
  103OSM    H6S10443   3.630   2.589  10.070  0.1214  0.4962 -0.6072
  103OSM    H6T10444   3.510   2.708  10.016 -0.8870  0.8979  0.0466
  103OSM    C7S10445   3.466   2.500  10.008  0.6085 -0.2006 -0.7925
  103OSM    H7S10446   3.484   2.412  10.073 -0.4904  0.4160  0.3842
  103OSM    H7T10447   3.507   2.474   9.908 -0.4929 -1.5067 -0.9383
  103OSM    C8S10448   3.311   2.505  10.000  0.5685 -0.5017  0.6328
  103OSM    H8S10449   3.261   2.547  10.090 -2.3473 -1.2679 -0.4968
  103OSM    H8T10450   3.274   2.401   9.987  2.4689 -1.0056 -1.3137
  103OSM    C9S10451   3.248   2.585   9.880 -0.0421 -0.0992 -0.1910
  103OSM    H9S10452   3.284   2.688   9.897 -2.0311  0.3448  1.7631
  103OSM    H9T10453   3.137   2.587   9.881 -0.2117 -3.2094 -0.7563
  103OSM   C10S10454   3.298   2.552   9.738  0.3086  0.1356 -0.2532
  103OSM   H10S10455   3.409   2.554   9.738  0.3001  1.2135 -0.0297
  103OSM   H10T10456   3.268   2.638   9.674  1.8128 -0.1970 -1.4843
  103OSM   C11S10457   3.247   2.417   9.676  0.6187 -0.2312  0.3187
  103OSM   H11S10458   3.289   2.324   9.720  1.9823  0.3177  0.2261
  103OSM   H11T10459   3.287   2.416   9.572  1.2875  1.2618  0.5319
  103OSM   C12S10460   3.092   2.421   9.656 -0.2647  0.0917 -0.1440
  103OSM   H12S10461   3.073   2.517   9.603  1.7974 -1.0236 -3.1427
  103OSM   H12T10462   3.049   2.401   9.757 -1.4749  0.6760 -0.5208
  103OSM   C13S10463   3.052   2.309   9.566 -0.1695 -0.2010  0.4101
  103OSM   H13S10464   2.955   2.257   9.582 -0.6526 -0.0110 -1.6004
  103OSM   H13T10465   3.131   2.232   9.578 -0.0084 -0.4509 -1.7955
  103OSM   C14S10466   3.056   2.355   9.419  0.5722 -0.2065  0.1526
  103OSM   H14S10467   3.160   2.392   9.405  1.8896 -2.4485  2.9950
  103OSM   H14T10468   2.981   2.435   9.401 -1.6811 -2.3875 -0.7091
  103OSM   C15S10469   3.039   2.238   9.322 -0.0982 -0.1782  0.2247
  103OSM   H15S10470   2.938   2.195   9.307 -0.9374  1.3789  1.0849
  103OSM   H15T10471   3.100   2.159   9.371  0.1710 -0.0102  0.1634
  103OSM   C16S10472   3.099   2.255   9.184 -0.3027  0.1841 -0.0129
  103OSM   H16S10473   3.130   2.157   9.141  2.6443 -0.0701  2.3514
  103OSM   H16T10474   3.188   2.319   9.201 -1.1151  2.0264 -2.1882
  103OSM   C17S10475   3.004   2.305   9.070  0.7315  0.2676  0.2209
  103OSM   H17S10476   2.965   2.404   9.102  1.8845  0.8290 -0.0833
  103OSM   H17T10477   2.916   2.237   9.064  0.6546  0.3364  0.5417
  103OSM   C18S10478   3.076   2.313   8.935  0.6580  0.1047  0.4025
  103OSM   H18S10479   3.141   2.403   8.935 -1.2400  1.5408  1.3407
  103OSM   H18T10480   2.999   2.311   8.855  1.6969 -0.2792 -0.6209
  103OSM   H18U10481   3.150   2.230   8.928 -1.1712 -1.6170  0.5584
  103OSM    C1F10482   3.803   2.736  10.564 -0.1697 -0.0966  0.2452
  103OSM     OF10483   3.848   2.664  10.654  0.1160 -0.2966  0.4788
  103OSM    C2F10484   3.878   2.860  10.511 -0.7061 -0.2457 -0.8560
  103OSM    H2F10485   3.926   2.908  10.599 -1.2440 -2.0097  0.4476
  103OSM    H2G10486   3.813   2.940  10.468 -2.5766 -2.1115 -1.6814
  103OSM    C3F10487   3.991   2.827  10.413  0.1092  0.6401 -0.4657
  103OSM    H3F10488   4.057   2.748  10.454 -0.0749  0.7641  0.0779
  103OSM    H3G10489   4.051   2.917  10.387 -0.2810  1.1201  0.2574
  103OSM    C4F10490   3.947   2.788  10.271 -0.0112  0.2472 -1.0002
  103OSM    H4F10491   3.875   2.862  10.228 -2.3249 -1.7595 -0.8264
  103OSM    H4G10492   3.886   2.696  10.257 -3.3829  2.6975 -4.7039
  103OSM    C5F10493   4.070   2.763  10.180 -0.3643 -0.0511 -0.0242
  103OSM    H5F10494   4.140   2.698  10.237  0.3324  0.1471 -0.6417
  103OSM    H5G10495   4.123   2.858  10.155  2.2225 -2.3025 -4.1296
  103OSM    C6F10496   4.041   2.688  10.049  0.6439  0.2239  0.6998
  103OSM    H6F10497   3.993   2.588  10.059  1.1740  0.1240  2.7807
  103OSM    H6G10498   4.139   2.653  10.012  0.4741 -0.4442  0.8639
  103OSM    C7F10499   3.958   2.773   9.949 -0.0510  0.8502  0.3321
  103OSM    H7F10500   4.017   2.860   9.916 -1.8403  1.4022 -1.6436
  103OSM    H7G10501   3.857   2.796   9.991 -0.5651 -0.9490  0.1775
  103OSM    C8F10502   3.922   2.691   9.820  0.0396 -0.4709  0.1221
  103OSM    H8F10503   3.877   2.759   9.745  0.1915 -1.3334 -0.7806
  103OSM    H8G10504   3.856   2.607   9.852  0.2293  0.2572  2.5989
  103OSM    C9F10505   4.047   2.637   9.756 -0.0972 -0.8631  0.0331
  103OSM    H9F10506   4.091   2.558   9.818 -0.7484 -0.4684  1.0257
  103OSM   C10F10507   4.113   2.681   9.647 -0.6431  0.2885 -0.0087
  103OSM   H10F10508   4.205   2.634   9.607 -1.3228 -1.1824  0.0926
  103OSM   C11F10509   4.073   2.811   9.568 -0.3974 -0.1325  0.0579
  103OSM   H11F10510   4.090   2.903   9.629  0.1200 -1.7513  2.4798
  103OSM   H11G10511   3.967   2.815   9.535  0.3166  1.0429 -2.3699
  103OSM   C12F10512   4.143   2.845   9.430 -0.4580  0.5162  0.0601
  103OSM   H12F10513   4.250   2.823   9.451 -0.9614 -0.5573  1.6630
  103OSM   H12G10514   4.138   2.955   9.414 -1.5365  0.3704 -0.7758
  103OSM   C13F10515   4.109   2.754   9.315  0.2000  0.3836  0.1314
  103OSM   H13F10516   4.136   2.648   9.337  0.9891  0.9167  1.8761
  103OSM   H13G10517   3.999   2.751   9.299  0.2592 -0.5139 -0.2159
  103OSM   C14F10518   4.171   2.794   9.180  0.3389  0.3013  0.3417
  103OSM   H14F10519   4.281   2.809   9.183  0.1683  1.7395  0.1347
  103OSM   H14G10520   4.132   2.898   9.176 -0.4933 -0.0548 -1.2250
  103OSM   C15F10521   4.115   2.709   9.070 -0.3067 -0.4173  0.1626
  103OSM   H15F10522   4.008   2.736   9.056  0.1319  2.2881  1.3485
  103OSM   H15G10523   4.125   2.602   9.099  0.9664 -0.1409  0.8326
  103OSM   C16F10524   4.194   2.729   8.938 -0.2566  1.0240 -0.3020
  103OSM   H16F10525   4.302   2.726   8.964  0.0469 -0.8833 -1.5921
  103OSM   H16G10526   4.168   2.832   8.906 -0.4179  1.8730  2.2639
  103OSM   C17F10527   4.156   2.615   8.840  0.4524 -0.7352 -0.8240
  103OSM   H17F10528   4.045   2.618   8.828  0.2189 -0.6836  1.1367
  103OSM   H17G10529   4.184   2.517   8.882 -1.4728 -0.1009  2.2511
  103OSM   C18F10530   4.207   2.635   8.699 -0.2703 -0.7863 -0.0789
  103OSM   H18F10531   4.176   2.736   8.666 -1.0567 -0.0956  2.5971
  103OSM   H18G10532   4.162   2.559   8.631  1.9518 -1.7107 -0.5968
  103OSM   H18H10533   4.317   2.625   8.700  0.1681  2.8130  1.7676
  104OSM      N10534   1.539   6.067  10.923  0.6319 -0.0280  0.1932
  104OSM    C1510535   1.559   5.967  11.033 -0.1702  0.9475  0.2919
  104OSM   H15A10536   1.560   5.867  10.992  0.0811  1.4776 -1.0451
  104OSM   H15B10537   1.484   5.967  11.111 -0.0757  0.2056  0.3873
  104OSM   H15C10538   1.649   5.971  11.093 -0.8140  0.9540  1.2909
  104OSM    C1410539   1.522   6.203  10.989  0.1014  0.6878  0.5399
  104OSM   H14A10540   1.438   6.198  11.057  0.2416  0.3163  0.6906
  104OSM   H14B10541   1.497   6.284  10.923 -1.7365  0.8906  1.4161
  104OSM   H14C10542   1.606   6.233  11.051 -0.3264  0.0444  1.4620
  104OSM    C1310543   1.658   6.059  10.825  0.1641 -1.0277 -0.3240
  104OSM   H13A10544   1.752   6.083  10.872 -0.8312  2.0143  0.3251
  104OSM   H13B10545   1.638   6.131  10.746 -2.1689 -0.6192  0.5575
  104OSM   H13C10546   1.660   5.962  10.777  0.8179 -0.1560 -2.1738
  104OSM    C1210547   1.417   6.029  10.837  0.1485  0.0147 -0.2637
  104OSM   H12A10548   1.330   6.027  10.901  1.0255 -0.8332  0.9804
  104OSM   H12B10549   1.425   5.927  10.802 -0.9422 -0.1201 -0.1501
  104OSM    C1110550   1.377   6.117  10.716  0.0473  0.7921 -0.3101
  104OSM   H11A10551   1.294   6.076  10.655  0.0429  0.2019  0.0826
  104OSM   H11B10552   1.467   6.123  10.652 -0.7341  0.8858 -1.4380
  104OSM      P10553   1.199   6.263  10.822 -0.3527 -0.3046  0.2637
  104OSM    O1310554   1.146   6.131  10.877 -0.1371  0.5479 -0.1248
  104OSM    O1410555   1.193   6.382  10.913  0.3535 -0.0258 -0.0862
  104OSM    O1110556   1.125   6.291  10.679 -0.7050  0.7704 -0.6572
  104OSM    O1210557   1.345   6.246  10.770  0.0989  0.4105 -0.1093
  104OSM    C1S10558   1.186   6.385  10.591  0.2774  0.0149 -0.3710
  104OSM    H1S10559   1.261   6.447  10.645 -1.0775  0.1775  1.4141
  104OSM    H1T10560   1.106   6.456  10.562  0.5557  1.3160  1.8419
  104OSM     NF10561   1.293   6.429  10.367  0.1995  0.4425  0.4745
  104OSM    HNF10562   1.247   6.418  10.279  1.6933 -0.8128 -0.2110
  104OSM    C2S10563   1.251   6.321  10.464  0.3817 -0.7358  0.5033
  104OSM    H2S10564   1.343   6.272  10.503 -0.4609 -2.3008  0.6231
  104OSM    C3S10565   1.163   6.212  10.400  0.4341  0.0599 -0.6243
  104OSM    H3S10566   1.070   6.263  10.364  0.0026 -0.2759 -0.0120
  104OSM     O310567   1.122   6.110  10.488 -0.1111 -0.4934  0.4755
  104OSM    HO310568   1.126   6.150  10.576  1.0111 -0.7103  0.5285
  104OSM    C4S10569   1.225   6.142  10.278 -0.2324 -1.0619  0.2761
  104OSM    H4S10570   1.328   6.104  10.292  2.0960  4.2871  0.1819
  104OSM    C5S10571   1.168   6.127  10.159 -0.4995 -1.0162  0.9213
  104OSM    H5S10572   1.072   6.177  10.140  1.1715  2.1975  0.2116
  104OSM    C6S10573   1.223   6.056  10.040  1.3002  0.0535  0.5345
  104OSM    H6S10574   1.138   6.009   9.986 -0.5624  3.7256 -0.0262
  104OSM    H6T10575   1.291   5.974  10.073  1.7627 -0.2352 -1.0292
  104OSM    C7S10576   1.300   6.142   9.938  0.2880 -0.2904 -0.0484
  104OSM    H7S10577   1.373   6.199  10.000 -0.0594 -0.5085  0.5691
  104OSM    H7T10578   1.223   6.210   9.895 -0.4840 -1.9308 -1.3627
  104OSM    C8S10579   1.365   6.061   9.819  0.3101 -0.4623  0.2416
  104OSM    H8S10580   1.392   5.960   9.856  0.4954 -1.2059 -1.7921
  104OSM    H8T10581   1.451   6.124   9.789 -0.1509  1.5607  2.7656
  104OSM    C9S10582   1.274   6.062   9.690 -0.1353  0.7796  0.1381
  104OSM    H9S10583   1.265   6.167   9.656 -2.3911  1.2491  1.9351
  104OSM    H9T10584   1.171   6.037   9.724  0.2249  1.6133  1.9319
  104OSM   C10S10585   1.332   5.980   9.571 -0.1337  0.2991  0.4483
  104OSM   H10S10586   1.330   5.874   9.602 -3.4749 -0.2396 -1.2064
  104OSM   H10T10587   1.439   5.995   9.545 -0.7056  0.1076 -2.3322
  104OSM   C11S10588   1.247   5.983   9.447 -0.3214  0.0261 -0.4468
  104OSM   H11S10589   1.144   5.959   9.481  0.4227 -0.3193  1.7107
  104OSM   H11T10590   1.276   5.906   9.373 -0.0341 -0.0211 -0.2855
  104OSM   C12S10591   1.247   6.111   9.374 -0.1495 -0.4350  0.3972
  104OSM   H12S10592   1.354   6.135   9.357 -0.2383  1.1001  1.7204
  104OSM   H12T10593   1.216   6.202   9.431  2.0091 -0.0237  1.0156
  104OSM   C13S10594   1.160   6.099   9.249  0.1240 -0.5978  0.2905
  104OSM   H13S10595   1.052   6.104   9.274 -0.0965  1.9880 -0.8624
  104OSM   H13T10596   1.177   6.003   9.196 -0.6243 -1.2501  1.2083
  104OSM   C14S10597   1.180   6.232   9.168  0.0915 -0.4384 -0.2907
  104OSM   H14S10598   1.285   6.242   9.134  0.3782  0.1761  0.7094
  104OSM   H14T10599   1.146   6.313   9.237 -3.3141 -0.5380 -1.6747
  104OSM   C15S10600   1.090   6.226   9.039 -0.0454 -0.4087 -0.4069
  104OSM   H15S10601   1.058   6.330   9.016  0.3624 -0.4374 -1.1151
  104OSM   H15T10602   0.995   6.174   9.062 -0.1439 -0.1944 -0.3191
  104OSM   C16S10603   1.159   6.164   8.913  0.2274  0.5540 -0.3403
  104OSM   H16S10604   1.173   6.057   8.936 -3.2536  0.3241  1.4638
  104OSM   H16T10605   1.261   6.209   8.924  2.2946 -3.5880 -0.8896
  104OSM   C17S10606   1.093   6.177   8.779  1.2171  0.3860  0.5741
  104OSM   H17S10607   1.000   6.117   8.782  1.1050  0.5871  1.9348
  104OSM   H17T10608   1.161   6.114   8.717 -1.1949 -3.4790  1.5512
  104OSM   C18S10609   1.053   6.310   8.721  0.1231 -0.6278 -0.0404
  104OSM   H18S10610   1.134   6.376   8.684 -1.1362  1.0033 -0.0176
  104OSM   H18T10611   0.992   6.367   8.795  2.7043  0.5746  1.3017
  104OSM   H18U10612   0.973   6.292   8.646  0.4663  0.8162 -0.7808
  104OSM    C1F10613   1.378   6.533  10.386 -0.7269  0.4855 -0.1344
  104OSM     OF10614   1.441   6.547  10.490  0.2749  0.1987 -0.1577
  104OSM    C2F10615   1.396   6.628  10.269  0.4782  0.3597  0.0452
  104OSM    H2F10616   1.307   6.694  10.265  0.5193  0.3252 -2.4905
  104OSM    H2G10617   1.396   6.573  10.173  4.7396  2.0763 -1.1967
  104OSM    C3F10618   1.527   6.718  10.258 -0.3780  0.6102  0.3544
  104OSM    H3F10619   1.621   6.663  10.280  0.0385  0.6739 -1.1184
  104OSM    H3G10620   1.511   6.800  10.332  1.0110  0.5941  0.6997
  104OSM    C4F10621   1.535   6.783  10.115  0.4562  0.9271 -0.1986
  104OSM    H4F10622   1.456   6.859  10.103 -0.2905  0.0438 -1.0971
  104OSM    H4G10623   1.519   6.697  10.046  0.0687  0.9553 -0.1433
  104OSM    C5F10624   1.668   6.849  10.086 -0.8425 -0.3439  0.2474
  104OSM    H5F10625   1.747   6.773  10.105 -1.2880 -0.8447  0.1180
  104OSM    H5G10626   1.680   6.936  10.154  0.3992  0.8152 -1.3715
  104OSM    C6F10627   1.682   6.907   9.944  0.2936 -0.0126  0.2800
  104OSM    H6F10628   1.763   6.983   9.940  0.9551 -0.7060  0.3648
  104OSM    H6G10629   1.591   6.967   9.919  0.8572  1.1496  0.9510
  104OSM    C7F10630   1.708   6.798   9.834  0.3266 -0.3589  0.0476
  104OSM    H7F10631   1.639   6.714   9.857  1.4301 -0.8814  1.6044
  104OSM    H7G10632   1.811   6.760   9.848 -0.1597 -1.3432  1.1358
  104OSM    C8F10633   1.695   6.865   9.698 -0.1560 -0.4765 -1.0365
  104OSM    H8F10634   1.769   6.947   9.685 -1.4465  0.6265 -1.5675
  104OSM    H8G10635   1.596   6.914   9.694 -1.1598 -2.3510 -0.6214
  104OSM    C9F10636   1.696   6.770   9.581 -0.2657  0.3812  0.2471
  104OSM    H9F10637   1.644   6.673   9.591  0.3149 -0.0570 -0.8404
  104OSM   C10F10638   1.750   6.779   9.455  0.3217  0.1973 -0.0107
  104OSM   H10F10639   1.736   6.693   9.389  0.9877 -0.9512  1.2911
  104OSM   C11F10640   1.824   6.901   9.390  0.1448 -0.3228  0.0890
  104OSM   H11F10641   1.920   6.856   9.357 -0.1062  0.8529 -2.4744
  104OSM   H11G10642   1.838   6.984   9.462 -0.9935 -0.4575  0.4927
  104OSM   C12F10643   1.765   6.944   9.259 -0.0569 -0.6586 -0.6395
  104OSM   H12F10644   1.663   6.982   9.283  0.1983  0.2874 -0.9967
  104OSM   H12G10645   1.746   6.849   9.205 -1.0925  0.0588 -1.5851
  104OSM   C13F10646   1.855   7.029   9.174 -0.3391 -0.3421 -0.8623
  104OSM   H13F10647   1.949   6.971   9.164  0.2974  0.5811 -0.3628
  104OSM   H13G10648   1.879   7.121   9.231  0.7481 -2.2203  1.8769
  104OSM   C14F10649   1.808   7.056   9.034  0.0871 -0.0463  0.0008
  104OSM   H14F10650   1.894   7.109   8.987  0.3919 -0.4425  0.0968
  104OSM   H14G10651   1.717   7.119   9.042 -1.6108 -2.4904  1.1864
  104OSM   C15F10652   1.772   6.944   8.933 -0.2438 -0.5759  0.3607
  104OSM   H15F10653   1.733   6.989   8.839  0.4181  0.1115  0.4059
  104OSM   H15G10654   1.697   6.871   8.971 -1.1324 -0.2479 -0.7087
  104OSM   C16F10655   1.896   6.867   8.892  0.1162 -0.7415  0.4549
  104OSM   H16F10656   1.905   6.801   8.980 -2.8850 -1.7275  0.1360
  104OSM   H16G10657   1.985   6.933   8.877  0.3872 -1.0861  0.5234
  104OSM   C17F10658   1.899   6.788   8.761 -0.0613 -0.8718  0.1355
  104OSM   H17F10659   1.795   6.786   8.721  0.1947  0.6675 -0.6767
  104OSM   H17G10660   1.927   6.684   8.787 -0.7009 -0.8035  1.1746
  104OSM   C18F10661   1.998   6.846   8.656  0.7806  0.1227 -0.1047
  104OSM   H18F10662   1.991   6.771   8.574 -0.5709  0.6628 -0.4993
  104OSM   H18G10663   2.096   6.863   8.706  0.6398  0.9144 -0.0919
  104OSM   H18H10664   1.963   6.946   8.625 -0.6076  0.5522  2.5797
  105OSM      N10665   6.274   6.428  10.691  0.3902 -0.4307 -0.3274
  105OSM    C1510666   6.128   6.402  10.683 -0.7285 -0.3213 -0.9642
  105OSM   H15A10667   6.100   6.382  10.580 -2.0757 -0.6421 -0.5556
  105OSM   H15B10668   6.074   6.490  10.715  0.6070  0.1728  0.0216
  105OSM   H15C10669   6.094   6.314  10.735 -0.3536 -0.6073 -1.1966
  105OSM    C1410670   6.302   6.529  10.583 -0.0188 -1.0090 -0.8425
  105OSM   H14A10671   6.409   6.540  10.575 -0.1614  1.0633 -0.3094
  105OSM   H14B10672   6.263   6.625  10.612  1.7550 -0.7935  1.0561
  105OSM   H14C10673   6.261   6.498  10.488  2.1603  3.1815 -3.4279
  105OSM    C1310674   6.314   6.498  10.824 -1.0325 -0.3445  0.2009
  105OSM   H13A10675   6.421   6.509  10.837 -0.8401 -0.7503 -0.9294
  105OSM   H13B10676   6.274   6.440  10.906  1.2097  1.3620  2.6869
  105OSM   H13C10677   6.259   6.590  10.836 -3.0971 -0.9971 -3.1483
  105OSM    C1210678   6.354   6.290  10.669  0.2423 -0.0295  0.0855
  105OSM   H12A10679   6.314   6.239  10.583 -0.8198 -1.3338  1.2927
  105OSM   H12B10680   6.334   6.231  10.757  3.9458 -0.8317  0.5523
  105OSM    C1110681   6.510   6.294  10.645  0.4770 -0.1457 -0.2049
  105OSM   H11A10682   6.520   6.377  10.571  1.3972  0.7485  0.8848
  105OSM   H11B10683   6.544   6.191  10.621 -1.7143 -1.1146  0.6894
  105OSM      P10684   6.730   6.343  10.786  0.3038 -0.2734  0.2427
  105OSM    O1310685   6.765   6.486  10.819  0.5480  0.0175  0.6079
  105OSM    O1410686   6.771   6.234  10.885  0.1521  0.0112  0.3205
  105OSM    O1110687   6.786   6.311  10.637 -0.6157 -0.6511  0.2499
  105OSM    O1210688   6.576   6.336  10.760 -0.0224 -0.2776 -0.0723
  105OSM    C1S10689   6.916   6.359  10.599  0.5261 -0.3253  0.0257
  105OSM    H1S10690   6.989   6.287  10.642  0.8213 -0.0738 -0.0545
  105OSM    H1T10691   6.941   6.456  10.647  0.7278 -0.7203  0.7411
  105OSM     NF10692   7.085   6.386  10.409 -0.3171 -0.3750  0.2760
  105OSM    HNF10693   7.110   6.466  10.354  1.3216 -0.2139  1.1817
  105OSM    C2S10694   6.940   6.377  10.443  0.0740 -0.2860  0.1491
  105OSM    H2S10695   6.905   6.291  10.383  2.5639 -1.2785  0.0148
  105OSM    C3S10696   6.855   6.502  10.393 -0.0432 -0.1124 -0.6006
  105OSM    H3S10697   6.914   6.591  10.422 -0.7041 -0.0735  0.7052
  105OSM     O310698   6.724   6.515  10.458 -0.3251 -0.2386 -0.3040
  105OSM    HO310699   6.722   6.464  10.540 -3.0556  4.1969  2.8953
  105OSM    C4S10700   6.833   6.505  10.245 -0.3521 -0.6959 -0.9945
  105OSM    H4S10701   6.923   6.539  10.193 -0.9182  1.6419 -0.5462
  105OSM    C5S10702   6.728   6.444  10.176 -0.0071  0.0897 -0.4887
  105OSM    H5S10703   6.655   6.387  10.234  0.4391  1.1430  1.1828
  105OSM    C6S10704   6.713   6.457  10.019 -0.0093 -0.6632 -0.5219
  105OSM    H6S10705   6.670   6.558  10.000  0.0185 -0.4199  0.6286
  105OSM    H6T10706   6.649   6.381   9.969  1.2585 -0.9346 -1.7611
  105OSM    C7S10707   6.850   6.460   9.942  0.3896 -0.2270  0.3169
  105OSM    H7S10708   6.906   6.367   9.967 -1.0639 -0.7149  1.9489
  105OSM    H7T10709   6.911   6.546   9.977  1.5928 -0.3348 -1.4291
  105OSM    C8S10710   6.825   6.478   9.787  1.2029  0.1348  1.0885
  105OSM    H8S10711   6.923   6.514   9.748  0.8546  1.8020  1.6789
  105OSM    H8T10712   6.746   6.556   9.778  0.6516 -0.4869  0.3662
  105OSM    C9S10713   6.800   6.360   9.700  0.2502  0.6610 -0.3955
  105OSM    H9S10714   6.723   6.291   9.740 -0.2421  0.0537 -2.2751
  105OSM    H9T10715   6.888   6.292   9.701 -0.3222 -0.0851  1.1887
  105OSM   C10S10716   6.752   6.379   9.552 -1.0007  0.3103  0.3009
  105OSM   H10S10717   6.805   6.470   9.516 -0.6481 -0.3834 -1.0005
  105OSM   H10T10718   6.643   6.393   9.540 -0.7785  1.0096 -1.1785
  105OSM   C11S10719   6.784   6.256   9.464  0.1559  0.0815 -0.2927
  105OSM   H11S10720   6.705   6.180   9.481 -0.1629  0.4861  0.0657
  105OSM   H11T10721   6.879   6.207   9.495 -1.0476 -0.6591  2.5425
  105OSM   C12S10722   6.793   6.277   9.309  0.3533  0.2781  0.3844
  105OSM   H12S10723   6.705   6.339   9.282 -0.1807 -0.8085 -0.4034
  105OSM   H12T10724   6.794   6.176   9.264  0.5976  0.1561  0.6565
  105OSM   C13S10725   6.911   6.367   9.270  0.2838  0.1481  0.4888
  105OSM   H13S10726   7.008   6.316   9.286  2.4257  2.7911 -2.6536
  105OSM   H13T10727   6.908   6.464   9.323 -0.3041  0.1849  0.3977
  105OSM   C14S10728   6.902   6.393   9.112  0.4171  0.5115  0.3100
  105OSM   H14S10729   6.802   6.420   9.073 -0.9441 -1.9122  1.8515
  105OSM   H14T10730   6.910   6.304   9.047  1.9448  1.7960 -1.3444
  105OSM   C15S10731   7.003   6.501   9.062  0.1267  0.0441 -0.0072
  105OSM   H15S10732   7.103   6.467   9.095  0.1081  0.1127  0.1221
  105OSM   H15T10733   6.979   6.601   9.106 -1.3291  0.1632 -0.9859
  105OSM   C16S10734   6.993   6.509   8.911 -0.0472  0.4352  0.3187
  105OSM   H16S10735   6.889   6.537   8.886  0.1014  1.8770  1.2189
  105OSM   H16T10736   7.019   6.408   8.873  0.1715  0.1487  1.1935
  105OSM   C17S10737   7.092   6.605   8.847  0.2486 -1.0268  0.3990
  105OSM   H17S10738   7.197   6.569   8.840  0.8874  0.9962 -2.3316
  105OSM   H17T10739   7.090   6.705   8.895  3.2256 -0.4631 -0.4497
  105OSM   C18S10740   7.053   6.625   8.707  0.1118  0.3966 -0.3959
  105OSM   H18S10741   7.121   6.704   8.670  2.1978 -0.1341  2.0788
  105OSM   H18T10742   6.952   6.670   8.702 -0.0734  0.0321  0.0347
  105OSM   H18U10743   7.056   6.528   8.651 -1.1181 -0.5360  1.0920
  105OSM    C1F10744   7.165   6.287  10.434 -0.3501  0.2416 -0.9927
  105OSM     OF10745   7.127   6.181  10.488 -0.3002 -0.8266  0.0412
  105OSM    C2F10746   7.311   6.298  10.401 -0.3328  0.1131  0.2146
  105OSM    H2F10747   7.365   6.308  10.498  1.5388 -0.5894 -0.7123
  105OSM    H2G10748   7.332   6.393  10.346 -0.3084 -0.8012 -1.4042
  105OSM    C3F10749   7.359   6.174  10.320  0.1374  0.6305  0.1916
  105OSM    H3F10750   7.314   6.182  10.219 -1.0087  2.8636  0.8145
  105OSM    H3G10751   7.323   6.083  10.373 -0.8306 -0.3284 -2.0029
  105OSM    C4F10752   7.519   6.174  10.320  0.0446 -0.1586  0.2508
  105OSM    H4F10753   7.562   6.179  10.422  0.4692 -1.4418  0.1598
  105OSM    H4G10754   7.541   6.277  10.286  0.1516  0.3642  1.8448
  105OSM    C5F10755   7.596   6.072  10.226  0.3031  0.9661 -0.9662
  105OSM    H5F10756   7.562   5.969  10.249  2.9564  0.2227 -0.1091
  105OSM    H5G10757   7.706   6.068  10.240  0.6590 -1.3215 -3.4683
  105OSM    C6F10758   7.575   6.079  10.074  0.0879 -0.0255 -0.1475
  105OSM    H6F10759   7.608   6.180  10.042  0.7942 -0.2165 -0.0448
  105OSM    H6G10760   7.465   6.070  10.064 -0.1260  2.4206 -0.5744
  105OSM    C7F10761   7.658   5.978  10.000 -0.5267  0.5009 -0.4480
  105OSM    H7F10762   7.615   5.876  10.011  1.5522 -0.5185 -1.2953
  105OSM    H7G10763   7.750   5.970  10.062 -1.0884 -1.5698  0.2175
  105OSM    C8F10764   7.691   6.011   9.856 -0.3235  1.0117  0.3209
  105OSM    H8F10765   7.760   5.932   9.822 -1.3082  0.1074  0.3692
  105OSM    H8G10766   7.747   6.107   9.858  0.9703  0.2598  0.5720
  105OSM    C9F10767   7.571   6.009   9.766  0.3922  0.4557 -0.5382
  105OSM    H9F10768   7.478   6.047   9.810  1.5808  1.1277  1.5503
  105OSM   C10F10769   7.563   5.948   9.648  0.4454  0.8675 -0.5860
  105OSM   H10F10770   7.474   5.958   9.584  0.2010  0.0649 -0.3856
  105OSM   C11F10771   7.674   5.866   9.577  0.0332 -0.1262  0.7540
  105OSM   H11F10772   7.666   5.756   9.583  0.8143 -0.5176 -3.0273
  105OSM   H11G10773   7.772   5.903   9.613 -0.7231  1.5232  1.2606
  105OSM   C12F10774   7.690   5.903   9.422 -0.2505  0.0141 -0.8319
  105OSM   H12F10775   7.793   5.864   9.405  1.1002  3.1911 -0.7220
  105OSM   H12G10776   7.706   6.013   9.412  1.1449 -0.3405 -3.7458
  105OSM   C13F10777   7.579   5.856   9.338  0.7797 -0.2118  0.1452
  105OSM   H13F10778   7.495   5.928   9.344  2.3898  1.6532  3.2503
  105OSM   H13G10779   7.548   5.754   9.371 -0.4823 -0.3268 -1.2987
  105OSM   C14F10780   7.606   5.842   9.188 -0.2063  0.0903 -0.4500
  105OSM   H14F10781   7.662   5.934   9.159 -0.4790  1.1562  2.0921
  105OSM   H14G10782   7.511   5.844   9.131 -0.6346  0.6544  0.2587
  105OSM   C15F10783   7.686   5.717   9.144  0.3721  0.2732 -0.1918
  105OSM   H15F10784   7.626   5.631   9.179 -2.6479  2.9282  1.7234
  105OSM   H15G10785   7.778   5.712   9.206 -1.0084  3.1391  2.3672
  105OSM   C16F10786   7.704   5.705   8.997  0.0990 -0.6530  0.0932
  105OSM   H16F10787   7.601   5.720   8.960  0.8675 -0.5399 -2.1661
  105OSM   H16G10788   7.737   5.600   8.983  0.2213 -1.1384  3.2828
  105OSM   C17F10789   7.802   5.809   8.938 -0.4593  0.0937 -0.0413
  105OSM   H17F10790   7.898   5.797   8.992 -0.0773 -2.7029 -1.1400
  105OSM   H17G10791   7.761   5.912   8.943 -0.9668 -0.0757 -0.5882
  105OSM   C18F10792   7.827   5.764   8.797 -0.2595  0.5029 -0.6523
  105OSM   H18F10793   7.739   5.784   8.733 -0.0115  1.0205 -0.8397
  105OSM   H18G10794   7.859   5.657   8.800  1.4831  1.0055  0.0316
  105OSM   H18H10795   7.907   5.827   8.753  0.3074  0.0163 -0.3382
  106OSM      N10796   1.067   3.592  10.721  0.3896  1.2362 -0.3873
  106OSM    C1510797   1.052   3.495  10.835  0.2391 -0.0096 -0.7899
  106OSM   H15A10798   1.075   3.552  10.924  2.1066 -0.1362 -1.1418
  106OSM   H15B10799   1.129   3.420  10.825 -0.2821 -0.8375  0.9417
  106OSM   H15C10800   0.956   3.445  10.839 -0.3528  1.1398  2.2198
  106OSM    C1410801   1.208   3.626  10.702 -0.1079 -0.3590 -0.0833
  106OSM   H14A10802   1.236   3.687  10.786  0.4282  0.1111 -0.5907
  106OSM   H14B10803   1.212   3.689  10.614 -4.0025  0.0049 -0.1814
  106OSM   H14C10804   1.279   3.544  10.700  1.0754  0.6173  0.3332
  106OSM    C1310805   1.010   3.509  10.608 -0.0657 -0.1084 -0.3752
  106OSM   H13A10806   0.909   3.478  10.627  0.3588 -0.8092  0.8828
  106OSM   H13B10807   1.074   3.422  10.597 -0.2758 -0.2501 -0.4833
  106OSM   H13C10808   1.023   3.557  10.512  2.3225  2.0590  0.8856
  106OSM    C1210809   0.983   3.711  10.741  0.4578  0.3092  0.4017
  106OSM   H12A10810   1.018   3.765  10.828 -0.7690 -0.5537  1.4698
  106OSM   H12B10811   0.881   3.680  10.759  0.3181  0.3250 -0.3622
  106OSM    C1110812   0.969   3.806  10.618  0.8922 -0.4610  0.1563
  106OSM   H11A10813   0.897   3.888  10.637 -2.2713 -2.9606 -0.3156
  106OSM   H11B10814   0.916   3.740  10.546  1.1824 -1.5119  0.8855
  106OSM      P10815   1.179   3.977  10.621 -0.7648 -0.0075  0.3638
  106OSM    O1310816   1.123   4.106  10.572 -0.0774 -0.5280 -0.0150
  106OSM    O1410817   1.205   3.957  10.763  1.2534 -0.3791  0.2203
  106OSM    O1110818   1.310   3.948  10.537  0.2196  0.3054  0.0309
  106OSM    O1210819   1.092   3.861  10.557  0.1764  0.6193 -0.0516
  106OSM    C1S10820   1.305   3.948  10.394  0.5055  0.0356 -0.3264
  106OSM    H1S10821   1.291   4.047  10.347  1.3060  0.0222 -0.5938
  106OSM    H1T10822   1.229   3.879  10.350 -1.0851  0.8455  1.0371
  106OSM     NF10823   1.424   3.852  10.189  0.7806 -0.2686  0.3533
  106OSM    HNF10824   1.417   3.754  10.168  0.2399 -0.3895  1.0431
  106OSM    C2S10825   1.440   3.888  10.338 -0.6353 -0.4550  0.9554
  106OSM    H2S10826   1.516   3.969  10.343  0.3148 -1.4063  2.7419
  106OSM    C3S10827   1.500   3.772  10.416 -0.5799  0.0031  0.1167
  106OSM    H3S10828   1.428   3.688  10.417 -1.6509  0.9003  0.1748
  106OSM     O310829   1.530   3.810  10.552 -0.4297 -0.1263  0.1622
  106OSM    HO310830   1.478   3.891  10.558  0.1389  0.4452 -1.8861
  106OSM    C4S10831   1.630   3.732  10.351 -0.1535  0.5276 -0.0442
  106OSM    H4S10832   1.605   3.673  10.262 -1.4730 -2.3572  2.0661
  106OSM    C5S10833   1.759   3.754  10.383 -0.2748  0.1441  0.5471
  106OSM    H5S10834   1.786   3.822  10.465 -1.0219  1.4652 -0.2702
  106OSM    C6S10835   1.875   3.714  10.287  0.3080  0.7347  0.4677
  106OSM    H6S10836   1.938   3.637  10.337 -2.4842 -0.3750  2.5502
  106OSM    H6T10837   1.945   3.798  10.271  2.3323 -0.4853  2.4029
  106OSM    C7S10838   1.841   3.655  10.146  0.5835  0.4216  0.1293
  106OSM    H7S10839   1.754   3.589  10.165 -0.0884  1.6164  1.3624
  106OSM    H7T10840   1.919   3.584  10.112  0.3425  0.3015 -0.1742
  106OSM    C8S10841   1.815   3.752  10.031  0.4139 -0.2766 -0.2865
  106OSM    H8S10842   1.911   3.807  10.019  1.0254 -0.8750  1.5130
  106OSM    H8T10843   1.734   3.823  10.058 -0.1003 -1.4320  1.3471
  106OSM    C9S10844   1.793   3.677   9.895 -0.2615  0.0437  0.0144
  106OSM    H9S10845   1.689   3.639   9.899 -0.2467  0.0662  0.6099
  106OSM    H9T10846   1.869   3.600   9.869 -0.0552  0.4959 -0.7612
  106OSM   C10S10847   1.791   3.773   9.773  0.2461  0.0961  0.4480
  106OSM   H10S10848   1.892   3.817   9.766  1.0895 -1.9927 -2.0659
  106OSM   H10T10849   1.709   3.847   9.786 -1.0133 -1.1658  0.0571
  106OSM   C11S10850   1.751   3.700   9.644 -0.0319 -1.1374 -0.2802
  106OSM   H11S10851   1.661   3.638   9.664 -0.3899 -0.7590 -0.6732
  106OSM   H11T10852   1.821   3.618   9.619  1.8985  0.2267  0.4675
  106OSM   C12S10853   1.707   3.790   9.523 -0.0197 -0.1557 -0.1120
  106OSM   H12S10854   1.799   3.842   9.488  1.5558 -2.9924 -0.5211
  106OSM   H12T10855   1.631   3.862   9.560  1.0104  1.2508 -0.6489
  106OSM   C13S10856   1.654   3.698   9.412 -0.2381 -0.0914  0.1424
  106OSM   H13S10857   1.552   3.659   9.432 -0.5232  0.0737 -0.9235
  106OSM   H13T10858   1.721   3.609   9.405 -0.7021 -0.4978  0.7770
  106OSM   C14S10859   1.635   3.754   9.271 -0.7422 -0.6877 -0.4829
  106OSM   H14S10860   1.726   3.814   9.251 -0.8383 -0.8363 -1.3994
  106OSM   H14T10861   1.553   3.829   9.262 -0.1078  0.0052 -0.5109
  106OSM   C15S10862   1.605   3.647   9.169 -0.8596  0.3233  0.1177
  106OSM   H15S10863   1.511   3.602   9.206 -1.0205  0.7188  0.1951
  106OSM   H15T10864   1.681   3.571   9.196  0.8710  2.5498  1.9743
  106OSM   C16S10865   1.612   3.705   9.026  0.5802  0.2376  0.7517
  106OSM   H16S10866   1.717   3.695   8.991  1.1780 -1.2469  2.7773
  106OSM   H16T10867   1.586   3.813   9.029  0.1911  0.2166 -1.0079
  106OSM   C17S10868   1.517   3.621   8.929  0.7730  0.0595 -0.9637
  106OSM   H17S10869   1.419   3.605   8.977  1.0120  1.4489  0.0476
  106OSM   H17T10870   1.554   3.518   8.912 -0.6854 -1.0200  1.8932
  106OSM   C18S10871   1.507   3.682   8.788  0.1711  0.2033 -0.0184
  106OSM   H18S10872   1.597   3.660   8.727 -0.9386  0.9041 -1.9967
  106OSM   H18T10873   1.490   3.792   8.782 -1.7939 -0.0589  0.0886
  106OSM   H18U10874   1.425   3.628   8.737  0.4236  0.5020 -0.7632
  106OSM    C1F10875   1.417   3.942  10.089 -0.1815  0.0412 -0.3886
  106OSM     OF10876   1.435   4.059  10.113 -0.0278  0.3823  0.6274
  106OSM    C2F10877   1.374   3.905   9.952  0.4095 -0.8402  0.5837
  106OSM    H2F10878   1.264   3.898   9.965  0.0349  2.2503  0.0041
  106OSM    H2G10879   1.410   3.803   9.927  1.2164 -0.2318 -0.8384
  106OSM    C3F10880   1.403   4.014   9.847 -0.8629  0.0834 -0.0572
  106OSM    H3F10881   1.514   4.021   9.835 -0.9208  0.6192 -0.2811
  106OSM    H3G10882   1.372   4.115   9.880  0.0954  1.1102 -2.1145
  106OSM    C4F10883   1.332   3.980   9.714  0.8748 -0.2927 -0.3719
  106OSM    H4F10884   1.373   4.055   9.643  0.2241  0.5003  0.0739
  106OSM    H4G10885   1.223   4.003   9.724  1.1907  1.0631  0.0017
  106OSM    C5F10886   1.341   3.838   9.674 -0.5242  0.6087 -0.2379
  106OSM    H5F10887   1.281   3.775   9.743  2.3518 -1.3625  0.6391
  106OSM    H5G10888   1.438   3.790   9.699 -1.1896 -1.5493 -1.5147
  106OSM    C6F10889   1.306   3.812   9.532  0.2071  0.6604  0.1617
  106OSM    H6F10890   1.283   3.706   9.507  0.2770  0.8573 -0.7810
  106OSM    H6G10891   1.398   3.848   9.481 -0.6404  0.9840 -1.2116
  106OSM    C7F10892   1.179   3.885   9.477  0.5439 -0.4105 -0.5671
  106OSM    H7F10893   1.183   3.996   9.476 -1.8456 -0.2403 -3.2512
  106OSM    H7G10894   1.096   3.857   9.546  1.1872  0.4275  0.5993
  106OSM    C8F10895   1.130   3.828   9.346  0.1482  0.3023  0.9146
  106OSM    H8F10896   1.027   3.862   9.323  0.2515  0.2292  0.3224
  106OSM    H8G10897   1.130   3.717   9.347 -2.0650  0.2094 -1.2146
  106OSM    C9F10898   1.222   3.868   9.230 -0.8376  0.0932  0.6759
  106OSM    H9F10899   1.312   3.927   9.252 -0.4838 -0.0507 -0.3685
  106OSM   C10F10900   1.207   3.836   9.095 -0.3240  0.1618  0.2243
  106OSM   H10F10901   1.283   3.864   9.020  0.4456 -2.0149  0.1307
  106OSM   C11F10902   1.107   3.745   9.034 -0.3034  0.2324  0.1753
  106OSM   H11F10903   1.019   3.729   9.099 -0.2630  1.7955  0.6400
  106OSM   H11G10904   1.148   3.646   9.004 -1.4333  0.1204 -1.1312
  106OSM   C12F10905   1.050   3.794   8.898  0.7913  0.3986 -0.5064
  106OSM   H12F10906   0.997   3.891   8.904  2.3388  1.1862  1.6517
  106OSM   H12G10907   0.976   3.718   8.868  0.5428  1.1898 -2.0086
  106OSM   C13F10908   1.144   3.811   8.776  0.4444 -0.5535 -0.1041
  106OSM   H13F10909   1.186   3.718   8.734  1.9618  0.6653 -1.3946
  106OSM   H13G10910   1.237   3.852   8.822  0.2588 -1.0065  0.6871
  106OSM   C14F10911   1.084   3.906   8.661 -0.0569  0.2987  0.1322
  106OSM   H14F10912   1.062   4.010   8.694 -0.0532  0.1512  0.6179
  106OSM   H14G10913   0.994   3.857   8.619  0.0416  0.9144 -0.8216
  106OSM   C15F10914   1.182   3.915   8.541  0.3912  1.0169  0.4928
  106OSM   H15F10915   1.147   3.966   8.449 -2.0574  0.1340  0.8519
  106OSM   H15G10916   1.192   3.808   8.513 -0.9603  0.6084  1.4980
  106OSM   C16F10917   1.326   3.967   8.573  0.0934  0.2668 -0.3844
  106OSM   H16F10918   1.364   3.921   8.666 -2.2248 -1.2147 -0.0859
  106OSM   H16G10919   1.315   4.077   8.590  0.8629  0.3006 -0.0856
  106OSM   C17F10920   1.416   3.950   8.454 -0.3445  0.0438 -0.3267
  106OSM   H17F10921   1.497   4.027   8.447  0.4775 -0.9142 -1.7229
  106OSM   H17G10922   1.360   3.960   8.359 -0.2239 -0.8843 -0.5057
  106OSM   C18F10923   1.477   3.812   8.440  0.1441 -0.0520  0.7758
  106OSM   H18F10924   1.561   3.807   8.367 -0.5487  3.4332 -0.4371
  106OSM   H18G10925   1.392   3.755   8.398 -0.4459  0.3783  1.3611
  106OSM   H18H10926   1.495   3.763   8.538 -0.5661  1.1110  1.5060
  107OSM      N10927   3.811   2.900  11.115 -0.6422 -0.4448  0.5675
  107OSM    C1510928   3.919   2.830  11.033 -0.2239  0.1679  0.6917
  107OSM   H15A10929   4.013   2.844  11.085  0.3668  0.0690 -0.3189
  107OSM   H15B10930   3.934   2.864  10.931  0.6146 -0.6887  0.5068
  107OSM   H15C10931   3.903   2.723  11.032 -2.4462  0.4703  0.5903
  107OSM    C1410932   3.822   2.848  11.256  0.2283  0.3343 -0.5109
  107OSM   H14A10933   3.741   2.885  11.317 -0.3124  0.2746 -1.1895
  107OSM   H14B10934   3.914   2.875  11.306 -0.2606  0.1633  0.5119
  107OSM   H14C10935   3.813   2.741  11.244 -0.5978  0.5916 -2.5115
  107OSM    C1310936   3.840   3.047  11.112  0.1715  0.0588  0.4334
  107OSM   H13A10937   3.845   3.085  11.011 -0.0921 -0.7074  0.1283
  107OSM   H13B10938   3.940   3.054  11.151 -0.2469  0.2433  1.5127
  107OSM   H13C10939   3.784   3.120  11.169  1.2597  4.0055 -3.0797
  107OSM    C1210940   3.669   2.873  11.055  0.3787  0.3091 -0.4567
  107OSM   H12A10941   3.595   2.927  11.112 -1.1765  0.6855 -2.6868
  107OSM   H12B10942   3.643   2.771  11.079 -1.0067  0.7102 -0.1306
  107OSM    C1110943   3.633   2.921  10.910  1.0212 -0.0258 -0.4978
  107OSM   H11A10944   3.535   2.877  10.884  0.9337  0.7017 -1.4792
  107OSM   H11B10945   3.709   2.891  10.834  2.0214 -0.7205  0.7408
  107OSM      P10946   3.486   3.124  10.950  0.3085 -0.4630  0.3864
  107OSM    O1310947   3.430   3.058  11.068  0.2562  0.3007 -0.1699
  107OSM    O1410948   3.488   3.278  10.957 -0.1682 -0.7495  0.5292
  107OSM    O1110949   3.394   3.092  10.827 -0.7903 -0.1594 -0.5802
  107OSM    O1210950   3.623   3.070  10.902 -0.2459  0.0936 -0.3768
  107OSM    C1S10951   3.456   3.114  10.690 -0.4083 -0.1572  0.3474
  107OSM    H1S10952   3.527   3.032  10.666 -0.6238 -0.3881  0.4969
  107OSM    H1T10953   3.507   3.213  10.687  1.7239 -1.1959  0.8457
  107OSM     NF10954   3.417   3.149  10.454 -0.3811 -0.1330  0.1766
  107OSM    HNF10955   3.441   3.244  10.437 -1.1638  0.6786  3.1389
  107OSM    C2S10956   3.351   3.125  10.584 -0.1465 -0.0345 -0.1076
  107OSM    H2S10957   3.302   3.025  10.579  1.6237 -1.0137  0.9866
  107OSM    C3S10958   3.255   3.236  10.627  0.2395  0.0154  0.1541
  107OSM    H3S10959   3.317   3.326  10.647 -0.4167  0.6451 -0.5922
  107OSM     O310960   3.180   3.209  10.746 -1.0060 -0.0842 -0.2242
  107OSM    HO310961   3.237   3.154  10.800 -3.5816 -1.6937  1.0685
  107OSM    C4S10962   3.145   3.252  10.526 -0.1358 -0.5159  0.1558
  107OSM    H4S10963   3.094   3.155  10.520 -0.8615 -0.0850 -0.9107
  107OSM    C5S10964   3.128   3.354  10.435  0.1181  0.2916  1.1069
  107OSM    H5S10965   3.186   3.448  10.433 -1.2198  1.2489  3.5281
  107OSM    C6S10966   3.024   3.347  10.322  0.5425 -0.2932 -1.0549
  107OSM    H6S10967   2.938   3.416  10.336 -1.6369 -3.1709  0.9536
  107OSM    H6T10968   2.985   3.243  10.308 -1.7979  0.3416  0.1900
  107OSM    C7S10969   3.099   3.391  10.199  0.6934  0.0037  0.3408
  107OSM    H7S10970   3.189   3.327  10.188 -0.5102 -1.5576 -1.0975
  107OSM    H7T10971   3.137   3.495  10.195  1.1627 -0.1666 -2.7326
  107OSM    C8S10972   3.008   3.381  10.073 -0.6510 -0.1225 -0.1437
  107OSM    H8S10973   2.930   3.458  10.090 -0.5211  0.5551 -2.3532
  107OSM    H8T10974   2.949   3.289  10.052 -1.1571  0.1149  0.2290
  107OSM    C9S10975   3.090   3.411   9.938  0.0026 -0.3667  0.7968
  107OSM    H9S10976   3.174   3.340   9.924  2.3350  2.0145  1.9553
  107OSM    H9T10977   3.132   3.513   9.946 -2.1884  0.8164 -1.2990
  107OSM   C10S10978   2.991   3.407   9.813  0.2860 -0.1293  0.0851
  107OSM   H10S10979   2.913   3.481   9.841  0.7906  0.0468  1.1247
  107OSM   H10T10980   2.942   3.308   9.808 -1.3701  0.7188 -1.8570
  107OSM   C11S10981   3.044   3.440   9.675  0.1627  0.5158 -0.0844
  107OSM   H11S10982   3.076   3.546   9.672 -0.5416  0.7147 -1.5198
  107OSM   H11T10983   2.957   3.430   9.606  0.0882  0.5207  0.0088
  107OSM   C12S10984   3.158   3.338   9.625  0.5814 -0.2377 -0.1834
  107OSM   H12S10985   3.118   3.236   9.608  0.5342  0.0243 -1.7570
  107OSM   H12T10986   3.230   3.322   9.708  1.5947  1.6495 -0.6535
  107OSM   C13S10987   3.216   3.389   9.496 -0.4178  0.2296 -0.1372
  107OSM   H13S10988   3.288   3.321   9.446  1.1871  2.0655 -0.4699
  107OSM   H13T10989   3.278   3.472   9.537 -0.6789  0.5664 -0.4128
  107OSM   C14S10990   3.120   3.438   9.389  0.4889 -0.6574 -0.3583
  107OSM   H14S10991   3.109   3.546   9.413  0.8029 -0.1802 -2.2209
  107OSM   H14T10992   3.022   3.388   9.400 -0.6737  1.7257  1.0735
  107OSM   C15S10993   3.175   3.418   9.251 -0.2680  0.2471 -0.4237
  107OSM   H15S10994   3.210   3.314   9.232 -3.4709 -0.6051 -2.4819
  107OSM   H15T10995   3.258   3.490   9.241 -2.4097  3.4109  2.2600
  107OSM   C16S10996   3.068   3.440   9.140  1.0709  0.0987  0.2494
  107OSM   H16S10997   2.993   3.359   9.150  1.1219  0.0885  0.5640
  107OSM   H16T10998   3.122   3.422   9.045 -0.5324  0.1173 -0.7084
  107OSM   C17S10999   3.000   3.580   9.146  0.0907 -0.4611  0.0269
  107OSM   H17S11000   3.080   3.653   9.172  0.1734 -0.5266 -0.0436
  107OSM   H17T11001   2.927   3.571   9.230 -1.6196 -0.0444 -1.3590
  107OSM   C18S11002   2.917   3.602   9.018 -0.5526 -0.4237 -0.3306
  107OSM   H18S11003   2.979   3.580   8.929 -1.8193 -0.2188 -1.2908
  107OSM   H18T11004   2.891   3.710   9.022  0.2469 -0.2016 -0.9405
  107OSM   H18U11005   2.826   3.539   9.025 -0.0932 -1.2490 -1.5600
  107OSM    C1F11006   3.490   3.057  10.396 -0.2700  0.7760  0.1308
  107OSM     OF11007   3.491   2.940  10.433 -0.3843 -0.7886  0.4065
  107OSM    C2F11008   3.576   3.105  10.278  0.3952 -0.1314 -0.0332
  107OSM    H2F11009   3.666   3.147  10.328  0.4798  1.4754 -1.4559
  107OSM    H2G11010   3.522   3.186  10.225 -1.4598  1.2684  3.6601
  107OSM    C3F11011   3.608   2.983  10.187 -0.5200 -0.2415 -0.5649
  107OSM    H3F11012   3.508   2.937  10.170  0.6511 -2.7638 -1.1402
  107OSM    H3G11013   3.670   2.903  10.233  1.0021 -0.3148 -2.6095
  107OSM    C4F11014   3.651   3.023  10.045  0.2900  0.0054 -0.3907
  107OSM    H4F11015   3.568   3.088  10.009  0.3509 -0.7868 -2.0442
  107OSM    H4G11016   3.659   2.928   9.987  1.1181 -0.4588  0.4517
  107OSM    C5F11017   3.790   3.094  10.035 -1.1776 -0.2625 -0.3404
  107OSM    H5F11018   3.868   3.033  10.085 -1.4317  1.8189  2.8911
  107OSM    H5G11019   3.801   3.189  10.091  1.6285 -0.9336  0.3905
  107OSM    C6F11020   3.829   3.121   9.892 -0.2744 -0.7619  0.0339
  107OSM    H6F11021   3.745   3.181   9.849  0.1289 -1.5754 -2.0113
  107OSM    H6G11022   3.832   3.023   9.839 -0.4359 -1.1805  0.7886
  107OSM    C7F11023   3.956   3.198   9.878  0.0730  0.5526  0.9080
  107OSM    H7F11024   4.042   3.148   9.928  0.1032 -0.6125 -0.2523
  107OSM    H7G11025   3.947   3.293   9.935  1.3381  0.5146  1.2064
  107OSM    C8F11026   4.013   3.216   9.733 -0.5797 -1.1237  0.8811
  107OSM    H8F11027   4.041   3.121   9.683 -0.3760  0.4620 -2.2075
  107OSM    H8G11028   4.108   3.274   9.734 -0.8749 -0.6287  0.6319
  107OSM    C9F11029   3.919   3.303   9.648  0.0323  0.1596 -0.5296
  107OSM    H9F11030   3.876   3.394   9.692 -1.8472  0.0370 -1.9702
  107OSM   C10F11031   3.883   3.280   9.520  0.1647 -0.5892 -0.4716
  107OSM   H10F11032   3.815   3.355   9.478 -0.6731  0.0113  1.8488
  107OSM   C11F11033   3.943   3.165   9.439  0.2887 -0.1414  0.2003
  107OSM   H11F11034   3.919   3.068   9.486  0.3043 -0.5010 -0.5164
  107OSM   H11G11035   4.053   3.176   9.443  0.3344 -0.3294 -0.3652
  107OSM   C12F11036   3.894   3.158   9.294 -0.3873  0.7521 -0.5718
  107OSM   H12F11037   3.783   3.155   9.299 -0.4284 -2.8084 -0.7842
  107OSM   H12G11038   3.941   3.068   9.248  0.3196  2.3851 -3.2009
  107OSM   C13F11039   3.939   3.282   9.210 -0.1138 -0.0125 -0.3021
  107OSM   H13F11040   4.050   3.285   9.210 -0.1193  1.9778  0.9728
  107OSM   H13G11041   3.915   3.378   9.261  0.9525 -0.3095  0.8145
  107OSM   C14F11042   3.873   3.273   9.072  0.2234 -0.0756  0.2871
  107OSM   H14F11043   3.764   3.295   9.079  0.5140  1.0179  2.3040
  107OSM   H14G11044   3.882   3.171   9.030 -0.2157 -0.0387  0.0928
  107OSM   C15F11045   3.946   3.375   8.980  0.1965  0.1376  0.9794
  107OSM   H15F11046   4.053   3.347   8.969 -0.3598 -1.7288 -0.0762
  107OSM   H15G11047   3.938   3.475   9.028  0.2236 -0.2860  1.8845
  107OSM   C16F11048   3.880   3.383   8.840 -0.1877  0.0514 -0.0333
  107OSM   H16F11049   3.772   3.408   8.843 -0.0399  0.6604  0.3015
  107OSM   H16G11050   3.894   3.283   8.794  1.6928  0.5221 -0.5635
  107OSM   C17F11051   3.939   3.487   8.750 -0.2739  0.9044  1.1082
  107OSM   H17F11052   3.947   3.443   8.648 -1.5808  2.4863  0.2704
  107OSM   H17G11053   4.037   3.515   8.793 -0.2739 -0.9539  2.4463
  107OSM   C18F11054   3.861   3.619   8.744 -0.5580  0.1093  0.1017
  107OSM   H18F11055   3.856   3.676   8.840  1.7459 -0.8189  0.8370
  107OSM   H18G11056   3.763   3.570   8.730 -0.2512 -0.6082  0.4143
  107OSM   H18H11057   3.892   3.677   8.654  2.4551 -1.9484 -0.3533
  108OSM      N11058   5.885   5.905  11.104 -0.6145 -0.7125 -0.6859
  108OSM    C1511059   6.003   5.813  11.112  0.0595 -0.9683 -0.0089
  108OSM   H15A11060   5.976   5.714  11.079  0.0865 -1.3640  1.1383
  108OSM   H15B11061   6.046   5.803  11.210  0.0154  1.2147  0.2869
  108OSM   H15C11062   6.085   5.848  11.051  1.0519  0.1277  1.8568
  108OSM    C1411063   5.785   5.858  11.202  0.0351 -0.0652 -0.1359
  108OSM   H14A11064   5.830   5.851  11.300  1.3563  1.1756 -0.6157
  108OSM   H14B11065   5.753   5.757  11.179  2.2177 -0.8354 -0.0761
  108OSM   H14C11066   5.709   5.934  11.208  1.9656  1.9996 -0.1811
  108OSM    C1311067   5.939   6.049  11.139  0.2113  0.2622 -0.2469
  108OSM   H13A11068   5.976   6.053  11.241  0.3834 -2.3941 -0.1496
  108OSM   H13B11069   5.862   6.125  11.131  0.6135  0.6835 -0.1938
  108OSM   H13C11070   6.020   6.078  11.074  2.7014  1.2557  2.9976
  108OSM    C1211071   5.824   5.901  10.966 -0.2547 -0.3389  0.3878
  108OSM   H12A11072   5.797   5.802  10.934  2.1490 -0.9295 -0.0146
  108OSM   H12B11073   5.904   5.922  10.897  1.1839 -0.9223  1.8289
  108OSM    C1111074   5.718   6.002  10.939  0.6994  0.3748  0.9140
  108OSM   H11A11075   5.635   5.980  11.009  0.2078  0.8920  0.5040
  108OSM   H11B11076   5.696   5.985  10.831  2.1600 -0.8095  0.7749
  108OSM      P11077   5.852   6.200  10.841 -0.3309  0.3941  0.0183
  108OSM    O1311078   5.900   6.328  10.897 -0.0101 -0.2020  0.2246
  108OSM    O1411079   5.956   6.110  10.787  0.1018 -0.3484 -0.3273
  108OSM    O1111080   5.749   6.234  10.736  0.8677  0.3071  0.6781
  108OSM    O1211081   5.768   6.136  10.954 -0.3201  0.6288  0.0566
  108OSM    C1S11082   5.629   6.310  10.771 -0.6735  0.0139 -1.3545
  108OSM    H1S11083   5.654   6.400  10.831 -2.0254 -0.4748  0.0187
  108OSM    H1T11084   5.559   6.253  10.836 -2.2544 -0.1000 -3.0623
  108OSM     NF11085   5.441   6.450  10.679 -0.3410 -0.1907 -0.2764
  108OSM    HNF11086   5.352   6.410  10.657 -0.2448 -0.8218  0.4300
  108OSM    C2S11087   5.547   6.351  10.650  0.4936  0.3116 -0.0417
  108OSM    H2S11088   5.623   6.393  10.581  0.7161  1.1271  0.6776
  108OSM    C3S11089   5.492   6.227  10.575  0.4479 -0.6021 -0.1824
  108OSM    H3S11090   5.402   6.203  10.636 -0.4459  1.2777 -0.6723
  108OSM     O311091   5.582   6.111  10.566  0.0897 -0.4884  0.1399
  108OSM    HO311092   5.657   6.134  10.622  2.1962 -2.9522 -1.4509
  108OSM    C4S11093   5.435   6.278  10.447 -0.0787 -0.0681  0.5715
  108OSM    H4S11094   5.331   6.313  10.439  0.4536  1.5600  0.3526
  108OSM    C5S11095   5.511   6.291  10.336  0.1965  0.3729 -0.0343
  108OSM    H5S11096   5.616   6.257  10.343  0.3355  0.8711  0.3310
  108OSM    C6S11097   5.455   6.342  10.205 -0.2229 -0.2213 -0.6939
  108OSM    H6S11098   5.529   6.414  10.165 -0.5450 -0.8747 -2.6110
  108OSM    H6T11099   5.359   6.395  10.222 -2.1312 -3.8386  0.9100
  108OSM    C7S11100   5.420   6.232  10.101 -0.3181 -0.3890  0.3246
  108OSM    H7S11101   5.342   6.167  10.148 -1.5084  0.0375 -0.9773
  108OSM    H7T11102   5.514   6.175  10.083 -0.8484 -0.9402 -0.7801
  108OSM    C8S11103   5.370   6.279   9.964  0.8946  0.3360  0.7520
  108OSM    H8S11104   5.449   6.333   9.907  0.0406 -0.8484 -1.6914
  108OSM    H8T11105   5.285   6.348   9.983  0.6179 -0.0558  0.9594
  108OSM    C9S11106   5.322   6.154   9.878 -0.0240 -0.1559  0.3918
  108OSM    H9S11107   5.250   6.096   9.940  0.0661  0.9704  1.5878
  108OSM    H9T11108   5.406   6.084   9.856 -2.3217 -2.2998 -2.2499
  108OSM   C10S11109   5.281   6.203   9.744  0.3002 -0.6194 -0.4800
  108OSM   H10S11110   5.251   6.309   9.750  1.4918 -0.3360  1.4857
  108OSM   H10T11111   5.200   6.138   9.706  1.0268 -0.9935 -1.4303
  108OSM   C11S11112   5.383   6.198   9.633  0.0304  0.0382  0.3286
  108OSM   H11S11113   5.416   6.093   9.617  1.4430  0.5259 -0.1079
  108OSM   H11T11114   5.471   6.255   9.668  1.6528 -1.1418 -1.6143
  108OSM   C12S11115   5.331   6.259   9.500 -0.0716  0.8391 -0.3938
  108OSM   H12S11116   5.304   6.366   9.511  1.6925  1.7302 -3.4548
  108OSM   H12T11117   5.237   6.203   9.484  1.2195 -1.9636  1.0262
  108OSM   C13S11118   5.435   6.241   9.388  0.0841 -0.3871 -0.6748
  108OSM   H13S11119   5.485   6.142   9.390  2.2576  0.6638  0.3359
  108OSM   H13T11120   5.513   6.315   9.416 -0.3612 -1.1614  3.2611
  108OSM   C14S11121   5.388   6.276   9.246  0.1699  0.4107 -0.6052
  108OSM   H14S11122   5.470   6.250   9.175  0.4611 -4.3973  1.1320
  108OSM   H14T11123   5.364   6.384   9.236  0.8383  0.7636  1.2935
  108OSM   C15S11124   5.277   6.186   9.201  0.2096  0.2507 -0.2430
  108OSM   H15S11125   5.194   6.231   9.261  0.0881  1.8953 -1.5728
  108OSM   H15T11126   5.296   6.083   9.238  0.5179  0.6187  0.6606
  108OSM   C16S11127   5.239   6.173   9.052 -0.1910  0.0214  0.0113
  108OSM   H16S11128   5.321   6.125   8.994  1.7914  2.6015  0.5333
  108OSM   H16T11129   5.241   6.266   8.992 -0.6540 -1.0277 -1.7105
  108OSM   C17S11130   5.103   6.117   9.023 -0.1968  0.2561 -0.7428
  108OSM   H17S11131   5.061   6.180   8.942  1.2362  1.9567 -0.2229
  108OSM   H17T11132   5.052   6.140   9.119  3.3181 -0.3998  1.4746
  108OSM   C18S11133   5.084   5.967   8.990  0.0137  0.4197  0.2108
  108OSM   H18S11134   5.115   5.913   9.082  1.9765  0.4562 -0.3718
  108OSM   H18T11135   5.138   5.923   8.902  0.6341 -1.0335  1.2736
  108OSM   H18U11136   4.978   5.935   8.983 -0.7459  3.0710 -2.8126
  108OSM    C1F11137   5.463   6.579  10.712  0.4513 -0.1859 -0.1546
  108OSM     OF11138   5.574   6.619  10.722  0.7424  0.5340  0.0893
  108OSM    C2F11139   5.352   6.676  10.722  0.0401 -0.5331 -0.9380
  108OSM    H2F11140   5.336   6.703  10.828  2.2284 -0.0967 -0.6778
  108OSM    H2G11141   5.258   6.625  10.691 -0.1240 -1.1520  0.4999
  108OSM    C3F11142   5.370   6.795  10.630  0.5235 -0.6366 -0.0475
  108OSM    H3F11143   5.467   6.848  10.639  0.1588 -0.2135  1.7469
  108OSM    H3G11144   5.300   6.877  10.657  0.5519 -0.3284 -0.8921
  108OSM    C4F11145   5.346   6.762  10.483  0.0735  0.2786 -0.6619
  108OSM    H4F11146   5.250   6.706  10.477 -0.2133  0.7456 -0.4950
  108OSM    H4G11147   5.428   6.698  10.446 -0.8362 -2.2180  1.3916
  108OSM    C5F11148   5.337   6.884  10.395  0.8621 -0.4014  0.0791
  108OSM    H5F11149   5.427   6.944  10.418  0.3334  0.6287 -0.5014
  108OSM    H5G11150   5.245   6.940  10.421  1.7464  0.4042  1.5757
  108OSM    C6F11151   5.347   6.840  10.250  0.9956  0.5452  0.3728
  108OSM    H6F11152   5.442   6.784  10.236 -0.2485 -1.0952 -2.4429
  108OSM    H6G11153   5.370   6.920  10.177  0.1830  0.6815  0.2584
  108OSM    C7F11154   5.225   6.758  10.193  0.0435 -0.6791  0.9178
  108OSM    H7F11155   5.135   6.814  10.228  1.7236  0.5308  3.6699
  108OSM    H7G11156   5.210   6.657  10.238 -0.4986 -0.4214  1.3477
  108OSM    C8F11157   5.233   6.742  10.042 -0.0765 -0.0838  0.2703
  108OSM    H8F11158   5.233   6.835   9.982  1.3126 -0.3243 -0.1314
  108OSM    H8G11159   5.146   6.688   9.998  0.5144 -0.2060 -0.7938
  108OSM    C9F11160   5.354   6.661   9.999 -0.1853  0.3972 -0.5687
  108OSM    H9F11161   5.431   6.637  10.073 -2.7711 -0.3308  2.0612
  108OSM   C10F11162   5.382   6.633   9.870  0.0562 -0.6477  0.3850
  108OSM   H10F11163   5.468   6.571   9.839 -0.5038 -0.1723 -2.4051
  108OSM   C11F11164   5.303   6.674   9.750  0.2212  0.2705 -0.3778
  108OSM   H11F11165   5.256   6.774   9.761  0.6386  0.2738  1.8193
  108OSM   H11G11166   5.222   6.598   9.750  2.5111 -2.3728 -2.4641
  108OSM   C12F11167   5.370   6.641   9.622 -0.4958 -0.1425 -0.0189
  108OSM   H12F11168   5.416   6.540   9.610 -2.6828 -1.3343  1.0675
  108OSM   H12G11169   5.449   6.716   9.601 -0.0610 -1.0964 -2.1597
  108OSM   C13F11170   5.277   6.657   9.500  0.4291 -0.5578 -0.8216
  108OSM   H13F11171   5.207   6.740   9.527  2.7290  0.5375  2.5373
  108OSM   H13G11172   5.211   6.568   9.501 -1.5643  0.8261  0.6462
  108OSM   C14F11173   5.345   6.669   9.361  0.4593 -0.1400 -0.1936
  108OSM   H14F11174   5.405   6.577   9.342 -0.5842 -0.8603 -0.0346
  108OSM   H14G11175   5.420   6.751   9.355  0.8286 -0.5385 -1.3836
  108OSM   C15F11176   5.247   6.677   9.243 -0.4009  0.4050 -0.5300
  108OSM   H15F11177   5.288   6.676   9.140 -1.9106  0.6157 -1.1531
  108OSM   H15G11178   5.200   6.778   9.239  0.3820  0.8084  0.1825
  108OSM   C16F11179   5.135   6.571   9.238  0.9487 -0.3766  0.2643
  108OSM   H16F11180   5.062   6.579   9.321  1.5590  0.2313  0.7582
  108OSM   H16G11181   5.184   6.471   9.239 -0.2436 -0.9890 -0.3723
  108OSM   C17F11182   5.072   6.570   9.099 -0.1073 -1.0137 -0.0709
  108OSM   H17F11183   5.149   6.557   9.019 -0.9718  0.0726 -1.1174
  108OSM   H17G11184   5.015   6.664   9.081 -1.9045 -2.2668 -1.2084
  108OSM   C18F11185   4.977   6.458   9.071  0.1897 -0.1059 -0.2062
  108OSM   H18F11186   5.004   6.381   9.147  0.5207  1.2309  1.0814
  108OSM   H18G11187   5.003   6.408   8.975  2.1062 -1.1112  0.7769
  108OSM   H18H11188   4.873   6.495   9.077  0.4717  0.5984  0.4868
  109OSM      N11189   1.727   1.153  10.792  0.2462  0.3130 -0.5197
  109OSM    C1511190   1.581   1.126  10.785 -0.2697  0.0223 -0.1532
  109OSM   H15A11191   1.513   1.185  10.846 -0.6215  0.7921 -1.2653
  109OSM   H15B11192   1.564   1.022  10.810  1.0841  0.1710  1.5932
  109OSM   H15C11193   1.544   1.133  10.684 -1.4801  1.4584  0.3515
  109OSM    C1411194   1.738   1.293  10.766  0.2213  0.1894  0.4303
  109OSM   H14A11195   1.664   1.337  10.832  0.1517 -1.2444  1.3566
  109OSM   H14B11196   1.711   1.318  10.665 -0.2485  1.3509  0.8293
  109OSM   H14C11197   1.840   1.320  10.790  1.1058 -3.0098  0.7126
  109OSM    C1311198   1.757   1.122  10.934  0.2473 -0.5031  0.0303
  109OSM   H13A11199   1.735   1.017  10.950 -0.5058  0.0093  2.7947
  109OSM   H13B11200   1.686   1.168  11.000 -0.1216  0.1775 -0.8268
  109OSM   H13C11201   1.861   1.137  10.961  0.1360 -0.7828  0.6175
  109OSM    C1211202   1.813   1.067  10.700  0.1869  0.1585 -0.1903
  109OSM   H12A11203   1.917   1.090  10.716 -0.4033  1.4844  2.2676
  109OSM   H12B11204   1.788   1.097  10.599  2.2531  3.2789  0.0754
  109OSM    C1111205   1.777   0.916  10.713 -0.3749 -0.4667  0.0204
  109OSM   H11A11206   1.810   0.853  10.627 -1.1827  0.1400 -0.7498
  109OSM   H11B11207   1.668   0.902  10.698 -0.3562 -0.6621  0.0608
  109OSM      P11208   1.963   0.812  10.858 -0.3326 -0.0345 -0.3555
  109OSM    O1311209   2.049   0.933  10.848 -0.4831  0.2139 -0.0607
  109OSM    O1411210   1.977   0.726  10.980  0.2262  0.1416  0.5688
  109OSM    O1111211   1.986   0.728  10.721  0.7368  0.2674  0.3981
  109OSM    O1211212   1.815   0.864  10.841  0.1810  0.0901 -0.0109
  109OSM    C1S11213   2.018   0.589  10.724 -0.6978  0.2144 -0.9101
  109OSM    H1S11214   1.947   0.528  10.783  2.4927 -1.6186  1.3969
  109OSM    H1T11215   2.112   0.584  10.784  0.3404 -0.0753 -2.4902
  109OSM     NF11216   2.056   0.375  10.602 -0.8387 -0.0772 -0.1110
  109OSM    HNF11217   2.143   0.334  10.576 -0.8055 -0.2928  0.3257
  109OSM    C2S11218   2.035   0.523  10.584 -0.0398  0.0277 -0.0236
  109OSM    H2S11219   1.938   0.546  10.535  0.0687  0.9552  0.1767
  109OSM    C3S11220   2.151   0.591  10.512  0.0170 -0.4702 -0.4436
  109OSM    H3S11221   2.236   0.562  10.578 -0.3702 -0.8666 -0.1131
  109OSM     O311222   2.167   0.736  10.519  0.5296 -0.0618 -0.5396
  109OSM    HO311223   2.095   0.757  10.579 -0.9857 -2.0885 -1.5263
  109OSM    C4S11224   2.166   0.539  10.374  0.2912 -0.4080  0.0482
  109OSM    H4S11225   2.137   0.434  10.358 -0.6762  0.0597 -1.5242
  109OSM    C5S11226   2.176   0.619  10.263 -0.7486  0.4030  0.1501
  109OSM    H5S11227   2.171   0.729  10.274 -1.4684  0.3843  0.0431
  109OSM    C6S11228   2.194   0.582  10.120 -0.2676  0.5154  0.0447
  109OSM    H6S11229   2.300   0.602  10.093 -1.1193  1.7128 -2.9069
  109OSM    H6T11230   2.141   0.655  10.054  2.6720  0.9986 -1.9768
  109OSM    C7S11231   2.172   0.437  10.073 -0.2331  0.3347  0.2684
  109OSM    H7S11232   2.071   0.405  10.106 -0.1626  1.1340  1.3128
  109OSM    H7T11233   2.242   0.364  10.120  0.0126 -0.9701 -1.9332
  109OSM    C8S11234   2.207   0.412   9.924  0.3364 -0.7323 -0.1184
  109OSM    H8S11235   2.221   0.305   9.898 -0.3539 -1.3253  1.7642
  109OSM    H8T11236   2.307   0.455   9.903  0.3042 -0.8933 -0.5999
  109OSM    C9S11237   2.104   0.476   9.834 -0.5382  0.4745 -0.5372
  109OSM    H9S11238   2.058   0.570   9.874  1.6069  1.3842 -0.0753
  109OSM    H9T11239   2.023   0.400   9.833 -1.0755  0.9866  0.6040
  109OSM   C10S11240   2.155   0.489   9.689 -0.4196  0.0484 -0.4404
  109OSM   H10S11241   2.202   0.392   9.663  1.5861  0.9644 -0.4312
  109OSM   H10T11242   2.237   0.563   9.684 -0.3008 -0.0303  0.2498
  109OSM   C11S11243   2.042   0.524   9.596  0.3163 -0.1171  0.2942
  109OSM   H11S11244   1.977   0.603   9.637  0.0267  0.0285 -0.4415
  109OSM   H11T11245   1.972   0.438   9.584  0.1964  0.0621 -0.3161
  109OSM   C12S11246   2.097   0.571   9.462 -0.3825  0.1343  0.8028
  109OSM   H12S11247   2.154   0.484   9.426 -0.8028 -0.2315  1.0099
  109OSM   H12T11248   2.161   0.660   9.481 -0.6348 -0.1767  3.4842
  109OSM   C13S11249   1.979   0.598   9.366 -0.1655 -0.0083  0.2769
  109OSM   H13S11250   1.906   0.677   9.392 -2.0590 -1.1542 -1.2472
  109OSM   H13T11251   1.925   0.502   9.351 -0.5036 -0.1665  2.3344
  109OSM   C14S11252   2.016   0.610   9.217 -0.6634  0.0323  0.0980
  109OSM   H14S11253   2.074   0.518   9.194 -1.1288 -0.3136  0.2986
  109OSM   H14T11254   2.091   0.693   9.215  2.5733 -2.6580  0.4204
  109OSM   C15S11255   1.909   0.631   9.115 -0.5569 -0.2977  0.3205
  109OSM   H15S11256   1.851   0.720   9.146  0.8398  0.9411 -0.4883
  109OSM   H15T11257   1.829   0.554   9.108  0.4264 -1.3480  0.3132
  109OSM   C16S11258   1.954   0.668   8.974 -1.0142  0.2780  0.5956
  109OSM   H16S11259   2.011   0.579   8.942  1.7134  1.1089  2.8282
  109OSM   H16T11260   2.018   0.759   8.979  2.7705 -2.1823  0.9541
  109OSM   C17S11261   1.840   0.688   8.875  0.3751  0.0884  0.7376
  109OSM   H17S11262   1.782   0.592   8.875  1.2935 -0.5196 -1.6578
  109OSM   H17T11263   1.874   0.690   8.770 -0.3692 -1.1642  0.4478
  109OSM   C18S11264   1.749   0.804   8.909 -0.1024  0.4456  0.4433
  109OSM   H18S11265   1.801   0.897   8.942 -0.3514  0.0886  1.9490
  109OSM   H18T11266   1.683   0.776   8.994  0.9092 -2.7340  0.3007
  109OSM   H18U11267   1.681   0.819   8.823  0.7661 -3.6774 -1.1402
  109OSM    C1F11268   1.960   0.286  10.639 -0.3879 -0.3495  0.5406
  109OSM     OF11269   1.851   0.309  10.680  0.4022  0.0843 -0.4044
  109OSM    C2F11270   2.002   0.140  10.618 -0.1284  0.0045 -0.0325
  109OSM    H2F11271   1.945   0.076  10.690 -1.0918  1.0681  0.1745
  109OSM    H2G11272   2.109   0.127  10.645 -0.0938  0.2269 -0.0704
  109OSM    C3F11273   1.966   0.089  10.482  0.0622  0.3800  0.3744
  109OSM    H3F11274   2.010   0.160  10.410  2.0293 -0.3571  0.8049
  109OSM    H3G11275   1.858   0.087  10.456  0.1242 -0.7279  0.1602
  109OSM    C4F11276   2.027  -0.048  10.462 -0.4148 -0.3375 -0.3450
  109OSM    H4F11277   1.953  -0.121  10.423 -2.2016  1.5927 -0.7505
  109OSM    H4G11278   2.060  -0.077  10.564 -2.0167 -0.2192  0.2202
  109OSM    C5F11279   2.158  -0.040  10.368 -0.1981  0.0369  0.0568
  109OSM    H5F11280   2.211  -0.137  10.357  1.2637  0.8360 -0.2884
  109OSM    H5G11281   2.232   0.035  10.403  2.4082 -1.6927 -1.4078
  109OSM    C6F11282   2.112   0.006  10.224 -0.2275 -0.3950  0.3226
  109OSM    H6F11283   2.119   0.116  10.216 -1.9458 -0.3434 -0.8483
  109OSM    H6G11284   2.006  -0.018  10.201 -0.4632  0.3980  0.5552
  109OSM    C7F11285   2.202  -0.054  10.119  0.1183  0.9063  1.3099
  109OSM    H7F11286   2.205  -0.164  10.132 -1.5718  0.7371  0.5324
  109OSM    H7G11287   2.303  -0.010  10.131  2.3144 -3.0506 -0.7215
  109OSM    C8F11288   2.148  -0.020   9.977  0.0428 -0.1066  0.2660
  109OSM    H8F11289   2.162   0.090   9.978 -0.5514 -0.0322  0.4467
  109OSM    H8G11290   2.039  -0.038   9.970  0.1741 -0.6637 -0.4296
  109OSM    C9F11291   2.228  -0.079   9.866 -0.2677  0.7029  0.7975
  109OSM    H9F11292   2.302  -0.156   9.894 -2.5303 -1.9799 -0.1639
  109OSM   C10F11293   2.197  -0.053   9.729  0.0308  0.0170  0.3499
  109OSM   H10F11294   2.254  -0.129   9.673 -0.8136 -3.5006  3.8049
  109OSM   C11F11295   2.091   0.030   9.665 -0.1077  0.3031 -1.3296
  109OSM   H11F11296   2.041   0.091   9.743  1.7334 -0.3106  0.4189
  109OSM   H11G11297   2.019  -0.040   9.618 -0.1261 -1.0139  0.5603
  109OSM   C12F11298   2.133   0.125   9.553  0.3042  0.4476 -0.9208
  109OSM   H12F11299   2.211   0.202   9.573  1.3504 -0.6487 -0.7049
  109OSM   H12G11300   2.043   0.185   9.526 -0.2572 -0.3618 -0.8874
  109OSM   C13F11301   2.181   0.051   9.427 -0.1561 -0.0490 -0.1471
  109OSM   H13F11302   2.115  -0.029   9.389  0.1349  0.8702 -2.7402
  109OSM   H13G11303   2.277   0.002   9.454 -0.4608 -1.0764 -0.8870
  109OSM   C14F11304   2.215   0.153   9.313 -0.6246  0.1388 -0.1841
  109OSM   H14F11305   2.291   0.222   9.355  0.1325 -0.9997  0.3826
  109OSM   H14G11306   2.126   0.213   9.286  0.8470  2.4662 -0.0851
  109OSM   C15F11307   2.270   0.093   9.191  0.3258  0.0258 -0.3847
  109OSM   H15F11308   2.208   0.007   9.157  0.7658 -0.6203  0.3976
  109OSM   H15G11309   2.367   0.053   9.228  1.4725  0.8981 -2.3003
  109OSM   C16F11310   2.314   0.186   9.078 -0.2288 -0.7497 -0.2375
  109OSM   H16F11311   2.401   0.252   9.103 -0.5067 -0.8749  1.1693
  109OSM   H16G11312   2.230   0.251   9.046  1.4239  0.5007 -2.3765
  109OSM   C17F11313   2.346   0.109   8.951  0.3616  0.3459  0.2379
  109OSM   H17F11314   2.259   0.042   8.938  0.6684 -0.6361  2.6731
  109OSM   H17G11315   2.431   0.037   8.962 -0.9868 -1.1951  0.9765
  109OSM   C18F11316   2.367   0.207   8.837 -0.1004  0.4344 -0.4732
  109OSM   H18F11317   2.419   0.162   8.750 -0.6163 -0.1760 -0.4786
  109OSM   H18G11318   2.429   0.297   8.857 -3.4990  3.2271 -1.4428
  109OSM   H18H11319   2.265   0.249   8.818  0.1109  1.2455  0.1375
  110OSM      N11320   1.581   6.540  10.795  0.1731 -0.2448 -0.8378
  110OSM    C1511321   1.438   6.578  10.833  0.6753  0.2035  0.4576
  110OSM   H15A11322   1.378   6.582  10.743  2.2885  0.6885 -0.6507
  110OSM   H15B11323   1.438   6.678  10.874  0.0860  0.9037 -1.1618
  110OSM   H15C11324   1.395   6.511  10.905 -0.8859  0.0621 -0.5707
  110OSM    C1411325   1.628   6.648  10.707  0.4557  0.4810  0.4090
  110OSM   H14A11326   1.732   6.632  10.681  0.2956 -0.9869  0.6011
  110OSM   H14B11327   1.627   6.742  10.761  2.9590  0.1342  1.2184
  110OSM   H14C11328   1.570   6.652  10.617  1.9886 -0.4193 -0.6640
  110OSM    C1311329   1.673   6.522  10.904 -0.2182 -1.0052 -0.3613
  110OSM   H13A11330   1.630   6.461  10.982 -2.4288 -0.6574 -1.2475
  110OSM   H13B11331   1.705   6.621  10.934 -2.0829 -0.6376  0.5648
  110OSM   H13C11332   1.760   6.467  10.872  1.2712  0.8583  0.3046
  110OSM    C1211333   1.579   6.412  10.708 -0.0160 -0.4752  0.0714
  110OSM   H12A11334   1.500   6.422  10.635  0.1035 -1.5596 -0.2122
  110OSM   H12B11335   1.556   6.325  10.767 -0.6487 -0.5815 -0.3132
  110OSM    C1111336   1.712   6.362  10.638  0.0387  0.4353  0.0161
  110OSM   H11A11337   1.743   6.447  10.575  4.1473 -0.0621  1.1153
  110OSM   H11B11338   1.702   6.277  10.567  0.7058 -0.1261  0.5855
  110OSM      P11339   1.965   6.374  10.736 -0.2115  0.1972 -0.2808
  110OSM    O1311340   1.964   6.521  10.750  0.1729  0.0531  0.2187
  110OSM    O1411341   2.036   6.302  10.845  0.1232 -0.9398  0.0798
  110OSM    O1111342   2.015   6.335  10.594 -0.1160  0.0458  0.0074
  110OSM    O1211343   1.814   6.327  10.733  0.4451 -0.2657 -0.1089
  110OSM    C1S11344   1.987   6.202  10.534  0.4737 -0.0393 -0.3278
  110OSM    H1S11345   1.877   6.193  10.522  0.4330  0.5808 -0.4688
  110OSM    H1T11346   2.028   6.122  10.599  2.4692  0.8469 -0.4096
  110OSM     NF11347   1.998   6.070  10.319 -0.3826 -0.0341 -0.3653
  110OSM    HNF11348   2.065   5.996  10.325  0.9467  1.2134  1.9681
  110OSM    C2S11349   2.053   6.190  10.395 -0.7506  0.3313  0.7685
  110OSM    H2S11350   2.025   6.279  10.335  1.9892  0.4793 -0.4225
  110OSM    C3S11351   2.209   6.206  10.412  0.2868  0.3004 -0.1757
  110OSM    H3S11352   2.250   6.112  10.456  0.0905  0.8430  1.2181
  110OSM     O311353   2.255   6.305  10.504  0.7529 -0.3918 -0.2679
  110OSM    HO311354   2.167   6.332  10.532  1.0637  0.2607  0.1073
  110OSM    C4S11355   2.280   6.223  10.280  0.1075  0.2054  0.4001
  110OSM    H4S11356   2.325   6.133  10.235 -1.8559 -1.2601  1.2190
  110OSM    C5S11357   2.287   6.339  10.214 -0.6869  0.9172 -0.8479
  110OSM    H5S11358   2.246   6.430  10.260 -2.8142 -0.0221 -0.7581
  110OSM    C6S11359   2.355   6.350  10.085 -0.6749 -0.3593  0.0931
  110OSM    H6S11360   2.452   6.296  10.076  0.0265  1.1511 -4.2124
  110OSM    H6T11361   2.389   6.455  10.067  0.6338 -0.9416 -1.0045
  110OSM    C7S11362   2.270   6.309   9.954  0.4328  0.0446  0.2550
  110OSM    H7S11363   2.178   6.371   9.943  1.6924  1.6973 -1.7394
  110OSM    H7T11364   2.226   6.208   9.970 -0.0367  0.1354 -0.3973
  110OSM    C8S11365   2.349   6.314   9.821  0.7805 -0.2657 -0.1196
  110OSM    H8S11366   2.407   6.223   9.792 -2.6350 -2.0937 -1.7885
  110OSM    H8T11367   2.410   6.405   9.842 -0.0030  0.2293  0.0281
  110OSM    C9S11368   2.261   6.350   9.706 -0.0814 -0.2959 -0.1390
  110OSM    H9S11369   2.209   6.447   9.718  0.5498  0.1526 -0.9539
  110OSM    H9T11370   2.172   6.283   9.699  0.0029 -0.4639  0.3984
  110OSM   C10S11371   2.343   6.374   9.581  0.0152 -0.3881 -0.2051
  110OSM   H10S11372   2.416   6.296   9.554  0.0832 -0.5226  0.3529
  110OSM   H10T11373   2.390   6.474   9.589 -0.1733 -0.2015 -1.2795
  110OSM   C11S11374   2.248   6.386   9.459  0.7834  0.8990 -0.6861
  110OSM   H11S11375   2.170   6.460   9.487 -0.3139 -0.3957 -0.2421
  110OSM   H11T11376   2.204   6.287   9.437  3.0919 -0.9731  2.3426
  110OSM   C12S11377   2.330   6.426   9.339  0.4046  0.0466  0.0869
  110OSM   H12S11378   2.409   6.354   9.311 -1.8897 -1.6731 -2.4630
  110OSM   H12T11379   2.378   6.524   9.359  0.8455 -0.4788  1.7652
  110OSM   C13S11380   2.240   6.444   9.223 -0.0262 -0.3566 -0.3772
  110OSM   H13S11381   2.166   6.526   9.237  0.0284  0.2346 -2.9733
  110OSM   H13T11382   2.180   6.353   9.202 -1.2868  0.6356 -1.2643
  110OSM   C14S11383   2.315   6.479   9.100  0.0028 -0.6774  0.5108
  110OSM   H14S11384   2.388   6.401   9.072  0.0596  0.1255 -1.8593
  110OSM   H14T11385   2.376   6.572   9.099  1.2691 -1.4671 -1.1425
  110OSM   C15S11386   2.227   6.493   8.973  0.0079 -0.4929  0.6316
  110OSM   H15S11387   2.146   6.567   8.988  0.5136  0.0566  0.7059
  110OSM   H15T11388   2.167   6.400   8.964  2.1362 -1.7722 -1.5840
  110OSM   C16S11389   2.309   6.510   8.833 -0.4276 -0.2080  0.1672
  110OSM   H16S11390   2.372   6.420   8.817 -0.6183 -0.2578 -0.3269
  110OSM   H16T11391   2.377   6.597   8.839 -1.3141  0.7745 -2.6851
  110OSM   C17S11392   2.222   6.536   8.710  0.0317  0.6623 -0.0285
  110OSM   H17S11393   2.158   6.625   8.727 -1.4016 -0.1731 -0.8577
  110OSM   H17T11394   2.154   6.450   8.692 -0.3380  0.7783  0.7641
  110OSM   C18S11395   2.303   6.554   8.580 -0.0287 -0.3518 -0.0051
  110OSM   H18S11396   2.341   6.456   8.544  1.4155  1.2301 -3.1933
  110OSM   H18T11397   2.393   6.617   8.599  0.4798 -0.9767 -0.3249
  110OSM   H18U11398   2.251   6.610   8.499 -0.9337 -1.0020  0.1226
  110OSM    C1F11399   1.869   6.052  10.298  0.4229 -0.0121 -0.2334
  110OSM     OF11400   1.787   6.135  10.312  0.1579 -0.9553 -0.0483
  110OSM    C2F11401   1.824   5.917  10.254  0.1677  0.3249  0.4987
  110OSM    H2F11402   1.799   5.853  10.342  0.5984  0.5903  0.8215
  110OSM    H2G11403   1.903   5.858  10.203  0.1840 -1.6402  2.6649
  110OSM    C3F11404   1.707   5.927  10.154  0.1160 -0.1214  0.9289
  110OSM    H3F11405   1.738   5.983  10.063 -1.8808  2.8382  1.9130
  110OSM    H3G11406   1.623   5.993  10.183 -0.6405 -0.2727 -0.7664
  110OSM    C4F11407   1.643   5.793  10.110  0.0417  0.6294 -0.1378
  110OSM    H4F11408   1.540   5.819  10.077  0.3429  0.7152 -1.0356
  110OSM    H4G11409   1.644   5.727  10.199  0.2596 -2.9760 -2.6070
  110OSM    C5F11410   1.708   5.715   9.999 -0.2969 -0.6688  0.3449
  110OSM    H5F11411   1.666   5.612  10.003 -0.8337 -0.4174  1.5419
  110OSM    H5G11412   1.816   5.698  10.016 -0.1139 -1.4181 -1.2906
  110OSM    C6F11413   1.687   5.782   9.862 -0.1554 -0.5448 -0.7803
  110OSM    H6F11414   1.753   5.872   9.862  0.4838 -0.9998 -1.9576
  110OSM    H6G11415   1.580   5.808   9.871  0.1403  0.3936  0.4115
  110OSM    C7F11416   1.713   5.700   9.734 -0.4334 -0.2340  0.1767
  110OSM    H7F11417   1.636   5.623   9.713  0.6720 -1.9024  1.9512
  110OSM    H7G11418   1.805   5.639   9.747 -0.0914 -0.6397 -3.2256
  110OSM    C8F11419   1.733   5.789   9.612  0.0681  0.6601 -0.3499
  110OSM    H8F11420   1.800   5.873   9.640 -0.1460  0.2960  1.3874
  110OSM    H8G11421   1.635   5.838   9.591 -0.6010  0.4171  1.8960
  110OSM    C9F11422   1.795   5.718   9.495 -0.2023 -0.6525  0.5777
  110OSM    H9F11423   1.901   5.689   9.508  0.4727  1.5013  0.3658
  110OSM   C10F11424   1.743   5.713   9.369  0.8320 -0.5342 -0.6292
  110OSM   H10F11425   1.803   5.674   9.286 -0.8468 -1.0934 -1.6287
  110OSM   C11F11426   1.614   5.772   9.338  0.3975 -0.0450 -0.1219
  110OSM   H11F11427   1.604   5.871   9.388  1.3070 -0.5999  1.2216
  110OSM   H11G11428   1.536   5.708   9.385  0.2085  0.4601  0.2614
  110OSM   C12F11429   1.602   5.791   9.192  0.6262 -0.2658 -0.1790
  110OSM   H12F11430   1.592   5.691   9.144  2.0423 -0.3984 -0.2500
  110OSM   H12G11431   1.692   5.845   9.155  1.0126 -0.7103  0.1058
  110OSM   C13F11432   1.464   5.861   9.164  0.4048 -0.4121 -0.2186
  110OSM   H13F11433   1.462   5.955   9.223  0.1372  1.4470 -2.9863
  110OSM   H13G11434   1.389   5.791   9.207  1.7059 -1.4633  0.4229
  110OSM   C14F11435   1.438   5.895   9.019  0.0868  1.0027 -0.1337
  110OSM   H14F11436   1.508   5.974   8.984  1.4479 -0.4492 -0.7575
  110OSM   H14G11437   1.339   5.945   9.003  0.4443  1.9322  0.4369
  110OSM   C15F11438   1.452   5.776   8.925 -0.4325 -0.3628 -0.3982
  110OSM   H15F11439   1.392   5.686   8.952 -0.3674 -0.2488  0.1495
  110OSM   H15G11440   1.554   5.732   8.931  0.8597  2.6334  1.6960
  110OSM   C16F11441   1.427   5.815   8.778  0.1638  0.3897  0.0683
  110OSM   H16F11442   1.495   5.901   8.761  1.6102 -0.6125  0.5898
  110OSM   H16G11443   1.328   5.864   8.766  0.7603  1.6480  0.0244
  110OSM   C17F11444   1.436   5.712   8.669  0.3766 -0.2026  0.0987
  110OSM   H17F11445   1.419   5.757   8.569 -0.4593 -0.1880  0.2397
  110OSM   H17G11446   1.351   5.646   8.694  0.6474  0.5723  3.6539
  110OSM   C18F11447   1.569   5.635   8.664 -0.5023 -0.2166 -0.4266
  110OSM   H18F11448   1.666   5.685   8.648  0.1831 -1.5858 -0.7382
  110OSM   H18G11449   1.566   5.565   8.578 -0.0931  2.0733 -2.3843
  110OSM   H18H11450   1.574   5.578   8.760 -1.3434 -3.5454 -2.2152
  111OSM      N11451   2.036   2.551  10.971 -0.9891 -0.4175  0.0765
  111OSM    C1511452   2.054   2.514  11.112 -0.4157 -0.4594  0.8536
  111OSM   H15A11453   1.962   2.486  11.161 -0.1835 -0.3056  1.3818
  111OSM   H15B11454   2.076   2.602  11.170 -0.5543  0.6006 -0.6229
  111OSM   H15C11455   2.115   2.429  11.137  1.7463  0.6141 -0.4300
  111OSM    C1411456   2.162   2.613  10.915 -0.4799 -0.4026  0.2361
  111OSM   H14A11457   2.177   2.716  10.944  1.8165 -0.5438 -0.2435
  111OSM   H14B11458   2.165   2.602  10.808  1.2496 -1.0668  0.3117
  111OSM   H14C11459   2.251   2.560  10.948 -0.0652 -1.1323 -1.9105
  111OSM    C1311460   2.004   2.433  10.895  0.3082 -0.3072  0.7053
  111OSM   H13A11461   1.931   2.363  10.933 -0.3992  1.1331  2.1444
  111OSM   H13B11462   2.089   2.370  10.879 -0.7244 -1.8449  1.0502
  111OSM   H13C11463   1.964   2.465  10.800  0.0153 -1.3182  0.4764
  111OSM    C1211464   1.927   2.657  10.952 -0.3770  0.0048  0.9042
  111OSM   H12A11465   1.935   2.742  11.018 -3.4248  4.1238 -3.3291
  111OSM   H12B11466   1.832   2.614  10.980 -1.5855  1.7164 -0.3039
  111OSM    C1111467   1.915   2.714  10.806  0.2853  0.0530 -0.6439
  111OSM   H11A11468   2.010   2.764  10.776 -0.0802  2.0982  1.3219
  111OSM   H11B11469   1.836   2.792  10.794 -0.3368 -0.7078 -1.6613
  111OSM      P11470   1.731   2.569  10.701 -0.2246  0.2988  0.2686
  111OSM    O1311471   1.723   2.459  10.610 -0.2341  0.0493  0.2825
  111OSM    O1411472   1.680   2.552  10.843 -0.4086 -0.2702  0.4748
  111OSM    O1111473   1.675   2.694  10.630 -0.6219 -0.8705  0.4139
  111OSM    O1211474   1.884   2.617  10.711 -0.2702  0.1827  0.2200
  111OSM    C1S11475   1.733   2.742  10.510 -0.0182 -0.1201  0.2406
  111OSM    H1S11476   1.842   2.756  10.524  0.1191 -1.2761  0.4224
  111OSM    H1T11477   1.687   2.842  10.496  2.5427  1.0030 -0.5885
  111OSM     NF11478   1.780   2.728  10.281 -0.0201 -0.0502  0.2216
  111OSM    HNF11479   1.730   2.803  10.237  2.3833  2.0483  0.8571
  111OSM    C2S11480   1.700   2.658  10.382  0.3210  0.1142  0.2617
  111OSM    H2S11481   1.741   2.555  10.392 -0.3059 -0.2282 -0.5821
  111OSM    C3S11482   1.544   2.654  10.359  0.1570 -0.3138  0.4038
  111OSM    H3S11483   1.510   2.758  10.339  1.2658  0.2917  1.5661
  111OSM     O311484   1.468   2.616  10.476 -0.2986 -0.0959  0.1499
  111OSM    HO311485   1.521   2.619  10.556 -1.2759  1.2293  0.7794
  111OSM    C4S11486   1.519   2.560  10.244  0.0416 -0.0718 -0.4105
  111OSM    H4S11487   1.510   2.613  10.148  1.1075 -0.4532 -0.7352
  111OSM    C5S11488   1.505   2.425  10.243  0.5711  0.4063  0.3601
  111OSM    H5S11489   1.517   2.366  10.334  1.5278  0.7238  0.4460
  111OSM    C6S11490   1.480   2.338  10.115  0.0472  0.5702  0.3787
  111OSM    H6S11491   1.390   2.274  10.128  0.8690 -0.1931  2.9530
  111OSM    H6T11492   1.568   2.271  10.110 -0.1483  0.3910 -1.0609
  111OSM    C7S11493   1.448   2.401   9.979  0.4146  0.0376 -0.0613
  111OSM    H7S11494   1.532   2.459   9.936  1.0882 -0.5187  0.4720
  111OSM    H7T11495   1.354   2.459   9.993 -1.0934 -1.9689 -1.3456
  111OSM    C8S11496   1.414   2.309   9.863  0.4530  0.7228  0.6591
  111OSM    H8S11497   1.326   2.252   9.901  0.1313  0.4424 -0.4628
  111OSM    H8T11498   1.488   2.231   9.837 -0.2244  0.1335  0.4603
  111OSM    C9S11499   1.378   2.378   9.734  0.7734 -0.0341 -0.2141
  111OSM    H9S11500   1.459   2.447   9.704  1.3219 -0.3539  0.5070
  111OSM    H9T11501   1.284   2.431   9.761  0.1640 -0.8433 -0.6728
  111OSM   C10S11502   1.348   2.285   9.615  0.2357 -0.1804  0.2748
  111OSM   H10S11503   1.255   2.236   9.649  0.1654  1.3308  2.4509
  111OSM   H10T11504   1.427   2.207   9.613  1.1854  0.7603 -1.0607
  111OSM   C11S11505   1.326   2.349   9.479 -0.4414  0.0187  0.2026
  111OSM   H11S11506   1.289   2.265   9.417  1.0805  0.9102 -2.0719
  111OSM   H11T11507   1.421   2.376   9.428 -0.3256  0.0458  0.4316
  111OSM   C12S11508   1.222   2.465   9.473 -0.1151 -0.1751  0.8694
  111OSM   H12S11509   1.271   2.557   9.513  0.1581  1.1969 -2.2354
  111OSM   H12T11510   1.134   2.454   9.539  0.9339 -0.0666  2.3194
  111OSM   C13S11511   1.175   2.509   9.330  0.2898  0.7788 -0.2027
  111OSM   H13S11512   1.108   2.425   9.301 -1.1142  1.3612  1.2140
  111OSM   H13T11513   1.259   2.507   9.258 -1.0588  0.8390 -1.8543
  111OSM   C14S11514   1.103   2.641   9.328  0.6879  0.0580 -0.0554
  111OSM   H14S11515   1.182   2.708   9.368  0.2780  0.3716  0.2302
  111OSM   H14T11516   1.010   2.635   9.389 -1.0927 -2.4671 -2.7385
  111OSM   C15S11517   1.064   2.691   9.190 -0.4032 -0.7806  0.4918
  111OSM   H15S11518   0.997   2.624   9.131  0.1035  0.2197 -1.2865
  111OSM   H15T11519   1.159   2.688   9.132 -1.3813  1.1803 -1.3834
  111OSM   C16S11520   1.000   2.835   9.190  0.2126  0.3178 -0.0826
  111OSM   H16S11521   1.068   2.886   9.262  1.0916 -2.8359  1.4798
  111OSM   H16T11522   0.894   2.822   9.221 -0.3434 -0.4403 -2.1545
  111OSM   C17S11523   1.006   2.905   9.050 -0.0668 -0.1652 -1.0688
  111OSM   H17S11524   0.944   2.839   8.985 -2.5874  1.9402 -0.9626
  111OSM   H17T11525   1.113   2.916   9.024 -0.0647  1.8280 -0.3609
  111OSM   C18S11526   0.948   3.050   9.054  1.0870  0.1065  0.2197
  111OSM   H18S11527   0.841   3.046   9.084  1.6541 -3.0545  2.1859
  111OSM   H18T11528   0.947   3.089   8.949 -0.4929 -3.6399 -1.3304
  111OSM   H18U11529   1.011   3.118   9.115 -1.4878  1.8111  1.1856
  111OSM    C1F11530   1.913   2.731  10.256  0.2743 -0.9065 -0.2977
  111OSM     OF11531   1.976   2.660  10.326  0.1172  0.8941  0.4874
  111OSM    C2F11532   1.972   2.820  10.151  0.0094  0.0493  0.3363
  111OSM    H2F11533   1.915   2.914  10.135 -2.4391 -1.1589  1.3631
  111OSM    H2G11534   1.954   2.758  10.060 -0.7647 -1.2591  1.3324
  111OSM    C3F11535   2.125   2.835  10.168 -0.6657  0.0377  0.1753
  111OSM    H3F11536   2.175   2.737  10.181 -0.0882 -0.2522 -3.3607
  111OSM    H3G11537   2.137   2.898  10.259 -1.8886 -1.5398  1.4918
  111OSM    C4F11538   2.212   2.896  10.057  0.8210 -0.3078 -0.7837
  111OSM    H4F11539   2.316   2.900  10.095  1.2104 -1.5829 -1.6566
  111OSM    H4G11540   2.180   3.000  10.033 -1.3812 -1.3043 -2.5309
  111OSM    C5F11541   2.210   2.812   9.935 -0.7335  0.9632 -0.1039
  111OSM    H5F11542   2.109   2.821   9.890 -0.4161 -1.5796 -1.4753
  111OSM    H5G11543   2.213   2.704   9.959  1.5789  0.8400 -0.7053
  111OSM    C6F11544   2.310   2.845   9.825  0.6193 -0.2416 -0.5972
  111OSM    H6F11545   2.410   2.809   9.858 -0.2442 -1.4423  0.8462
  111OSM    H6G11546   2.310   2.956   9.819 -1.4567 -0.0782  1.0166
  111OSM    C7F11547   2.271   2.781   9.694 -0.3098 -0.4205  0.2963
  111OSM    H7F11548   2.162   2.779   9.671 -0.1479  1.6147 -0.8568
  111OSM    H7G11549   2.304   2.675   9.705  0.8970  0.1902  3.2535
  111OSM    C8F11550   2.345   2.833   9.562  0.3248 -0.2581  0.4419
  111OSM    H8F11551   2.315   2.761   9.483 -2.7706  0.3134  0.9692
  111OSM    H8G11552   2.452   2.815   9.589  0.7420  1.4355  0.0485
  111OSM    C9F11553   2.318   2.978   9.533 -0.1886  0.8590 -0.2085
  111OSM    H9F11554   2.320   3.042   9.623  3.3542 -0.8672  1.1280
  111OSM   C10F11555   2.287   3.028   9.418  0.1945  0.3823  0.9946
  111OSM   H10F11556   2.256   3.133   9.411  0.8722  0.6441  1.7179
  111OSM   C11F11557   2.272   2.958   9.283 -0.0383  0.2631 -0.4743
  111OSM   H11F11558   2.166   2.954   9.251 -0.6090 -0.1988  1.3301
  111OSM   H11G11559   2.306   2.852   9.297  0.8771  0.3778 -1.7013
  111OSM   C12F11560   2.350   3.033   9.176 -0.3566 -0.1734  0.9972
  111OSM   H12F11561   2.314   3.137   9.163 -0.1059  0.1408  2.6887
  111OSM   H12G11562   2.327   2.972   9.086 -0.0492 -3.2876  2.8892
  111OSM   C13F11563   2.496   3.036   9.205  0.5101  0.2731 -0.1267
  111OSM   H13F11564   2.534   2.935   9.233  0.6186 -0.4516 -2.7072
  111OSM   H13G11565   2.528   3.097   9.293  3.4952 -0.9330 -0.2401
  111OSM   C14F11566   2.586   3.083   9.092  0.1060  0.1428  0.0051
  111OSM   H14F11567   2.554   3.174   9.037 -0.3793 -0.8096 -1.3374
  111OSM   H14G11568   2.572   3.002   9.018  1.3359 -0.9694  0.9491
  111OSM   C15F11569   2.732   3.083   9.131  0.3296 -0.4517  0.2768
  111OSM   H15F11570   2.748   2.991   9.192 -1.3930  0.2100  1.8320
  111OSM   H15G11571   2.749   3.172   9.196  0.3903  0.0931 -0.4764
  111OSM   C16F11572   2.839   3.079   9.025 -0.2306 -0.0484  0.3310
  111OSM   H16F11573   2.812   2.990   8.963  0.8771  0.6398 -1.2170
  111OSM   H16G11574   2.943   3.081   9.062  0.1802 -1.4433 -0.6614
  111OSM   C17F11575   2.820   3.211   8.936  0.4287 -0.0883 -0.3181
  111OSM   H17F11576   2.795   3.294   9.006 -0.4256 -0.6158  0.0179
  111OSM   H17G11577   2.738   3.207   8.862  1.7291  0.8684 -1.8787
  111OSM   C18F11578   2.943   3.253   8.855  0.1338  0.6008 -0.4483
  111OSM   H18F11579   3.034   3.253   8.918 -1.7110  3.1862  2.5700
  111OSM   H18G11580   2.917   3.351   8.809 -0.0944  1.5169  1.4935
  111OSM   H18H11581   2.942   3.191   8.764  0.2254 -1.7040  1.0468
  112OSM      N11582   2.011   1.572  11.037  0.2995  0.2000 -0.4607
  112OSM    C1511583   1.981   1.633  11.164  0.9149 -0.1159  0.2305
  112OSM   H15A11584   1.921   1.719  11.139  1.2108  0.8272  2.5085
  112OSM   H15B11585   2.061   1.656  11.233  1.3431  0.9205 -0.5757
  112OSM   H15C11586   1.900   1.574  11.204 -2.1768  1.1401 -3.5379
  112OSM    C1411587   1.889   1.560  10.955  0.2682  0.3273 -0.0026
  112OSM   H14A11588   1.847   1.660  10.960 -0.2968  0.1006 -0.1505
  112OSM   H14B11589   1.815   1.489  10.989 -2.0449  2.8804  0.6597
  112OSM   H14C11590   1.915   1.539  10.853 -0.3467 -2.2962  0.3171
  112OSM    C1311591   2.099   1.671  10.959 -0.5453 -0.3032 -0.3106
  112OSM   H13A11592   2.043   1.760  10.936  0.5399  0.3190 -0.6229
  112OSM   H13B11593   2.142   1.635  10.867  0.4485  2.6054 -1.0748
  112OSM   H13C11594   2.185   1.694  11.020 -0.4763 -0.3558 -0.3866
  112OSM    C1211595   2.081   1.445  11.045  1.0529  0.4707 -0.2653
  112OSM   H12A11596   2.101   1.408  10.946 -0.6645 -2.7244  0.4436
  112OSM   H12B11597   2.007   1.380  11.090 -1.3211  1.9186 -1.8700
  112OSM    C1111598   2.219   1.444  11.121 -0.0507 -0.2547  0.5159
  112OSM   H11A11599   2.259   1.341  11.138  0.0473 -0.1641  0.8453
  112OSM   H11B11600   2.209   1.489  11.222  0.3317  0.2184  0.3468
  112OSM      P11601   2.460   1.526  11.066  0.1106 -0.4331 -0.0547
  112OSM    O1311602   2.489   1.671  11.074  0.0606 -0.2448  0.2276
  112OSM    O1411603   2.510   1.451  11.180 -0.2255  0.1063 -0.5568
  112OSM    O1111604   2.519   1.471  10.935 -0.1642  0.0246  0.6313
  112OSM    O1211605   2.305   1.514  11.044 -0.2514 -0.3069  0.1990
  112OSM    C1S11606   2.440   1.383  10.856  0.6598 -0.1442 -0.3815
  112OSM    H1S11607   2.347   1.432  10.821 -0.5367 -1.0850  1.3579
  112OSM    H1T11608   2.414   1.298  10.923 -0.3601  1.3659  1.2242
  112OSM     NF11609   2.441   1.256  10.644  0.1199  0.4361 -0.5424
  112OSM    HNF11610   2.444   1.156  10.649  1.3020  0.3822 -1.7692
  112OSM    C2S11611   2.522   1.339  10.733 -0.2295 -0.8427 -0.1924
  112OSM    H2S11612   2.553   1.429  10.676  0.2756  0.1949  1.6154
  112OSM    C3S11613   2.648   1.268  10.776 -0.0636  0.1711 -0.8801
  112OSM    H3S11614   2.615   1.188  10.846  0.3559  2.2841  1.9400
  112OSM     O311615   2.734   1.351  10.856  0.3413 -0.3589 -0.5116
  112OSM    HO311616   2.680   1.428  10.875  0.4425  0.0423 -1.7536
  112OSM    C4S11617   2.730   1.214  10.660  0.3639  0.7626  0.2255
  112OSM    H4S11618   2.705   1.112  10.624  1.5537  1.0858 -1.6870
  112OSM    C5S11619   2.847   1.268  10.605 -0.0763 -0.8743  0.7744
  112OSM    H5S11620   2.873   1.370  10.636 -0.1676 -0.8297  0.7028
  112OSM    C6S11621   2.922   1.203  10.492  0.0065 -0.6308  0.3442
  112OSM    H6S11622   2.906   1.093  10.492  0.3548 -0.6842  0.8825
  112OSM    H6T11623   3.032   1.200  10.509 -0.1081  1.2813  1.7554
  112OSM    C7S11624   2.882   1.257  10.352  0.0014  0.3886  0.0825
  112OSM    H7S11625   2.905   1.366  10.355 -1.0330  0.6220  2.8117
  112OSM    H7T11626   2.776   1.227  10.340 -0.9838  3.2162  0.9515
  112OSM    C8S11627   2.957   1.180  10.238 -0.1361  0.0494  0.1563
  112OSM    H8S11628   2.932   1.072  10.230  1.0558 -0.1677 -0.9510
  112OSM    H8T11629   3.068   1.182  10.245  0.1948  0.5316 -3.4312
  112OSM    C9S11630   2.932   1.251  10.098 -0.5012  0.3611 -0.0567
  112OSM    H9S11631   2.942   1.359  10.122 -1.3069  0.4591 -0.1406
  112OSM    H9T11632   2.831   1.217  10.066 -0.1007 -1.5662  0.5907
  112OSM   C10S11633   3.028   1.202   9.993  0.0616  0.0955 -0.3503
  112OSM   H10S11634   3.069   1.102  10.018  1.5475  1.1054  1.5817
  112OSM   H10T11635   3.126   1.255  10.001  0.4336 -0.7890  1.4765
  112OSM   C11S11636   2.980   1.213   9.848  0.2566 -0.9930 -0.0729
  112OSM   H11S11637   2.874   1.184   9.829 -0.0641  0.6498 -0.9264
  112OSM   H11T11638   3.037   1.138   9.789  1.1775 -0.2316 -0.1795
  112OSM   C12S11639   2.991   1.366   9.805  0.6057 -0.0718 -0.4612
  112OSM   H12S11640   3.100   1.386   9.814  0.5931 -0.3434  0.3715
  112OSM   H12T11641   2.931   1.423   9.878 -2.8443 -2.9280 -0.8038
  112OSM   C13S11642   2.930   1.403   9.667 -0.1267  0.0715 -0.3973
  112OSM   H13S11643   2.874   1.499   9.678 -1.6651 -0.8604  0.2385
  112OSM   H13T11644   2.860   1.324   9.636 -0.1965  0.1136 -0.3482
  112OSM   C14S11645   3.033   1.407   9.555  0.0344  0.4831 -0.7014
  112OSM   H14S11646   3.068   1.301   9.551 -0.1832  0.3307  0.8852
  112OSM   H14T11647   3.118   1.474   9.575  0.3516  0.1059 -0.7722
  112OSM   C15S11648   2.959   1.426   9.421 -0.9081 -0.4103 -0.3413
  112OSM   H15S11649   2.920   1.528   9.403 -2.3037 -0.4343  2.1870
  112OSM   H15T11650   2.879   1.350   9.417 -1.5659  0.1966  0.7405
  112OSM   C16S11651   3.045   1.387   9.300 -0.1503  0.8213 -0.2438
  112OSM   H16S11652   3.101   1.296   9.330 -1.9688 -0.7200 -1.3015
  112OSM   H16T11653   3.108   1.475   9.273  0.0026  0.4172 -1.2373
  112OSM   C17S11654   2.963   1.365   9.174 -0.3700 -0.2249  0.1489
  112OSM   H17S11655   2.894   1.446   9.143 -0.4685 -0.4812 -0.3089
  112OSM   H17T11656   2.887   1.285   9.187 -1.7193  0.4844 -2.5738
  112OSM   C18S11657   3.047   1.337   9.041 -0.4767 -0.3384  0.3931
  112OSM   H18S11658   2.991   1.322   8.947  2.8387 -0.9335 -1.6508
  112OSM   H18T11659   3.105   1.244   9.059 -0.2036  0.1511  2.2671
  112OSM   H18U11660   3.114   1.424   9.023  0.0840  0.1255  3.9222
  112OSM    C1F11661   2.342   1.308  10.569  0.3057  0.9970  0.1005
  112OSM     OF11662   2.310   1.423  10.580  0.1479  0.4343 -0.1527
  112OSM    C2F11663   2.272   1.215  10.480  0.0399  0.3325 -0.0710
  112OSM    H2F11664   2.167   1.252  10.472 -0.3383 -0.0436  2.3489
  112OSM    H2G11665   2.257   1.116  10.529  0.1272  1.4671  2.3880
  112OSM    C3F11666   2.323   1.212  10.332  0.1978  0.5557  0.4341
  112OSM    H3F11667   2.430   1.186  10.345  0.1577 -0.7199 -1.4018
  112OSM    H3G11668   2.326   1.308  10.276  0.8389 -0.3744 -1.1992
  112OSM    C4F11669   2.260   1.107  10.246  0.0906 -0.1605 -0.1422
  112OSM    H4F11670   2.151   1.125  10.237 -0.0796 -0.8783  0.4449
  112OSM    H4G11671   2.282   1.007  10.288  1.2474 -0.6572 -1.8017
  112OSM    C5F11672   2.304   1.106  10.096 -0.6982 -0.2934  0.6853
  112OSM    H5F11673   2.414   1.093  10.097 -0.6234  0.3114  1.1529
  112OSM    H5G11674   2.284   1.199  10.038  0.0673 -1.5104 -1.6426
  112OSM    C6F11675   2.251   0.991  10.014 -0.0744  0.6199 -0.6146
  112OSM    H6F11676   2.142   0.986  10.035 -0.1772  0.3049 -1.2025
  112OSM    H6G11677   2.290   0.906  10.073  2.1552  0.8073 -1.7456
  112OSM    C7F11678   2.284   0.990   9.864 -0.5491 -1.2778 -0.4078
  112OSM    H7F11679   2.393   0.967   9.858  0.1616  1.3285  1.0399
  112OSM    H7G11680   2.269   1.091   9.821  2.1070 -1.0421 -0.9411
  112OSM    C8F11681   2.210   0.885   9.786 -0.7163  0.0262  0.6015
  112OSM    H8F11682   2.101   0.905   9.775 -0.4101  1.1714 -0.6326
  112OSM    H8G11683   2.233   0.793   9.844  2.6146 -1.1605 -2.3004
  112OSM    C9F11684   2.274   0.862   9.648 -0.4583  0.2678  0.2882
  112OSM    H9F11685   2.365   0.800   9.646  1.0820  2.4296 -0.1467
  112OSM   C10F11686   2.229   0.914   9.536 -0.1104 -0.5567 -0.3994
  112OSM   H10F11687   2.294   0.895   9.450  1.2605 -0.9040  0.6695
  112OSM   C11F11688   2.120   1.011   9.524 -0.5144 -0.2550  1.2250
  112OSM   H11F11689   2.159   1.114   9.538  3.4368 -1.1401 -1.6441
  112OSM   H11G11690   2.032   0.989   9.589 -2.7109 -0.4559 -1.6483
  112OSM   C12F11691   2.065   1.003   9.383  0.3037 -0.1289 -0.1840
  112OSM   H12F11692   1.969   1.059   9.380  0.2906 -0.0954  0.5377
  112OSM   H12G11693   2.027   0.901   9.365  0.5945 -0.2758  0.0212
  112OSM   C13F11694   2.152   1.052   9.267  0.6597  0.0814 -0.2109
  112OSM   H13F11695   2.242   0.988   9.253  0.1760 -0.9564  1.1733
  112OSM   H13G11696   2.185   1.155   9.288 -0.1365 -0.1413  2.5201
  112OSM   C14F11697   2.070   1.061   9.138  0.4864 -0.4374 -0.5138
  112OSM   H14F11698   1.968   1.096   9.168 -0.1163 -1.7741 -0.9157
  112OSM   H14G11699   2.055   0.962   9.091  0.9929 -0.7823  0.0439
  112OSM   C15F11700   2.120   1.154   9.029 -0.4167 -0.4162  0.8880
  112OSM   H15F11701   2.214   1.105   8.994 -0.0285  0.1083  1.1735
  112OSM   H15G11702   2.151   1.251   9.073 -0.6525 -0.2244  0.6344
  112OSM   C16F11703   2.041   1.164   8.904 -0.1942  0.2100  0.9735
  112OSM   H16F11704   1.945   1.220   8.908 -0.9957 -1.1152  0.9114
  112OSM   H16G11705   2.024   1.065   8.857 -0.3601  0.7312 -0.1031
  112OSM   C17F11706   2.125   1.242   8.808 -0.4040 -0.0971  0.5929
  112OSM   H17F11707   2.229   1.209   8.787 -0.4723  0.3354 -0.4956
  112OSM   H17G11708   2.134   1.347   8.842 -0.5561  0.0257  0.2579
  112OSM   C18F11709   2.068   1.253   8.661 -0.0614 -0.2701  0.1244
  112OSM   H18F11710   2.121   1.331   8.602  0.6631  0.0654  1.1686
  112OSM   H18G11711   1.957   1.251   8.666 -0.0332  0.1902  1.6122
  112OSM   H18H11712   2.092   1.157   8.612 -1.0223  0.2038 -1.3427
  113OSM      N11713   5.984   4.704  10.733  0.2269 -0.2922  0.2698
  113OSM    C1511714   5.986   4.768  10.594 -0.1387  1.0889  0.2688
  113OSM   H15A11715   5.949   4.869  10.598 -0.6176  0.8841  2.3178
  113OSM   H15B11716   5.907   4.724  10.535  0.2566  0.8756 -0.1077
  113OSM   H15C11717   6.082   4.756  10.546  0.8135 -0.1183  2.3425
  113OSM    C1411718   5.998   4.549  10.720  0.3259 -0.9439 -1.0370
  113OSM   H14A11719   6.095   4.526  10.679  0.0295  0.2474 -2.4782
  113OSM   H14B11720   5.920   4.511  10.657 -0.3271  1.3712 -1.7549
  113OSM   H14C11721   5.986   4.503  10.817 -0.7791  2.7271  0.7642
  113OSM    C1311722   6.107   4.745  10.801  0.7350 -0.2836  0.3701
  113OSM   H13A11723   6.098   4.851  10.825  0.4318  0.4776 -2.7282
  113OSM   H13B11724   6.196   4.740  10.740  0.8470  1.3067  0.3483
  113OSM   H13C11725   6.115   4.690  10.893  0.2461  0.3835  0.8298
  113OSM    C1211726   5.865   4.750  10.822 -0.5323 -0.6107  0.1199
  113OSM   H12A11727   5.889   4.752  10.927 -1.2615  0.3250  0.2746
  113OSM   H12B11728   5.776   4.694  10.798 -0.0138 -0.8588 -1.3603
  113OSM    C1111729   5.815   4.902  10.799  1.1455  0.0780 -0.0282
  113OSM   H11A11730   5.722   4.889  10.859  1.2028  1.7817  0.4681
  113OSM   H11B11731   5.787   4.917  10.693 -1.4094  2.8262  0.8897
  113OSM      P11732   5.845   5.117  10.940 -0.0401  0.2751  0.0379
  113OSM    O1311733   5.819   5.068  11.076 -0.2540  0.3560 -0.1302
  113OSM    O1411734   5.926   5.244  10.935  1.0204  0.5476  0.1367
  113OSM    O1111735   5.700   5.135  10.865 -0.4271  0.2047  0.5610
  113OSM    O1211736   5.901   4.996  10.858  0.6572  0.0008 -0.0911
  113OSM    C1S11737   5.699   5.229  10.757  0.4224  0.5836 -0.0312
  113OSM    H1S11738   5.738   5.176  10.667  0.5394  0.2342  0.2252
  113OSM    H1T11739   5.757   5.322  10.778  0.8649  0.3085 -0.0192
  113OSM     NF11740   5.541   5.334  10.602 -0.0401  0.6151  0.8424
  113OSM    HNF11741   5.551   5.433  10.605 -0.3073  0.7949 -1.8758
  113OSM    C2S11742   5.550   5.259  10.721  0.2750 -1.3782 -0.0233
  113OSM    H2S11743   5.493   5.165  10.702  0.2227 -1.2345 -0.6229
  113OSM    C3S11744   5.472   5.323  10.839  0.7424  0.2190 -0.3789
  113OSM    H3S11745   5.517   5.424  10.853  0.0852  0.5301 -0.4904
  113OSM     O311746   5.481   5.260  10.968  0.5386  0.3335 -0.3571
  113OSM    HO311747   5.562   5.209  10.964  1.2507  1.1626  1.9955
  113OSM    C4S11748   5.324   5.339  10.801  0.5063  0.4437  1.2199
  113OSM    H4S11749   5.277   5.253  10.752 -0.4378  2.0613 -0.9090
  113OSM    C5S11750   5.249   5.448  10.813 -0.1510  0.0810 -0.0344
  113OSM    H5S11751   5.290   5.538  10.861 -2.1625  0.5454  0.9311
  113OSM    C6S11752   5.108   5.467  10.772  0.0560 -0.1285 -0.0156
  113OSM    H6S11753   5.088   5.576  10.761 -0.7937 -0.3677 -1.1727
  113OSM    H6T11754   5.029   5.430  10.841 -0.2453 -0.5240 -0.5631
  113OSM    C7S11755   5.088   5.396  10.632  0.1415  0.2523 -0.1817
  113OSM    H7S11756   4.977   5.390  10.627  0.0250 -0.0578  2.0356
  113OSM    H7T11757   5.114   5.288  10.630  1.0252  0.3770  1.8724
  113OSM    C8S11758   5.126   5.492  10.524 -0.5264  0.1894 -0.6086
  113OSM    H8S11759   5.233   5.517  10.541  0.0372 -1.7992 -0.9806
  113OSM    H8T11760   5.080   5.593  10.528 -0.5116  0.1571  0.5789
  113OSM    C9S11761   5.104   5.417  10.389  0.6059 -0.1260  0.3159
  113OSM    H9S11762   4.996   5.390  10.390  1.0348 -1.9078  0.5442
  113OSM    H9T11763   5.159   5.321  10.392 -1.0486 -1.1073  0.3925
  113OSM   C10S11764   5.144   5.502  10.274 -0.1740  0.2841 -0.0577
  113OSM   H10S11765   5.251   5.530  10.283  0.4400 -1.0996 -2.1809
  113OSM   H10T11766   5.081   5.593  10.276 -1.1315 -0.3492 -0.7019
  113OSM   C11S11767   5.124   5.440  10.137 -0.2418 -0.2137 -0.0559
  113OSM   H11S11768   5.110   5.513  10.054  1.8057  0.6201  0.2876
  113OSM   H11T11769   5.034   5.374  10.134 -0.7812  0.5275 -0.8494
  113OSM   C12S11770   5.245   5.362  10.101 -0.3196 -0.2071 -0.5216
  113OSM   H12S11771   5.269   5.303  10.192  0.8131  1.4185  0.2909
  113OSM   H12T11772   5.322   5.442  10.096  1.2900 -1.4863  1.8220
  113OSM   C13S11773   5.227   5.274   9.973 -0.7124  0.1575  0.4686
  113OSM   H13S11774   5.134   5.214   9.971  0.3442 -1.6771  1.9601
  113OSM   H13T11775   5.313   5.203   9.977 -1.1258 -0.3560  0.3621
  113OSM   C14S11776   5.229   5.335   9.832  0.3357 -1.4589  0.4670
  113OSM   H14S11777   5.315   5.404   9.820 -1.8240  1.3578  0.0418
  113OSM   H14T11778   5.137   5.397   9.827 -0.0730 -2.1201 -1.1245
  113OSM   C15S11779   5.217   5.242   9.711  0.0425  0.9181 -0.1031
  113OSM   H15S11780   5.131   5.174   9.730 -0.9661  2.1226 -0.2245
  113OSM   H15T11781   5.311   5.186   9.697 -0.0818  0.9105 -0.9469
  113OSM   C16S11782   5.212   5.326   9.580  0.1805  0.1456  0.6014
  113OSM   H16S11783   5.295   5.400   9.594  0.6457 -0.2403 -0.0519
  113OSM   H16T11784   5.124   5.392   9.572  0.9214  1.0515 -0.3894
  113OSM   C17S11785   5.249   5.236   9.465 -0.4729  0.1821  0.5366
  113OSM   H17S11786   5.191   5.142   9.479  1.0618 -0.8082  0.4627
  113OSM   H17T11787   5.355   5.206   9.476 -0.1099 -0.2983 -3.1491
  113OSM   C18S11788   5.215   5.302   9.325 -0.3329 -0.6848  0.1306
  113OSM   H18S11789   5.242   5.227   9.248 -0.4103 -0.9020  0.3153
  113OSM   H18T11790   5.273   5.396   9.313  2.0800 -2.2484 -1.1905
  113OSM   H18U11791   5.106   5.317   9.309 -0.1423 -0.3056 -0.8277
  113OSM    C1F11792   5.579   5.284  10.487 -0.0567 -0.1301 -0.9575
  113OSM     OF11793   5.581   5.165  10.465 -0.5237 -0.2043  0.5872
  113OSM    C2F11794   5.622   5.376  10.372  0.5797 -0.0219 -0.1253
  113OSM    H2F11795   5.722   5.412  10.403  0.2059 -0.4822  1.7354
  113OSM    H2G11796   5.553   5.463  10.367  1.7481  0.9169 -0.4321
  113OSM    C3F11797   5.614   5.300  10.237  0.4172  0.2353  0.0375
  113OSM    H3F11798   5.530   5.228  10.230  1.6961 -1.1638 -1.9678
  113OSM    H3G11799   5.709   5.243  10.238 -0.0061 -0.5148  1.9956
  113OSM    C4F11800   5.614   5.390  10.112  0.5188 -0.5535  0.0959
  113OSM    H4F11801   5.702   5.458  10.111 -0.4531  0.7572 -0.9748
  113OSM    H4G11802   5.530   5.462  10.103  1.4898  0.4893 -1.0252
  113OSM    C5F11803   5.639   5.320   9.978  0.5829 -0.1081  0.1410
  113OSM    H5F11804   5.567   5.236   9.979  1.9204 -1.2910  0.6427
  113OSM    H5G11805   5.740   5.273   9.978  1.0064  0.7658  0.6668
  113OSM    C6F11806   5.619   5.416   9.860  0.2905 -0.6305 -0.4015
  113OSM    H6F11807   5.688   5.502   9.878  0.1963 -0.6035 -0.1684
  113OSM    H6G11808   5.518   5.463   9.860  0.6480  0.3309  2.5985
  113OSM    C7F11809   5.639   5.338   9.727 -0.1683  0.3976  0.1908
  113OSM    H7F11810   5.559   5.262   9.715  0.0601  0.2034 -0.1304
  113OSM    H7G11811   5.731   5.276   9.738  0.4108  1.2738  0.3893
  113OSM    C8F11812   5.634   5.424   9.595  0.2023  0.7754 -0.1832
  113OSM    H8F11813   5.545   5.490   9.593 -0.9912 -0.6124  2.1437
  113OSM    H8G11814   5.608   5.352   9.515 -1.0025  3.0719 -1.9597
  113OSM    C9F11815   5.757   5.518   9.585  0.4910 -0.2624 -0.3186
  113OSM    H9F11816   5.779   5.580   9.673  3.2124 -0.2365 -0.9159
  113OSM   C10F11817   5.851   5.520   9.485  0.2739 -0.2562  0.1834
  113OSM   H10F11818   5.945   5.572   9.510  0.3459 -1.1216  1.8764
  113OSM   C11F11819   5.860   5.424   9.360  0.5685 -0.0795  0.5411
  113OSM   H11F11820   5.887   5.476   9.265  1.0901 -1.6845 -0.2282
  113OSM   H11G11821   5.763   5.372   9.348  1.4007 -2.3356  2.7548
  113OSM   C12F11822   5.963   5.308   9.379 -0.2576  0.1003 -0.4778
  113OSM   H12F11823   6.065   5.348   9.397 -0.2417 -0.5305  0.9373
  113OSM   H12G11824   5.967   5.253   9.284 -0.6104 -0.0070 -0.4336
  113OSM   C13F11825   5.922   5.211   9.485  0.1246  0.8629  0.0672
  113OSM   H13F11826   5.812   5.193   9.479  0.0242  0.9472  1.3268
  113OSM   H13G11827   5.928   5.263   9.583  0.3382 -0.5328  0.8184
  113OSM   C14F11828   6.010   5.087   9.498  0.7583 -0.1641 -0.6702
  113OSM   H14F11829   6.114   5.125   9.488  0.8674  0.1711  1.3731
  113OSM   H14G11830   5.989   5.011   9.419  0.9315  0.1346 -1.0067
  113OSM   C15F11831   5.990   5.015   9.632 -0.4952  0.8254  0.5268
  113OSM   H15F11832   6.014   5.077   9.722  2.1087  0.3824  0.2261
  113OSM   H15G11833   6.063   4.931   9.628 -1.6340 -0.2085  0.9435
  113OSM   C16F11834   5.853   4.954   9.654 -0.3711 -0.6029  0.3665
  113OSM   H16F11835   5.829   4.889   9.567  3.0516 -0.1561 -1.0602
  113OSM   H16G11836   5.774   5.032   9.658 -0.4299 -0.6225 -0.3968
  113OSM   C17F11837   5.842   4.868   9.781  0.2086  0.1543 -0.3725
  113OSM   H17F11838   5.851   4.942   9.863 -2.6953  1.5920 -1.2272
  113OSM   H17G11839   5.933   4.805   9.793 -0.2477 -0.3685  0.4406
  113OSM   C18F11840   5.713   4.785   9.789 -0.0400 -0.5142  0.9245
  113OSM   H18F11841   5.624   4.852   9.781 -1.6153 -2.5422  0.6811
  113OSM   H18G11842   5.695   4.736   9.887 -3.1459 -0.0402  0.6810
  113OSM   H18H11843   5.709   4.713   9.705  0.0071 -0.5607  0.9621
  114OSM      N11844   2.199   0.224  11.233  0.1931  0.4925  0.2225
  114OSM    C1511845   2.260   0.091  11.237  0.3301  0.8216 -0.4149
  114OSM   H15A11846   2.337   0.094  11.312  0.3849  0.0804 -0.4325
  114OSM   H15B11847   2.307   0.054  11.147  1.3770 -2.4554  1.3079
  114OSM   H15C11848   2.192   0.013  11.270  0.6427  1.9789  3.4801
  114OSM    C1411849   2.071   0.216  11.157 -0.3027 -0.0722 -0.3473
  114OSM   H14A11850   2.096   0.185  11.057  0.8176  1.0618 -0.4476
  114OSM   H14B11851   2.036   0.318  11.156 -0.5885 -0.0089  3.1787
  114OSM   H14C11852   2.004   0.153  11.213  0.8610  0.2510  1.5051
  114OSM    C1311853   2.163   0.279  11.369 -0.3942 -0.4889 -0.3369
  114OSM   H13A11854   2.125   0.380  11.360  1.3368  0.1337 -0.8710
  114OSM   H13B11855   2.257   0.277  11.422 -0.2105  0.7072 -0.5939
  114OSM   H13C11856   2.091   0.226  11.429  0.5715  1.3274  2.6391
  114OSM    C1211857   2.305   0.315  11.168  0.0243  0.6642  0.5628
  114OSM   H12A11858   2.400   0.304  11.219  0.6985  0.0174 -0.7912
  114OSM   H12B11859   2.258   0.412  11.176 -3.0168 -0.6448 -0.1481
  114OSM    C1111860   2.339   0.283  11.019  0.1818  0.5160  0.0678
  114OSM   H11A11861   2.385   0.371  10.969 -0.3994  1.3085  0.9102
  114OSM   H11B11862   2.243   0.267  10.966  1.2303 -0.4981 -1.6134
  114OSM      P11863   2.390   0.050  10.912  0.0195 -0.0129 -0.3766
  114OSM    O1311864   2.474  -0.065  10.949 -0.2628  0.1575  0.7855
  114OSM    O1411865   2.244   0.019  10.926 -0.4687  0.8467 -0.4044
  114OSM    O1111866   2.424   0.105  10.770  0.0720 -0.3941  0.5172
  114OSM    O1211867   2.428   0.168  11.009 -0.4389 -0.3025 -0.9728
  114OSM    C1S11868   2.545   0.171  10.740 -0.4958  0.3258 -0.3648
  114OSM    H1S11869   2.631   0.113  10.780 -0.3309  1.0193  0.3145
  114OSM    H1T11870   2.547   0.269  10.792  0.6571 -0.6909  1.6818
  114OSM     NF11871   2.703   0.222  10.561  1.0047 -0.1008 -0.1972
  114OSM    HNF11872   2.719   0.320  10.556  0.2729  0.4426  4.0292
  114OSM    C2S11873   2.562   0.190  10.594 -0.5773 -0.5532  0.5734
  114OSM    H2S11874   2.543   0.094  10.541 -0.3187  1.4406 -3.5608
  114OSM    C3S11875   2.452   0.291  10.539 -0.2656 -0.2394 -0.5768
  114OSM    H3S11876   2.448   0.387  10.595  0.3515 -0.1255 -0.7226
  114OSM     O311877   2.320   0.247  10.567  0.5635  0.0527 -0.3551
  114OSM    HO311878   2.323   0.180  10.635 -0.8158 -0.2598 -0.5596
  114OSM    C4S11879   2.464   0.293  10.387 -0.3351 -0.6193 -0.0422
  114OSM    H4S11880   2.408   0.208  10.346 -1.4424 -0.1202  0.4125
  114OSM    C5S11881   2.531   0.386  10.310 -1.1512 -0.1570 -0.1420
  114OSM    H5S11882   2.593   0.458  10.366  0.3284 -1.9430  0.6013
  114OSM    C6S11883   2.538   0.376  10.157  0.1845  0.1044 -0.2873
  114OSM    H6S11884   2.512   0.467  10.100 -0.2110  0.5711  0.6218
  114OSM    H6T11885   2.468   0.294  10.129  3.0458 -3.0701  1.0701
  114OSM    C7S11886   2.674   0.325  10.110  0.0519 -0.7765 -0.4005
  114OSM    H7S11887   2.709   0.233  10.162  2.0154  0.4737  0.6280
  114OSM    H7T11888   2.747   0.406  10.133  0.8366 -1.2905 -1.0443
  114OSM    C8S11889   2.674   0.293   9.956 -0.8056  0.1855 -0.2008
  114OSM    H8S11890   2.587   0.226   9.943 -2.0313  1.1640  2.1617
  114OSM    H8T11891   2.768   0.237   9.935 -1.4005 -1.2423  0.7864
  114OSM    C9S11892   2.653   0.419   9.862  0.8801  0.1623  0.1940
  114OSM    H9S11893   2.754   0.464   9.856  0.0818  1.8591 -1.2438
  114OSM    H9T11894   2.571   0.492   9.883  2.2440  1.6375  0.5503
  114OSM   C10S11895   2.624   0.370   9.708 -0.2693 -0.0061 -0.7974
  114OSM   H10S11896   2.535   0.304   9.700 -0.3989  0.2810 -2.0853
  114OSM   H10T11897   2.711   0.311   9.673  0.5483  0.8760 -0.3000
  114OSM   C11S11898   2.605   0.492   9.615  0.4724  0.2414  0.8016
  114OSM   H11S11899   2.700   0.547   9.598  0.9067 -0.6964  0.0630
  114OSM   H11T11900   2.539   0.570   9.658 -0.0551  1.6118 -2.1788
  114OSM   C12S11901   2.539   0.455   9.482  0.1464  0.3692  0.3996
  114OSM   H12S11902   2.445   0.397   9.493 -0.5766  1.2278 -0.9125
  114OSM   H12T11903   2.605   0.386   9.427  0.2897  2.2589 -2.0065
  114OSM   C13S11904   2.513   0.578   9.388  0.6928  0.6469 -0.2873
  114OSM   H13S11905   2.602   0.642   9.369  0.1542  1.3732 -0.4073
  114OSM   H13T11906   2.441   0.639   9.447  0.4015  1.3977 -1.4029
  114OSM   C14S11907   2.455   0.532   9.259  0.2432 -1.0154  0.3344
  114OSM   H14S11908   2.367   0.467   9.277 -0.8534 -0.1790 -1.6499
  114OSM   H14T11909   2.525   0.464   9.205 -0.3564 -0.6472 -0.9634
  114OSM   C15S11910   2.430   0.652   9.175 -0.3584 -0.1322 -0.4360
  114OSM   H15S11911   2.523   0.713   9.176 -0.6071  0.2460  0.6674
  114OSM   H15T11912   2.345   0.715   9.207  0.4673  0.8123 -0.0272
  114OSM   C16S11913   2.394   0.601   9.035  0.4469 -0.1650 -0.1531
  114OSM   H16S11914   2.298   0.548   9.052  0.0932  0.6882  0.6739
  114OSM   H16T11915   2.471   0.530   9.000  1.8331  1.6811 -1.0429
  114OSM   C17S11916   2.375   0.723   8.928  0.1136  0.5940 -0.4468
  114OSM   H17S11917   2.472   0.771   8.903 -0.2478  0.7927 -1.5162
  114OSM   H17T11918   2.313   0.798   8.983 -2.0639 -2.0974  1.0490
  114OSM   C18S11919   2.300   0.678   8.804  0.2835 -0.1988  0.2433
  114OSM   H18S11920   2.314   0.764   8.734  0.0362 -1.4305 -1.3661
  114OSM   H18T11921   2.196   0.659   8.838 -0.2155  0.4803 -0.8290
  114OSM   H18U11922   2.353   0.586   8.773  1.7181  0.3538  0.9586
  114OSM    C1F11923   2.786   0.130  10.583 -0.4691  0.1942  0.4048
  114OSM     OF11924   2.754   0.015  10.565  0.2507 -0.1755 -0.0502
  114OSM    C2F11925   2.918   0.165  10.641  0.2460 -0.0086  0.7833
  114OSM    H2F11926   2.965   0.071  10.676 -0.6466 -1.0455 -0.6888
  114OSM    H2G11927   2.894   0.233  10.725  0.7610 -2.6438  3.1865
  114OSM    C3F11928   3.011   0.233  10.536 -0.5004  0.0321  0.1730
  114OSM    H3F11929   3.101   0.278  10.582  1.3076 -1.9730 -1.1539
  114OSM    H3G11930   2.958   0.322  10.496 -0.1142  0.2530  0.1480
  114OSM    C4F11931   3.073   0.152  10.429 -0.2763  0.3624 -0.1915
  114OSM    H4F11932   2.994   0.080  10.397 -2.3005  2.1467  0.5424
  114OSM    H4G11933   3.152   0.087  10.471 -2.7452 -2.1297  0.9091
  114OSM    C5F11934   3.114   0.243  10.314  0.4655 -0.4472  0.1517
  114OSM    H5F11935   3.195   0.307  10.355 -0.1396  1.0644 -0.9114
  114OSM    H5G11936   3.029   0.308  10.286 -0.2662 -1.9142 -1.1835
  114OSM    C6F11937   3.167   0.186  10.180  0.4786  0.5255 -0.2939
  114OSM    H6F11938   3.111   0.097  10.143 -0.0777  0.5986  0.3579
  114OSM    H6G11939   3.265   0.138  10.203  0.7140  1.0451 -0.2093
  114OSM    C7F11940   3.182   0.281  10.067 -0.6921 -0.5498 -0.5461
  114OSM    H7F11941   3.283   0.265  10.023 -0.6436 -2.9956  0.2701
  114OSM    H7G11942   3.196   0.385  10.103  2.2611  0.0650 -3.0711
  114OSM    C8F11943   3.072   0.285   9.960  0.4835 -0.4206 -0.3933
  114OSM    H8F11944   3.084   0.371   9.891  1.1914 -0.4694 -0.3440
  114OSM    H8G11945   2.970   0.292  10.001  0.8687 -0.7229  0.6538
  114OSM    C9F11946   3.069   0.159   9.874 -0.6269  0.1579  0.1383
  114OSM    H9F11947   3.043   0.061   9.917  1.1396 -0.4091 -0.0092
  114OSM   C10F11948   3.116   0.152   9.745  0.1104 -1.3457 -0.3104
  114OSM   H10F11949   3.106   0.061   9.684  0.5999  0.2436 -2.9264
  114OSM   C11F11950   3.182   0.264   9.666 -0.4516 -0.1704 -1.2611
  114OSM   H11F11951   3.284   0.236   9.632  0.1242  0.4666 -0.1097
  114OSM   H11G11952   3.203   0.354   9.727 -0.3138 -0.3193 -1.0910
  114OSM   C12F11953   3.093   0.316   9.557 -0.4550 -0.0049 -0.0520
  114OSM   H12F11954   3.151   0.399   9.510  0.2902 -0.0841  0.7025
  114OSM   H12G11955   3.002   0.367   9.596 -0.6459  0.8879 -1.5618
  114OSM   C13F11956   3.032   0.220   9.453 -0.0010 -0.2250 -0.4658
  114OSM   H13F11957   2.983   0.137   9.507  2.3468 -0.2463  1.8037
  114OSM   H13G11958   3.112   0.164   9.399 -1.2489 -0.7551 -1.8418
  114OSM   C14F11959   2.933   0.286   9.358  0.1832 -0.1092 -0.0003
  114OSM   H14F11960   2.860   0.335   9.426  1.4702  0.6626  0.8884
  114OSM   H14G11961   2.886   0.198   9.310 -0.6299  0.5946 -0.5274
  114OSM   C15F11962   3.009   0.382   9.263 -0.1870 -0.4937 -0.1479
  114OSM   H15F11963   3.094   0.319   9.227 -0.0802 -1.0615  1.0612
  114OSM   H15G11964   3.044   0.470   9.322 -2.1512 -1.3680  2.4984
  114OSM   C16F11965   2.918   0.419   9.146 -0.9676 -0.6759 -0.7782
  114OSM   H16F11966   2.985   0.482   9.084 -1.1374 -0.5147 -0.8008
  114OSM   H16G11967   2.827   0.473   9.180  0.5119 -0.6260  3.7569
  114OSM   C17F11968   2.891   0.302   9.055  0.0827  0.4211  0.4203
  114OSM   H17F11969   2.835   0.223   9.109 -0.8702 -0.0047 -1.1080
  114OSM   H17G11970   2.986   0.261   9.014 -0.8283 -1.9084  0.4749
  114OSM   C18F11971   2.807   0.334   8.930 -0.1216 -0.3352  0.0661
  114OSM   H18F11972   2.853   0.416   8.870 -1.5744  0.2859 -0.2257
  114OSM   H18G11973   2.711   0.372   8.968  0.3305  0.2311  0.6616
  114OSM   H18H11974   2.792   0.244   8.866  0.6007  0.3112 -1.0456
  115OSM      N11975   5.087   0.579  11.168 -0.2517  0.3713  0.0098
  115OSM    C1511976   5.024   0.663  11.271  0.4520  0.2377 -0.2920
  115OSM   H15A11977   4.919   0.684  11.262  0.0687 -0.1169  2.4615
  115OSM   H15B11978   5.069   0.761  11.271  0.3302  0.2948 -0.8757
  115OSM   H15C11979   5.048   0.629  11.371  3.1431  2.7933  0.0879
  115OSM    C1411980   5.234   0.554  11.200 -0.4031  0.3710  0.0466
  115OSM   H14A11981   5.294   0.639  11.229  0.3766  0.5445 -1.8656
  115OSM   H14B11982   5.284   0.527  11.108 -0.2022 -0.1434  0.3025
  115OSM   H14C11983   5.245   0.477  11.274 -2.8095 -3.3124 -3.0215
  115OSM    C1311984   5.018   0.443  11.176  0.7212 -0.7242 -0.2439
  115OSM   H13A11985   4.917   0.455  11.138  1.0471 -0.1594 -0.9627
  115OSM   H13B11986   5.016   0.404  11.276 -1.2531  2.0637  0.9318
  115OSM   H13C11987   5.065   0.370  11.111  1.9150 -2.6458  2.5779
  115OSM    C1211988   5.067   0.635  11.030  0.2757  0.0244 -0.1768
  115OSM   H12A11989   5.075   0.741  11.049 -1.7456  0.5142 -1.7491
  115OSM   H12B11990   4.965   0.619  10.997  1.2515 -1.8806 -2.5848
  115OSM    C1111991   5.163   0.603  10.913  0.1750  0.6823 -0.2266
  115OSM   H11A11992   5.126   0.640  10.815  3.9688  0.7295 -1.8082
  115OSM   H11B11993   5.164   0.492  10.912  2.9023  0.6497 -1.0782
  115OSM      P11994   5.338   0.805  10.914 -0.1030  0.4000 -0.3057
  115OSM    O1311995   5.262   0.896  11.007 -0.1171 -0.3251 -0.1677
  115OSM    O1411996   5.486   0.802  10.910 -0.3770 -0.2799  0.3613
  115OSM    O1111997   5.279   0.838  10.766 -0.1102 -0.0936  0.1215
  115OSM    O1211998   5.289   0.664  10.950  0.1804  0.2002 -0.0283
  115OSM    C1S11999   5.355   0.793  10.652 -0.6627 -1.0752  0.3551
  115OSM    H1S12000   5.370   0.683  10.662 -0.6726 -0.9734  1.5111
  115OSM    H1T12001   5.455   0.842  10.647 -0.8052 -0.7228  0.9413
  115OSM     NF12002   5.369   0.776  10.409 -0.3878  0.6169 -0.0842
  115OSM    HNF12003   5.430   0.843  10.366 -3.4734  2.3436 -2.1133
  115OSM    C2S12004   5.284   0.829  10.519  0.7242  0.5691  0.8322
  115OSM    H2S12005   5.189   0.772  10.518  0.3919  1.1030 -0.0391
  115OSM    C3S12006   5.251   0.977  10.490 -0.6138  0.2469 -0.4376
  115OSM    H3S12007   5.351   1.023  10.476  0.3551 -2.3487 -2.9362
  115OSM     O312008   5.186   1.042  10.598 -0.2893  0.2235  0.4029
  115OSM    HO312009   5.174   0.981  10.671 -0.8610  1.2249  1.1758
  115OSM    C4S12010   5.179   1.004  10.353 -0.3643 -0.2839 -0.5840
  115OSM    H4S12011   5.250   0.989  10.272  0.7103  2.0982 -0.1920
  115OSM    C5S12012   5.052   1.043  10.332 -0.2840  0.0115  0.6073
  115OSM    H5S12013   4.987   1.056  10.420 -0.5268 -1.0471  0.5950
  115OSM    C6S12014   4.985   1.064  10.201  0.2730 -0.3052 -0.4396
  115OSM    H6S12015   4.970   1.172  10.184 -0.7689 -0.4867 -0.7682
  115OSM    H6T12016   4.884   1.019  10.190 -0.0199  0.5681 -1.5626
  115OSM    C7S12017   5.055   1.012  10.076  0.3131  0.4289 -0.0229
  115OSM    H7S12018   5.059   0.901  10.072 -3.0887  0.2239 -1.2153
  115OSM    H7T12019   5.161   1.046  10.073 -0.1297  2.0269  1.2622
  115OSM    C8S12020   4.974   1.060   9.952 -0.4123 -0.6832 -0.4179
  115OSM    H8S12021   4.946   1.166   9.967  1.8881  0.0236 -0.8652
  115OSM    H8T12022   4.885   0.993   9.947 -3.3150  2.6384  1.7448
  115OSM    C9S12023   5.051   1.044   9.818 -0.5093  0.0831  0.0660
  115OSM    H9S12024   5.087   0.939   9.816  1.8963  0.8350  1.2016
  115OSM    H9T12025   5.135   1.115   9.807  0.2651 -0.9826 -1.1329
  115OSM   C10S12026   4.957   1.063   9.698  0.2427  0.3350 -0.0272
  115OSM   H10S12027   4.905   1.161   9.711  2.0760  1.5382 -1.2135
  115OSM   H10T12028   4.878   0.985   9.703 -0.4941  1.1371  1.6713
  115OSM   C11S12029   5.022   1.070   9.562  0.0465 -0.5188 -0.5353
  115OSM   H11S12030   5.079   0.976   9.542 -0.3515 -0.2125 -3.5278
  115OSM   H11T12031   5.094   1.154   9.558 -0.1128 -0.2578  1.2815
  115OSM   C12S12032   4.924   1.092   9.438 -0.9493  0.4603  0.5439
  115OSM   H12S12033   4.877   1.193   9.448  0.2303  1.2357 -1.3232
  115OSM   H12T12034   4.845   1.014   9.436 -1.5810  1.1040  0.0214
  115OSM   C13S12035   5.000   1.104   9.306 -0.3330 -0.0702 -0.0556
  115OSM   H13S12036   5.054   1.016   9.266  0.3171  1.4845 -2.8361
  115OSM   H13T12037   5.086   1.172   9.318 -0.0161 -0.6544  1.1099
  115OSM   C14S12038   4.915   1.154   9.184 -0.2134  0.7308  0.3057
  115OSM   H14S12039   4.860   1.247   9.209 -1.4988 -0.1083  0.6545
  115OSM   H14T12040   4.833   1.085   9.156 -1.7406  2.5821  0.0428
  115OSM   C15S12041   4.996   1.163   9.052  0.0847  0.1124  0.1728
  115OSM   H15S12042   5.034   1.060   9.037 -1.3239 -0.8550  2.5442
  115OSM   H15T12043   5.069   1.246   9.058  0.2439 -0.0040 -0.1516
  115OSM   C16S12044   4.915   1.196   8.921  0.1039 -0.1522 -0.0149
  115OSM   H16S12045   4.843   1.280   8.933  0.2651 -0.0357  0.1364
  115OSM   H16T12046   4.852   1.108   8.899  0.7075 -0.1869 -1.7366
  115OSM   C17S12047   4.993   1.217   8.788 -0.0470  0.3392  0.2883
  115OSM   H17S12048   5.079   1.147   8.776  0.9243  1.6055 -0.4284
  115OSM   H17T12049   5.046   1.315   8.794  0.7816  0.0846 -2.0010
  115OSM   C18S12050   4.906   1.235   8.663  0.4170  0.2727 -0.2618
  115OSM   H18S12051   4.962   1.289   8.583 -1.6456  1.4570 -0.9772
  115OSM   H18T12052   4.813   1.291   8.685  1.5626  2.6721 -1.1793
  115OSM   H18U12053   4.886   1.135   8.620 -1.2547  1.3091 -2.0506
  115OSM    C1F12054   5.387   0.642  10.393  0.8608 -0.4164  0.5213
  115OSM     OF12055   5.305   0.561  10.442 -0.1969  0.3455  0.1548
  115OSM    C2F12056   5.507   0.599  10.325 -0.6268 -0.1794  1.0841
  115OSM    H2F12057   5.573   0.544  10.395  1.6936  0.0498 -0.8123
  115OSM    H2G12058   5.561   0.689  10.289 -0.8705 -0.4031  0.1144
  115OSM    C3F12059   5.476   0.521  10.195 -0.2212  0.1451  0.0431
  115OSM    H3F12060   5.428   0.587  10.119  0.3354 -0.2611 -0.6705
  115OSM    H3G12061   5.392   0.449  10.207  1.0420 -1.5491 -0.9738
  115OSM    C4F12062   5.604   0.436  10.154  0.1918 -0.1939  0.3128
  115OSM    H4F12063   5.651   0.400  10.248  0.0961  0.4771  0.6290
  115OSM    H4G12064   5.675   0.507  10.108 -0.8074  0.3655 -0.4187
  115OSM    C5F12065   5.582   0.317  10.059  0.1532  0.3995 -0.6362
  115OSM    H5F12066   5.528   0.238  10.115 -0.1209  0.2200 -1.1457
  115OSM    H5G12067   5.669   0.268  10.009  0.8743 -0.6922  1.5620
  115OSM    C6F12068   5.485   0.360   9.943 -0.6894  0.5362  0.1436
  115OSM    H6F12069   5.529   0.459   9.919  0.1478  0.5192  1.5232
  115OSM    H6G12070   5.392   0.367  10.003 -1.4708 -1.5330 -0.7270
  115OSM    C7F12071   5.463   0.260   9.822  1.0639  0.0759  0.2087
  115OSM    H7F12072   5.381   0.302   9.760  0.0828  0.5066  1.7201
  115OSM    H7G12073   5.430   0.163   9.866 -4.2938  1.4416 -0.0720
  115OSM    C8F12074   5.582   0.224   9.730  0.0577 -0.2375 -0.3882
  115OSM    H8F12075   5.543   0.152   9.655 -0.2952  1.0273 -1.4449
  115OSM    H8G12076   5.643   0.156   9.794  1.4198  0.3733 -1.0015
  115OSM    C9F12077   5.667   0.333   9.667 -0.1594  0.0473  1.0282
  115OSM    H9F12078   5.716   0.397   9.741  0.0924  1.5497 -0.3953
  115OSM   C10F12079   5.686   0.354   9.534  0.1293  0.3172 -0.0612
  115OSM   H10F12080   5.738   0.449   9.516  0.1408  0.6410  1.5506
  115OSM   C11F12081   5.626   0.282   9.414 -0.0990 -0.2937  0.7899
  115OSM   H11F12082   5.557   0.201   9.446 -1.2787  0.4226  0.1496
  115OSM   H11G12083   5.703   0.224   9.358  0.3429  2.2289 -1.3880
  115OSM   C12F12084   5.546   0.372   9.322 -0.1850  0.9184 -0.6585
  115OSM   H12F12085   5.611   0.455   9.285  2.3508 -1.4479 -1.9172
  115OSM   H12G12086   5.455   0.404   9.377 -1.9719 -2.4118 -1.4532
  115OSM   C13F12087   5.503   0.302   9.191  0.0028 -0.6672 -0.1335
  115OSM   H13F12088   5.452   0.206   9.216 -0.5649 -0.3755 -0.1612
  115OSM   H13G12089   5.599   0.288   9.137  1.2585  3.5942  0.6003
  115OSM   C14F12090   5.419   0.394   9.107  0.0847 -0.2626 -0.1347
  115OSM   H14F12091   5.460   0.496   9.087  1.7608 -0.8542  0.1477
  115OSM   H14G12092   5.317   0.415   9.145 -0.0550  0.8585 -1.0756
  115OSM   C15F12093   5.403   0.342   8.962 -0.8527 -0.1629  0.1704
  115OSM   H15F12094   5.505   0.327   8.919 -1.0618  2.3938 -1.4125
  115OSM   H15G12095   5.351   0.414   8.895 -1.5698  0.2519  1.1583
  115OSM   C16F12096   5.319   0.214   8.962 -0.1967 -0.4334 -0.5393
  115OSM   H16F12097   5.227   0.242   9.017 -1.3977 -0.5164 -2.4053
  115OSM   H16G12098   5.361   0.124   9.012 -1.2585 -0.4285  0.4069
  115OSM   C17F12099   5.258   0.175   8.821 -0.5198  0.3745 -0.0661
  115OSM   H17F12100   5.342   0.171   8.748  1.2178  1.6033  1.7774
  115OSM   H17G12101   5.195   0.263   8.796  0.3304  0.6636 -1.2675
  115OSM   C18F12102   5.170   0.045   8.815 -0.6668 -0.1016  0.0302
  115OSM   H18F12103   5.111   0.041   8.909 -1.7083  1.0494 -0.5443
  115OSM   H18G12104   5.231  -0.047   8.802 -3.0399 -1.8075  0.1893
  115OSM   H18H12105   5.097   0.053   8.732  0.6162  1.7821 -0.9839
  116OSM      N12106   1.524   2.188  10.966  0.1499 -0.2940 -0.3337
  116OSM    C1512107   1.608   2.185  11.088  0.3991  0.7797  0.4208
  116OSM   H15A12108   1.549   2.237  11.163  0.4166  2.0303 -0.4091
  116OSM   H15B12109   1.698   2.241  11.067  0.0202  0.7752 -1.3142
  116OSM   H15C12110   1.621   2.086  11.128 -2.6516  0.4861  0.9498
  116OSM    C1412111   1.397   2.114  11.003 -0.2605 -0.6510  0.4233
  116OSM   H14A12112   1.347   2.167  11.082  0.0992  0.6426 -0.1734
  116OSM   H14B12113   1.414   2.011  11.028 -0.4365 -1.0998 -1.1765
  116OSM   H14C12114   1.335   2.118  10.914 -0.0916 -1.4529  0.2602
  116OSM    C1312115   1.486   2.332  10.930 -0.5906  0.8327  0.2821
  116OSM   H13A12116   1.576   2.388  10.908  0.4317 -0.8870 -0.1381
  116OSM   H13B12117   1.441   2.382  11.015 -1.5312  1.8925 -0.8096
  116OSM   H13C12118   1.429   2.337  10.839 -1.3995 -1.1492  0.6226
  116OSM    C1212119   1.601   2.123  10.855  1.2250 -0.1071 -0.5385
  116OSM   H12A12120   1.542   2.120  10.765  0.0601 -2.9466  0.2165
  116OSM   H12B12121   1.607   2.017  10.877 -0.6618 -0.4820 -1.5653
  116OSM    C1112122   1.750   2.173  10.830 -0.0434 -0.2516  0.1061
  116OSM   H11A12123   1.744   2.284  10.829 -3.4310 -0.3166 -1.4714
  116OSM   H11B12124   1.787   2.149  10.728 -1.1467 -0.7302 -0.1964
  116OSM      P12125   1.881   1.975  10.920  0.4786  0.3363  0.2725
  116OSM    O1312126   2.028   1.966  10.939  0.5475 -0.0534  0.4726
  116OSM    O1412127   1.807   1.891  11.011  0.1803 -0.9333  0.4755
  116OSM    O1112128   1.841   1.927  10.772 -0.1466 -0.4734 -0.4228
  116OSM    O1212129   1.830   2.123  10.935 -0.1626 -0.9044  0.2463
  116OSM    C1S12130   1.928   1.929  10.658  0.7445 -0.2965  0.0469
  116OSM    H1S12131   2.016   1.867  10.682  0.4225  0.1035  2.6353
  116OSM    H1T12132   1.965   2.033  10.646  1.0018 -0.2324  1.2442
  116OSM     NF12133   1.953   1.903  10.414 -0.1704  0.1555 -0.1721
  116OSM    HNF12134   1.938   1.986  10.362 -0.2581 -0.4291 -1.1070
  116OSM    C2S12135   1.863   1.889  10.522  0.4689 -0.1719 -0.4092
  116OSM    H2S12136   1.847   1.780  10.537  0.0431 -0.1124 -0.4303
  116OSM    C3S12137   1.735   1.962  10.488  0.2653 -0.5188 -0.4688
  116OSM    H3S12138   1.760   2.069  10.471  0.8085 -0.2800  1.5925
  116OSM     O312139   1.645   1.976  10.602  0.0928  0.1099  0.0142
  116OSM    HO312140   1.710   1.951  10.668  0.2649  0.2484 -0.1004
  116OSM    C4S12141   1.663   1.907  10.367 -0.5263 -1.3001  0.1352
  116OSM    H4S12142   1.722   1.944  10.281 -0.7959  0.0815  0.5101
  116OSM    C5S12143   1.558   1.825  10.343  0.2217  0.5253  0.1247
  116OSM    H5S12144   1.505   1.791  10.433  1.5975  1.0544  1.1725
  116OSM    C6S12145   1.512   1.776  10.206  0.1321  0.6360 -0.6046
  116OSM    H6S12146   1.401   1.771  10.203  0.1993 -2.5232 -0.9565
  116OSM    H6T12147   1.547   1.671  10.195  1.5216  0.8095  1.6908
  116OSM    C7S12148   1.569   1.846  10.082 -0.9940  0.6655 -0.1987
  116OSM    H7S12149   1.677   1.834  10.106 -0.5267  2.2639 -1.3542
  116OSM    H7T12150   1.559   1.957  10.088  2.6811  1.3091 -2.7209
  116OSM    C8S12151   1.536   1.809   9.938 -0.3097  0.0015  0.0791
  116OSM    H8S12152   1.427   1.796   9.922 -0.0059 -1.7175 -0.9678
  116OSM    H8T12153   1.586   1.713   9.913  2.0673  0.5520  2.2719
  116OSM    C9S12154   1.593   1.907   9.840  0.1348  0.5337 -0.1262
  116OSM    H9S12155   1.703   1.919   9.852  0.5875 -2.3731 -0.6435
  116OSM    H9T12156   1.547   2.006   9.858  0.8671  0.9323 -0.4047
  116OSM   C10S12157   1.570   1.861   9.694 -0.0505 -0.7845  0.3916
  116OSM   H10S12158   1.468   1.821   9.677 -0.3863 -0.2152  1.0083
  116OSM   H10T12159   1.647   1.788   9.662  0.1879  0.2660 -1.5894
  116OSM   C11S12160   1.607   1.961   9.575 -0.3534  0.3024 -0.1734
  116OSM   H11S12161   1.713   1.939   9.554 -0.5189 -0.9690  0.2320
  116OSM   H11T12162   1.598   2.068   9.603  0.1506  0.1439  0.6302
  116OSM   C12S12163   1.530   1.936   9.446 -0.1028 -0.1479  0.3343
  116OSM   H12S12164   1.421   1.954   9.457 -0.1923  0.7287 -1.5796
  116OSM   H12T12165   1.547   1.832   9.411 -1.6158 -0.3675  0.1482
  116OSM   C13S12166   1.575   2.034   9.338 -0.0375 -0.0182 -0.6187
  116OSM   H13S12167   1.686   2.037   9.330 -0.1722 -0.5030 -5.3378
  116OSM   H13T12168   1.538   2.135   9.366 -1.1134 -0.2157 -1.2707
  116OSM   C14S12169   1.520   2.026   9.197 -0.3054 -0.0178 -0.5710
  116OSM   H14S12170   1.410   2.015   9.208 -0.4288 -1.7329 -2.9590
  116OSM   H14T12171   1.551   1.928   9.155 -2.5990 -0.7535 -0.6733
  116OSM   C15S12172   1.568   2.147   9.107 -0.7681  0.1550 -0.6757
  116OSM   H15S12173   1.671   2.129   9.072 -0.5068 -0.3017  0.2856
  116OSM   H15T12174   1.595   2.234   9.171  1.2127 -1.5228  0.8805
  116OSM   C16S12175   1.473   2.198   8.990  0.3089 -0.4977 -0.5021
  116OSM   H16S12176   1.454   2.116   8.918  0.5193 -0.6884 -0.3458
  116OSM   H16T12177   1.503   2.295   8.947 -0.2996  0.9502  2.1268
  116OSM   C17S12178   1.340   2.245   9.046  0.1561 -0.0574  0.0133
  116OSM   H17S12179   1.342   2.310   9.136  0.3490 -0.1741  0.0936
  116OSM   H17T12180   1.281   2.159   9.084  2.3178 -1.7881 -0.3149
  116OSM   C18S12181   1.248   2.308   8.932  0.3790  0.9318 -0.7138
  116OSM   H18S12182   1.224   2.229   8.858  1.6732  0.1540 -0.3415
  116OSM   H18T12183   1.311   2.391   8.895  1.7891  0.0088 -0.4847
  116OSM   H18U12184   1.155   2.344   8.981  0.2984 -0.3841  0.1682
  116OSM    C1F12185   2.078   1.846  10.401 -0.2279 -0.4092 -0.2791
  116OSM     OF12186   2.114   1.749  10.468 -0.3616  0.1786 -0.0604
  116OSM    C2F12187   2.182   1.922  10.322  0.6630  0.1130  0.6951
  116OSM    H2F12188   2.213   2.013  10.378  0.6492 -0.0535  0.9745
  116OSM    H2G12189   2.128   1.960  10.232  0.8225  0.2819  0.6699
  116OSM    C3F12190   2.305   1.843  10.261  0.0137  0.4287  0.1773
  116OSM    H3F12191   2.258   1.763  10.200  0.1947  1.1122 -0.8805
  116OSM    H3G12192   2.334   1.788  10.353 -0.3233  1.5326  0.9751
  116OSM    C4F12193   2.417   1.924  10.212  0.1374  0.3407  0.4888
  116OSM    H4F12194   2.490   1.847  10.178  0.5357  0.3900  1.2125
  116OSM    H4G12195   2.476   1.978  10.289  0.8927  2.3056 -1.3536
  116OSM    C5F12196   2.383   2.015  10.098  0.0369  0.0603  0.6479
  116OSM    H5F12197   2.479   2.063  10.069 -0.7360  0.5843 -1.1363
  116OSM    H5G12198   2.322   2.102  10.133  0.9342  1.2558 -0.6360
  116OSM    C6F12199   2.323   1.945   9.974  0.0697 -0.3402 -0.4047
  116OSM    H6F12200   2.216   1.920   9.992  0.2889 -0.3943  0.9180
  116OSM    H6G12201   2.380   1.851   9.955 -1.9496 -2.2583  2.1425
  116OSM    C7F12202   2.345   2.038   9.851  0.3093  0.3291  0.5258
  116OSM    H7F12203   2.441   2.095   9.844 -0.3080  1.2810 -0.4449
  116OSM    H7G12204   2.283   2.128   9.870  0.9560  0.3601  2.7758
  116OSM    C8F12205   2.307   1.972   9.722 -0.3736  0.3766  0.2829
  116OSM    H8F12206   2.268   2.052   9.655 -2.7498 -0.9486 -0.0308
  116OSM    H8G12207   2.214   1.917   9.748  1.6327 -2.9461  0.9071
  116OSM    C9F12208   2.403   1.889   9.652 -0.5086 -0.1437  0.0081
  116OSM    H9F12209   2.403   1.786   9.690 -1.0743  0.0391  0.5133
  116OSM   C10F12210   2.490   1.922   9.555  0.3283 -0.6151  0.7190
  116OSM   H10F12211   2.542   1.838   9.507 -1.8388 -1.5913 -0.0739
  116OSM   C11F12212   2.494   2.059   9.489 -0.1289  0.7171 -0.1210
  116OSM   H11F12213   2.604   2.078   9.488  0.5312 -2.4109  1.2679
  116OSM   H11G12214   2.460   2.140   9.557  1.6612  0.9060  0.6037
  116OSM   C12F12215   2.413   2.069   9.355 -0.5999 -0.2874 -0.1524
  116OSM   H12F12216   2.411   2.178   9.332 -1.4459 -0.4336 -0.8363
  116OSM   H12G12217   2.312   2.031   9.384  0.1813 -2.1375  0.2804
  116OSM   C13F12218   2.449   1.986   9.229 -0.4398 -0.4301  0.0592
  116OSM   H13F12219   2.428   1.881   9.259  2.4968 -1.7007 -2.0020
  116OSM   H13G12220   2.555   1.990   9.199 -0.6544 -1.5205 -0.9278
  116OSM   C14F12221   2.348   2.004   9.119  0.0814  0.7144  0.2896
  116OSM   H14F12222   2.315   2.110   9.117  0.7855  0.9310 -0.0372
  116OSM   H14G12223   2.258   1.945   9.145 -1.0018  2.6330  1.1253
  116OSM   C15F12224   2.400   1.962   8.982 -0.0146  0.2731  0.1795
  116OSM   H15F12225   2.431   1.856   8.973 -0.6019  0.2899 -4.0439
  116OSM   H15G12226   2.485   2.031   8.959 -1.8136  1.5964 -3.2097
  116OSM   C16F12227   2.312   1.987   8.856 -0.0200  0.5756 -0.3856
  116OSM   H16F12228   2.279   2.093   8.856  2.1539  1.3239  0.2491
  116OSM   H16G12229   2.222   1.924   8.845 -0.2496  0.8406 -0.0271
  116OSM   C17F12230   2.379   1.966   8.720  0.8769  0.7811 -0.6243
  116OSM   H17F12231   2.313   2.002   8.639 -0.4986 -0.7152 -0.2340
  116OSM   H17G12232   2.388   1.856   8.702  1.7440  0.9940 -1.5639
  116OSM   C18F12233   2.521   2.026   8.704 -0.2289  0.4949  0.4661
  116OSM   H18F12234   2.502   2.133   8.726 -0.4075  0.1556  2.1410
  116OSM   H18G12235   2.566   2.024   8.603  0.3642  0.3824  0.7257
  116OSM   H18H12236   2.592   1.973   8.772 -0.4951 -0.8461 -0.2551
  117OSM      N12237   5.331   4.355  10.971  0.7242 -0.1312  0.5665
  117OSM    C1512238   5.223   4.250  10.971  1.0057  0.4685  0.4008
  117OSM   H15A12239   5.127   4.296  10.991  0.8981  0.2077  0.5010
  117OSM   H15B12240   5.241   4.174  11.047 -1.2434 -1.5792 -0.9624
  117OSM   H15C12241   5.221   4.196  10.878  0.7294 -0.4481  0.9155
  117OSM    C1412242   5.349   4.399  11.117 -0.3173  0.0220  0.2441
  117OSM   H14A12243   5.392   4.324  11.181  1.5748  1.3657  0.6235
  117OSM   H14B12244   5.255   4.432  11.157  0.8120  0.4473  2.6835
  117OSM   H14C12245   5.411   4.485  11.136  0.5638 -1.1062  2.8704
  117OSM    C1312246   5.458   4.297  10.930 -0.5509  0.2548 -0.5273
  117OSM   H13A12247   5.490   4.221  10.999 -0.4250 -0.4498 -1.3446
  117OSM   H13B12248   5.543   4.364  10.931  0.1532 -0.4773  3.5518
  117OSM   H13C12249   5.448   4.242  10.837 -1.1289 -0.2333 -0.1747
  117OSM    C1212250   5.303   4.473  10.872 -0.6779 -0.1143 -0.2674
  117OSM   H12A12251   5.305   4.434  10.771 -0.4277 -1.7620  0.3530
  117OSM   H12B12252   5.394   4.531  10.876  1.7308 -3.3558 -2.6286
  117OSM    C1112253   5.179   4.563  10.883 -0.2638 -0.1792 -0.0153
  117OSM   H11A12254   5.091   4.500  10.910  1.3598 -2.0915  1.0568
  117OSM   H11B12255   5.163   4.614  10.786 -0.1538  0.5998  0.3699
  117OSM      P12256   5.292   4.787  10.952 -0.0272 -0.3043  0.1243
  117OSM    O1312257   5.245   4.909  11.021 -0.4872  0.6486  0.1951
  117OSM    O1412258   5.432   4.744  10.975 -0.2251 -0.2763  0.4519
  117OSM    O1112259   5.271   4.818  10.799  0.1046 -0.6326  0.5166
  117OSM    O1212260   5.198   4.661  10.983  0.4724 -0.4951  0.1522
  117OSM    C1S12261   5.382   4.865  10.718  0.5729  0.0855 -0.3616
  117OSM    H1S12262   5.473   4.809  10.747  0.6356  0.8121  0.9286
  117OSM    H1T12263   5.407   4.971  10.741 -0.3930  0.1870  0.3005
  117OSM     NF12264   5.484   4.901  10.495 -0.8482  0.1493 -0.0769
  117OSM    HNF12265   5.494   4.997  10.469  1.0293  0.1330  0.4778
  117OSM    C2S12266   5.358   4.866  10.565  0.0661 -0.3202  0.1064
  117OSM    H2S12267   5.332   4.762  10.538 -2.8368  0.3067  0.2523
  117OSM    C3S12268   5.237   4.951  10.528 -0.1726 -0.2905 -0.7019
  117OSM    H3S12269   5.257   5.055  10.560  0.7553 -0.6713  0.0195
  117OSM     O312270   5.115   4.916  10.593 -0.0049 -0.1620 -0.2202
  117OSM    HO312271   5.149   4.851  10.655  1.5972  0.0647 -0.8104
  117OSM    C4S12272   5.217   4.945  10.376 -0.7963 -0.2425  0.6451
  117OSM    H4S12273   5.217   5.040  10.322  0.9060 -1.4817 -1.7152
  117OSM    C5S12274   5.191   4.826  10.314  0.5568  0.4180  0.4313
  117OSM    H5S12275   5.209   4.736  10.375  0.6628  0.9204  1.1617
  117OSM    C6S12276   5.172   4.797  10.166 -0.5404 -0.3244 -0.9020
  117OSM    H6S12277   5.188   4.690  10.137  0.5634 -0.6963  0.9406
  117OSM    H6T12278   5.255   4.843  10.108 -0.4863 -0.2521 -0.7657
  117OSM    C7S12279   5.053   4.861  10.099 -0.7763  0.0580 -0.6232
  117OSM    H7S12280   5.059   4.971  10.112 -1.2370 -0.0577  0.7004
  117OSM    H7T12281   4.960   4.833  10.154  0.3706 -4.4473 -0.6406
  117OSM    C8S12282   5.045   4.820   9.947  0.8560  0.2851 -0.3795
  117OSM    H8S12283   4.965   4.888   9.910  1.2780  1.2012  0.3310
  117OSM    H8T12284   5.023   4.711   9.953  0.9378  0.2224 -1.1816
  117OSM    C9S12285   5.173   4.853   9.872 -0.0750 -0.3970  0.8018
  117OSM    H9S12286   5.258   4.793   9.910 -1.0528 -2.4709 -0.1153
  117OSM    H9T12287   5.191   4.962   9.879 -2.7004  0.1025  0.9922
  117OSM   C10S12288   5.155   4.811   9.726  0.1793 -0.0303 -0.0306
  117OSM   H10S12289   5.073   4.870   9.680 -0.8431 -1.0275  0.4569
  117OSM   H10T12290   5.121   4.705   9.728  0.1279 -0.0045  1.6974
  117OSM   C11S12291   5.286   4.828   9.646 -0.3289  0.5430 -0.5841
  117OSM   H11S12292   5.366   4.761   9.682 -1.5783  0.7225  2.9239
  117OSM   H11T12293   5.325   4.930   9.666  0.5079  0.1118  0.0480
  117OSM   C12S12294   5.262   4.824   9.498  0.2319  1.0247 -0.1753
  117OSM   H12S12295   5.199   4.912   9.474 -0.5582  0.6085  0.3048
  117OSM   H12T12296   5.195   4.743   9.460 -0.6839  0.9140  1.5705
  117OSM   C13S12297   5.390   4.817   9.412 -0.1997  0.3380  0.4589
  117OSM   H13S12298   5.456   4.743   9.463 -0.9929  0.1878  1.2979
  117OSM   H13T12299   5.435   4.918   9.417  0.6373  0.1832 -2.2940
  117OSM   C14S12300   5.366   4.780   9.261  0.3824 -0.3048 -0.4547
  117OSM   H14S12301   5.300   4.691   9.249 -1.2104  1.1247 -3.5877
  117OSM   H14T12302   5.461   4.751   9.212 -1.8653 -2.6658 -3.8375
  117OSM   C15S12303   5.306   4.899   9.182  0.0864 -0.7131  0.2944
  117OSM   H15S12304   5.253   4.970   9.250  0.5398 -0.3332  0.2530
  117OSM   H15T12305   5.233   4.862   9.106  0.8099  0.4830 -1.0335
  117OSM   C16S12306   5.407   4.997   9.114  0.8396  0.6183  0.2173
  117OSM   H16S12307   5.500   4.938   9.096 -0.3554 -1.5617  0.8173
  117OSM   H16T12308   5.440   5.084   9.174  3.3640  0.9642 -1.4932
  117OSM   C17S12309   5.349   5.050   8.982  0.0339 -0.2457 -0.8363
  117OSM   H17S12310   5.240   5.067   8.995  0.1915 -0.1050  0.4021
  117OSM   H17T12311   5.361   4.982   8.895  0.9731 -1.8367  0.4816
  117OSM   C18S12312   5.416   5.176   8.931 -0.5617 -0.2155 -0.1587
  117OSM   H18S12313   5.526   5.167   8.926 -0.3837 -0.1613  2.3654
  117OSM   H18T12314   5.382   5.264   8.990 -1.0798 -0.1885 -0.4875
  117OSM   H18U12315   5.387   5.196   8.826 -0.0804  1.1144 -0.0645
  117OSM    C1F12316   5.600   4.841  10.486 -0.3382  0.7031  0.5829
  117OSM     OF12317   5.616   4.733  10.545  0.4789 -0.0757  0.6067
  117OSM    C2F12318   5.710   4.897  10.402 -0.8756 -0.9446 -0.0973
  117OSM    H2F12319   5.794   4.938  10.461 -2.0010  0.2391  0.7520
  117OSM    H2G12320   5.668   4.985  10.350 -3.3288 -0.0089  3.1229
  117OSM    C3F12321   5.760   4.789  10.305  0.6154  0.0161  0.2879
  117OSM    H3F12322   5.676   4.752  10.242 -0.1083  1.3595  0.4285
  117OSM    H3G12323   5.809   4.708  10.364  1.0792  1.3976  1.8625
  117OSM    C4F12324   5.846   4.832  10.185 -0.1716 -0.4286 -0.0419
  117OSM    H4F12325   5.803   4.913  10.123 -0.0224  0.2051  0.6833
  117OSM    H4G12326   5.851   4.744  10.116 -0.5820 -0.6516  0.2096
  117OSM    C5F12327   5.991   4.861  10.213 -0.5370 -0.4860  0.6794
  117OSM    H5F12328   6.030   4.764  10.253  1.2568 -0.5561 -1.0785
  117OSM    H5G12329   6.011   4.946  10.282  0.1051  0.2987 -0.4481
  117OSM    C6F12330   6.074   4.881  10.086  0.5457  0.3344 -0.1358
  117OSM    H6F12331   6.023   4.881   9.988  0.1945  0.8156  0.0412
  117OSM    H6G12332   6.155   4.805  10.077  0.7385  0.7454 -2.4955
  117OSM    C7F12333   6.137   5.024  10.081  0.7121  0.9488 -0.1039
  117OSM    H7F12334   6.143   5.065  10.184 -1.2793 -0.1161  0.5030
  117OSM    H7G12335   6.061   5.095  10.041 -2.8105 -2.1669  0.4658
  117OSM    C8F12336   6.274   5.038  10.020 -0.2822 -0.8580  0.0977
  117OSM    H8F12337   6.265   5.017   9.911 -0.9315 -1.1349  0.2008
  117OSM    H8G12338   6.348   4.970  10.067  1.1788  1.1722  0.8446
  117OSM    C9F12339   6.318   5.183  10.040  1.0366 -0.0090  0.1192
  117OSM    H9F12340   6.371   5.197  10.135  0.8470  0.1419  0.2050
  117OSM   C10F12341   6.312   5.288   9.944  0.4062  0.0951  0.0544
  117OSM   H10F12342   6.363   5.382   9.967  0.2808 -0.2166  1.6763
  117OSM   C11F12343   6.249   5.273   9.808  0.7195 -0.6949  0.6741
  117OSM   H11F12344   6.160   5.338   9.796  0.7100 -1.1551 -2.7628
  117OSM   H11G12345   6.211   5.171   9.788 -1.8313  0.1593  0.8381
  117OSM   C12F12346   6.353   5.306   9.699  0.7924  0.3154  0.6991
  117OSM   H12F12347   6.405   5.401   9.723  1.4690  0.5692 -1.5413
  117OSM   H12G12348   6.311   5.314   9.596 -1.7657 -2.0173  1.4576
  117OSM   C13F12349   6.456   5.189   9.699  1.4587 -0.3468  0.5070
  117OSM   H13F12350   6.402   5.094   9.682  2.4265 -0.8236  0.0642
  117OSM   H13G12351   6.499   5.176   9.801  0.0221 -2.0298  0.9470
  117OSM   C14F12352   6.568   5.199   9.590 -0.0906 -0.0734 -0.2110
  117OSM   H14F12353   6.625   5.106   9.611  0.4759  0.8785  2.8283
  117OSM   H14G12354   6.643   5.278   9.608  0.6592 -1.4747  3.7990
  117OSM   C15F12355   6.514   5.216   9.440  0.1035  0.5113 -0.1081
  117OSM   H15F12356   6.599   5.222   9.369  0.5775  0.2638  0.4281
  117OSM   H15G12357   6.450   5.307   9.437 -1.1942 -0.3921 -0.7632
  117OSM   C16F12358   6.417   5.106   9.408  0.9774 -0.1567  0.3717
  117OSM   H16F12359   6.332   5.107   9.480 -1.0093  0.7505 -1.8556
  117OSM   H16G12360   6.474   5.011   9.419  3.6047  1.4961  1.9153
  117OSM   C17F12361   6.362   5.111   9.267  0.2084  0.3619 -0.4121
  117OSM   H17F12362   6.447   5.127   9.198  1.9755 -1.9930  1.0641
  117OSM   H17G12363   6.293   5.197   9.254 -0.6475 -0.1915  0.3750
  117OSM   C18F12364   6.279   4.982   9.232  0.1867 -0.0576  0.1256
  117OSM   H18F12365   6.339   4.890   9.215 -0.9758 -0.7608 -0.2775
  117OSM   H18G12366   6.221   5.002   9.139 -1.6023  2.0763  1.5764
  117OSM   H18H12367   6.203   4.973   9.312 -0.3967 -2.1273 -0.6169
  118OSM      N12368   5.369   5.479  11.267 -0.1742  0.0579 -0.2678
  118OSM    C1512369   5.511   5.434  11.236 -0.0131  0.7005  0.3554
  118OSM   H15A12370   5.551   5.504  11.165  1.2013 -0.1732  0.1310
  118OSM   H15B12371   5.508   5.334  11.194  2.4404  0.9650 -0.6607
  118OSM   H15C12372   5.570   5.441  11.327 -0.4574  1.5820  0.5813
  118OSM    C1412373   5.292   5.464  11.138 -0.3535  0.1212 -0.0656
  118OSM   H14A12374   5.285   5.361  11.106  2.0330  0.3980 -1.6977
  118OSM   H14B12375   5.333   5.524  11.058  0.7202 -1.8602 -1.0499
  118OSM   H14C12376   5.192   5.499  11.160 -0.3350  1.0573 -1.4083
  118OSM    C1312377   5.306   5.385  11.370 -0.5121  0.7325  0.2516
  118OSM   H13A12378   5.300   5.281  11.341 -1.3286  0.6714  0.6127
  118OSM   H13B12379   5.205   5.415  11.392 -1.3100 -1.6061  0.1227
  118OSM   H13C12380   5.364   5.390  11.461  0.8042  0.5793 -0.5540
  118OSM    C1212381   5.368   5.625  11.314 -0.4135  0.4071  0.1103
  118OSM   H12A12382   5.371   5.635  11.421  1.0345  0.1183  0.1233
  118OSM   H12B12383   5.276   5.676  11.289 -1.0529  0.3188  2.1431
  118OSM    C1112384   5.483   5.723  11.255 -0.2327 -0.1164  0.4829
  118OSM   H11A12385   5.584   5.683  11.279  1.4472  3.3822 -0.1255
  118OSM   H11B12386   5.469   5.824  11.300  2.8990  0.6731 -0.0999
  118OSM      P12387   5.346   5.820  11.055  0.1338 -0.1807  0.3199
  118OSM    O1312388   5.223   5.784  11.120  0.0441 -0.2992  0.3883
  118OSM    O1412389   5.383   5.962  11.061 -0.6320  0.3848 -0.3231
  118OSM    O1112390   5.339   5.769  10.907 -0.0425  0.2038 -0.1830
  118OSM    O1212391   5.466   5.731  11.108 -0.2499  0.2007 -0.1362
  118OSM    C1S12392   5.450   5.788  10.816  0.3734  0.1532  0.2693
  118OSM    H1S12393   5.538   5.725  10.842  2.9522  1.3986 -4.2472
  118OSM    H1T12394   5.491   5.891  10.825  0.3110  0.0621  1.9457
  118OSM     NF12395   5.532   5.810  10.591  0.1416  0.5161  0.2203
  118OSM    HNF12396   5.539   5.901  10.550  2.5781  0.5227  0.4920
  118OSM    C2S12397   5.414   5.767  10.663  0.9564 -0.0537 -0.3057
  118OSM    H2S12398   5.388   5.661  10.646  1.6626  0.1034 -2.8622
  118OSM    C3S12399   5.280   5.843  10.631 -0.0385  0.6924 -0.8558
  118OSM    H3S12400   5.296   5.949  10.661 -1.1059  0.8198 -0.7285
  118OSM     O312401   5.174   5.805  10.717 -0.4771 -0.5758 -0.8232
  118OSM    HO312402   5.208   5.776  10.802 -1.1403  0.5957 -0.1288
  118OSM    C4S12403   5.241   5.829  10.490  0.1773  0.5448  0.2758
  118OSM    H4S12404   5.203   5.733  10.453  0.6322  1.0946 -1.7515
  118OSM    C5S12405   5.241   5.925  10.395 -0.5019  0.1256 -0.2262
  118OSM    H5S12406   5.276   6.025  10.422 -2.3083  0.8545 -0.4586
  118OSM    C6S12407   5.186   5.906  10.259 -0.0673 -0.5071 -0.2075
  118OSM    H6S12408   5.152   6.000  10.212  2.2562  0.8303  0.6744
  118OSM    H6T12409   5.099   5.836  10.255 -2.0551  1.6003  2.1116
  118OSM    C7S12410   5.300   5.845  10.171  0.0790  0.0771 -0.2096
  118OSM    H7S12411   5.317   5.741  10.206  1.1413  0.0231 -0.8545
  118OSM    H7T12412   5.387   5.914  10.177  0.2732 -0.2226  0.5391
  118OSM    C8S12413   5.261   5.819  10.025  0.1588  0.2606  0.2408
  118OSM    H8S12414   5.218   5.911   9.979  0.9234 -0.3966 -1.8614
  118OSM    H8T12415   5.177   5.746  10.028  1.5960 -1.7304 -2.8517
  118OSM    C9S12416   5.372   5.771   9.930  0.0207  0.5479  0.2088
  118OSM    H9S12417   5.426   5.687   9.980  2.1242  1.3484 -0.5861
  118OSM    H9T12418   5.456   5.843   9.921 -0.8221  1.3484 -1.8951
  118OSM   C10S12419   5.333   5.714   9.792  0.4262 -0.1760 -0.0714
  118OSM   H10S12420   5.262   5.629   9.803 -1.0053  0.4215 -3.4286
  118OSM   H10T12421   5.417   5.670   9.735  0.0054  0.8667 -1.5439
  118OSM   C11S12422   5.278   5.812   9.695  0.3104  0.3766  0.2670
  118OSM   H11S12423   5.354   5.890   9.670  0.5260 -0.1549 -0.7815
  118OSM   H11T12424   5.199   5.864   9.753  2.7323  1.4825  2.8728
  118OSM   C12S12425   5.209   5.750   9.570  0.6368 -0.3339 -0.6299
  118OSM   H12S12426   5.115   5.694   9.591  0.2050  0.3433 -0.7116
  118OSM   H12T12427   5.283   5.685   9.519  1.3272 -2.3725  2.6377
  118OSM   C13S12428   5.164   5.861   9.469  0.6409  0.2115 -1.0274
  118OSM   H13S12429   5.243   5.903   9.403  1.4953  0.9625  0.4219
  118OSM   H13T12430   5.118   5.938   9.534  0.3806 -1.2480  0.5918
  118OSM   C14S12431   5.054   5.800   9.381 -0.3126 -0.2105 -0.2786
  118OSM   H14S12432   5.006   5.882   9.323  1.5839  1.3725  0.2958
  118OSM   H14T12433   4.972   5.759   9.444 -1.8914  1.3031 -1.2341
  118OSM   C15S12434   5.109   5.699   9.282  0.0170 -0.0921  0.5522
  118OSM   H15S12435   5.145   5.604   9.327 -1.8499 -0.9115  0.4188
  118OSM   H15T12436   5.195   5.744   9.229  0.0111 -0.2157  0.4351
  118OSM   C16S12437   5.024   5.646   9.165  0.4067  0.3075 -0.2133
  118OSM   H16S12438   4.974   5.735   9.121 -4.0714 -1.5264  0.6068
  118OSM   H16T12439   4.948   5.579   9.211  2.4098 -0.6850  1.8661
  118OSM   C17S12440   5.095   5.563   9.057 -0.3814 -0.2730  0.0305
  118OSM   H17S12441   5.069   5.461   9.092 -0.3964 -0.0434  0.6994
  118OSM   H17T12442   5.202   5.592   9.061 -0.8013  1.2364  2.9556
  118OSM   C18S12443   5.033   5.576   8.913  0.4470  0.1527 -0.6112
  118OSM   H18S12444   4.927   5.543   8.915  0.0414  1.3603 -1.0849
  118OSM   H18T12445   5.086   5.505   8.846  0.6060 -0.8322  0.5259
  118OSM   H18U12446   5.045   5.677   8.868  2.5033  0.1342 -0.1791
  118OSM    C1F12447   5.632   5.730  10.586 -0.5191 -0.1963  0.0219
  118OSM     OF12448   5.620   5.619  10.635 -0.0884  0.9127 -0.0489
  118OSM    C2F12449   5.769   5.774  10.535 -0.3035 -1.1227  0.3566
  118OSM    H2F12450   5.846   5.732  10.603  0.5144  0.1553  0.2590
  118OSM    H2G12451   5.777   5.885  10.544  0.6789 -1.1971  0.5125
  118OSM    C3F12452   5.782   5.719  10.396 -0.1308 -0.7512  0.7346
  118OSM    H3F12453   5.808   5.611  10.397  0.1664 -0.8074 -2.7740
  118OSM    H3G12454   5.870   5.765  10.346 -0.2004 -0.7312  0.6330
  118OSM    C4F12455   5.667   5.739  10.293  0.1256 -0.2926 -0.2807
  118OSM    H4F12456   5.603   5.825  10.325  1.0379  0.9599 -1.6871
  118OSM    H4G12457   5.604   5.648  10.306  0.6611 -0.6468 -0.1594
  118OSM    C5F12458   5.710   5.765  10.146 -0.4611 -0.0784  0.1473
  118OSM    H5F12459   5.641   5.724  10.070  2.0239  0.6166 -2.6654
  118OSM    H5G12460   5.803   5.707  10.126 -1.3210 -0.7849 -2.1572
  118OSM    C6F12461   5.733   5.911  10.119 -0.3993 -0.5712  0.0086
  118OSM    H6F12462   5.791   5.963  10.198 -0.6265 -0.9409  0.4235
  118OSM    H6G12463   5.634   5.960  10.102  0.2217  0.1155 -1.8802
  118OSM    C7F12464   5.810   5.934   9.985  0.0461 -0.1186  1.0917
  118OSM    H7F12465   5.917   5.907   9.996  0.6803  1.2237 -1.0757
  118OSM    H7G12466   5.811   6.045   9.972  0.1099 -0.3445 -1.1993
  118OSM    C8F12467   5.744   5.880   9.852 -0.2992  0.5721 -0.0115
  118OSM    H8F12468   5.642   5.922   9.839 -0.1454  1.2201  0.7843
  118OSM    H8G12469   5.734   5.770   9.864 -0.4364  0.4736 -0.9456
  118OSM    C9F12470   5.839   5.887   9.737 -0.1748 -0.3598  0.1712
  118OSM    H9F12471   5.935   5.840   9.760 -0.0241  0.1424  0.6044
  118OSM   C10F12472   5.821   5.934   9.614 -0.2745 -0.7530 -0.6592
  118OSM   H10F12473   5.908   5.936   9.546  1.5666  0.9387  1.5900
  118OSM   C11F12474   5.691   5.982   9.565  0.1395  0.1879 -0.6684
  118OSM   H11F12475   5.698   6.069   9.496 -0.9968 -0.8908 -2.2300
  118OSM   H11G12476   5.623   6.017   9.646  0.1989  0.8650 -0.8999
  118OSM   C12F12477   5.613   5.873   9.490 -0.6453  0.5341 -0.0399
  118OSM   H12F12478   5.516   5.924   9.470 -2.7744 -2.2473  2.1305
  118OSM   H12G12479   5.591   5.781   9.549 -0.4737 -0.4196 -1.3965
  118OSM   C13F12480   5.673   5.839   9.351  0.4452 -0.5324 -0.1877
  118OSM   H13F12481   5.780   5.810   9.359  1.2096  1.5236 -1.8060
  118OSM   H13G12482   5.658   5.918   9.274 -3.6202 -0.1446  0.7755
  118OSM   C14F12483   5.602   5.729   9.274 -0.7989  0.4166 -0.3879
  118OSM   H14F12484   5.493   5.749   9.271 -1.4563 -2.6821 -1.4615
  118OSM   H14G12485   5.617   5.630   9.323  2.2643 -0.2326 -2.3261
  118OSM   C15F12486   5.651   5.690   9.131 -1.7271 -0.7146  0.1832
  118OSM   H15F12487   5.631   5.583   9.111  2.2609 -1.4696 -0.5684
  118OSM   H15G12488   5.762   5.685   9.127 -1.6494  0.6799  0.1878
  118OSM   C16F12489   5.598   5.790   9.029 -0.0807 -0.0708 -0.0777
  118OSM   H16F12490   5.656   5.777   8.936  0.6554  3.0753 -0.1995
  118OSM   H16G12491   5.622   5.894   9.063 -0.2832 -0.6484  1.9958
  118OSM   C17F12492   5.447   5.783   9.009  0.0927  0.1368  0.1141
  118OSM   H17F12493   5.406   5.877   9.052 -0.5719 -0.5850  1.1014
  118OSM   H17G12494   5.407   5.701   9.072 -3.0117  2.9994  2.2231
  118OSM   C18F12495   5.399   5.763   8.859 -0.8435  0.2419  0.1456
  118OSM   H18F12496   5.288   5.761   8.869 -1.0671  2.5015 -1.3579
  118OSM   H18G12497   5.431   5.670   8.807 -2.2955 -0.1064 -0.1840
  118OSM   H18H12498   5.434   5.857   8.813  2.1384 -0.0348  1.5670
  119OSM      N12499   6.296   4.984  11.332 -0.2180  0.0314 -0.0556
  119OSM    C1512500   6.436   5.008  11.274  0.4457 -0.1968  0.1141
  119OSM   H15A12501   6.501   5.018  11.360 -0.4819  0.9304  0.7200
  119OSM   H15B12502   6.437   5.100  11.218  0.6382 -1.6230 -2.3513
  119OSM   H15C12503   6.463   4.928  11.207  2.6318 -0.9321  1.7512
  119OSM    C1412504   6.270   4.832  11.349  0.0636  0.8042 -0.7034
  119OSM   H14A12505   6.171   4.822  11.391  0.5240  1.6758  0.6589
  119OSM   H14B12506   6.344   4.797  11.419  1.9799  2.4946 -1.7713
  119OSM   H14C12507   6.275   4.776  11.257 -1.0464 -1.5493  0.5757
  119OSM    C1312508   6.274   5.045  11.461 -0.6396  0.2248 -0.5569
  119OSM   H13A12509   6.293   5.151  11.472 -0.2386  0.1786 -0.8152
  119OSM   H13B12510   6.337   4.996  11.534  1.4726  1.9038 -1.1569
  119OSM   H13C12511   6.172   5.039  11.495  0.1782  0.7933  2.3510
  119OSM    C1212512   6.198   5.043  11.238  0.8343 -0.6681 -0.5632
  119OSM   H12A12513   6.216   5.148  11.225  0.2517 -0.5830 -0.7166
  119OSM   H12B12514   6.109   5.054  11.299  1.9852 -2.3978  1.5881
  119OSM    C1112515   6.184   4.983  11.093 -0.0530 -0.3683  0.0044
  119OSM   H11A12516   6.113   5.042  11.031  0.9144 -0.5658 -1.3365
  119OSM   H11B12517   6.139   4.881  11.102 -2.5383  0.7828  1.9918
  119OSM      P12518   6.364   5.096  10.936 -0.4470  0.2256  0.0586
  119OSM    O1312519   6.319   5.221  10.999  0.4228 -0.4381 -0.2030
  119OSM    O1412520   6.512   5.073  10.915 -0.2452 -0.2980  0.1049
  119OSM    O1112521   6.286   5.076  10.801 -0.7182 -0.0661  0.5824
  119OSM    O1212522   6.313   4.980  11.028  0.1633  0.2192  0.0674
  119OSM    C1S12523   6.340   5.018  10.682  0.0137 -0.2862  0.5190
  119OSM    H1S12524   6.324   4.908  10.685  1.8663 -0.7194 -1.7042
  119OSM    H1T12525   6.447   5.043  10.664  0.0584 -1.1058 -0.5380
  119OSM     NF12526   6.344   5.016  10.436  0.4967 -0.2553 -0.1135
  119OSM    HNF12527   6.405   5.077  10.385  1.0222 -0.3538  0.3850
  119OSM    C2S12528   6.275   5.071  10.552  0.1791 -0.7413  0.3062
  119OSM    H2S12529   6.170   5.033  10.550  0.7796 -2.5061  0.3948
  119OSM    C3S12530   6.266   5.228  10.562 -0.4062 -0.0288 -0.3691
  119OSM    H3S12531   6.369   5.262  10.586 -1.0600 -0.1952  3.2289
  119OSM     O312532   6.183   5.282  10.666 -0.8132  0.0443 -0.2662
  119OSM    HO312533   6.195   5.220  10.738  2.9631  0.1322 -0.6093
  119OSM    C4S12534   6.220   5.282  10.430  0.0653 -0.6168 -0.7814
  119OSM    H4S12535   6.298   5.336  10.375 -1.3106 -0.0147 -2.2194
  119OSM    C5S12536   6.091   5.297  10.387  1.1610 -0.5499 -0.0979
  119OSM    H5S12537   6.004   5.280  10.452  0.8241  1.1768 -0.0499
  119OSM    C6S12538   6.059   5.369  10.255 -0.2456  0.0150 -0.4956
  119OSM    H6S12539   5.953   5.404  10.254  0.1376  1.2469  0.1220
  119OSM    H6T12540   6.074   5.300  10.169  1.1944  0.7647 -0.8710
  119OSM    C7S12541   6.145   5.494  10.226 -0.0876 -0.1063  0.2252
  119OSM    H7S12542   6.245   5.460  10.190 -0.3349 -2.8572  1.8546
  119OSM    H7T12543   6.148   5.542  10.326 -2.0609 -0.6394  0.5825
  119OSM    C8S12544   6.074   5.589  10.126  0.2662  0.0603 -0.9414
  119OSM    H8S12545   5.989   5.635  10.182  0.0642  0.1441 -1.3130
  119OSM    H8T12546   6.038   5.538  10.034 -0.3331  0.6950 -1.0686
  119OSM    C9S12547   6.172   5.695  10.062  0.1971  0.3244 -0.5833
  119OSM    H9S12548   6.247   5.718  10.141 -2.9620  2.6875  2.0183
  119OSM    H9T12549   6.117   5.792  10.054  0.5038  0.6637  1.1106
  119OSM   C10S12550   6.239   5.643   9.928 -0.1668 -0.0998 -0.5182
  119OSM   H10S12551   6.220   5.534   9.924 -2.5417  0.2169  0.5883
  119OSM   H10T12552   6.349   5.655   9.921 -0.0816 -0.8382 -0.5113
  119OSM   C11S12553   6.167   5.718   9.814 -0.3057 -0.4622 -0.3340
  119OSM   H11S12554   6.184   5.828   9.820 -2.5962 -0.1325  1.9651
  119OSM   H11T12555   6.058   5.705   9.831 -0.7466  1.2882 -1.5665
  119OSM   C12S12556   6.215   5.666   9.675  0.2577 -0.1755 -1.7643
  119OSM   H12S12557   6.198   5.557   9.680 -1.3266  0.0818  1.8488
  119OSM   H12T12558   6.325   5.682   9.667  0.8420 -2.1210  0.9762
  119OSM   C13S12559   6.148   5.734   9.560 -0.4438  0.1430  0.4605
  119OSM   H13S12560   6.190   5.837   9.559 -1.3277  0.5614  2.2262
  119OSM   H13T12561   6.038   5.751   9.553 -0.8407 -2.5778 -1.5343
  119OSM   C14S12562   6.184   5.681   9.425  0.1512 -0.0232 -0.2553
  119OSM   H14S12563   6.144   5.577   9.425 -3.4942  1.2075  1.2511
  119OSM   H14T12564   6.293   5.694   9.409  0.0282  1.8736  0.1733
  119OSM   C15S12565   6.117   5.748   9.308 -0.1415  0.1600  0.0888
  119OSM   H15S12566   6.131   5.857   9.322  0.7685 -0.2512  3.1731
  119OSM   H15T12567   6.007   5.733   9.312  0.2275 -3.6057 -0.5769
  119OSM   C16S12568   6.165   5.694   9.172 -0.9990 -0.5504 -0.0697
  119OSM   H16S12569   6.185   5.585   9.173  0.5836 -0.2919  1.2451
  119OSM   H16T12570   6.263   5.744   9.158  0.4582 -2.9073  1.0543
  119OSM   C17S12571   6.081   5.723   9.045 -0.0021 -0.0645 -0.4507
  119OSM   H17S12572   5.997   5.650   9.041  2.0253 -2.4768 -1.8637
  119OSM   H17T12573   6.127   5.703   8.946  0.4267 -1.5001  0.0068
  119OSM   C18S12574   6.026   5.865   9.045  0.1747  0.2386  0.3064
  119OSM   H18S12575   6.108   5.940   9.042  0.3035  0.0858 -0.1455
  119OSM   H18T12576   5.955   5.889   9.126 -0.5704  2.5779 -0.9411
  119OSM   H18U12577   5.966   5.873   8.952 -2.6597 -0.8193  1.9352
  119OSM    C1F12578   6.352   4.891  10.410 -0.1375 -0.2542  0.0062
  119OSM     OF12579   6.255   4.820  10.443  0.2283 -0.8991  0.1666
  119OSM    C2F12580   6.468   4.838  10.322 -0.2069  0.0955  0.3794
  119OSM    H2F12581   6.558   4.859  10.384  0.5718  1.5023 -1.1408
  119OSM    H2G12582   6.481   4.904  10.234  2.5741 -0.2754  0.4135
  119OSM    C3F12583   6.458   4.689  10.290  1.0816  0.4895  0.0329
  119OSM    H3F12584   6.379   4.675  10.213 -0.6726  1.3985  1.5956
  119OSM    H3G12585   6.434   4.633  10.383 -0.1938  0.3407 -0.3699
  119OSM    C4F12586   6.592   4.628  10.230  0.3243  0.5935 -0.8671
  119OSM    H4F12587   6.573   4.523  10.199 -1.3526 -0.0121  1.8275
  119OSM    H4G12588   6.646   4.619  10.327  1.4801  1.8249 -1.3685
  119OSM    C5F12589   6.668   4.703  10.132 -0.1874 -0.1832  0.0779
  119OSM    H5F12590   6.759   4.647  10.099 -1.9667 -1.0777 -3.8075
  119OSM    H5G12591   6.684   4.806  10.171 -0.0581 -0.2276  0.1426
  119OSM    C6F12592   6.584   4.719  10.004  0.5562  0.2292 -0.0280
  119OSM    H6F12593   6.483   4.741  10.042  0.5674  1.9016 -0.8643
  119OSM    H6G12594   6.606   4.624   9.951  1.6856  1.2698 -1.5323
  119OSM    C7F12595   6.621   4.839   9.916  0.4432  0.3821 -0.0288
  119OSM    H7F12596   6.583   4.925   9.975 -3.1639 -0.0703 -1.4455
  119OSM    H7G12597   6.561   4.828   9.824  0.9626 -0.8814 -0.2430
  119OSM    C8F12598   6.770   4.846   9.887 -0.3996  0.0320  0.2363
  119OSM    H8F12599   6.796   4.743   9.855  0.3717 -0.5059  2.4056
  119OSM    H8G12600   6.830   4.858   9.980  0.3603 -3.9573  0.4218
  119OSM    C9F12601   6.812   4.947   9.782  0.0694  0.0551  0.0383
  119OSM    H9F12602   6.789   5.050   9.814 -0.8842 -0.3294  0.6128
  119OSM   C10F12603   6.857   4.924   9.658 -0.1690  0.4704 -0.6808
  119OSM   H10F12604   6.889   5.014   9.602 -0.8852  0.0070 -1.8621
  119OSM   C11F12605   6.878   4.782   9.596 -0.0795 -0.3032  0.1400
  119OSM   H11F12606   6.858   4.698   9.665  1.0977 -0.6899  0.0296
  119OSM   H11G12607   6.981   4.765   9.558 -0.8939  1.9017 -3.6627
  119OSM   C12F12608   6.781   4.755   9.471 -0.0641 -0.0043  0.1222
  119OSM   H12F12609   6.681   4.788   9.507 -0.8456 -1.9094 -0.2208
  119OSM   H12G12610   6.786   4.649   9.440 -1.4402  0.3432 -1.4362
  119OSM   C13F12611   6.826   4.832   9.349 -0.6588  0.5374  0.2974
  119OSM   H13F12612   6.931   4.813   9.317 -0.6583  1.1934 -0.1059
  119OSM   H13G12613   6.835   4.938   9.378  2.7464  0.3262  0.3794
  119OSM   C14F12614   6.733   4.808   9.227 -0.1897 -0.5549 -0.1084
  119OSM   H14F12615   6.629   4.833   9.256  0.1086  1.1256 -0.3758
  119OSM   H14G12616   6.737   4.698   9.211  2.7747 -0.1262 -3.7224
  119OSM   C15F12617   6.777   4.904   9.110  0.6157  0.1843  0.1137
  119OSM   H15F12618   6.875   4.864   9.076 -0.1084 -1.5233 -0.0823
  119OSM   H15G12619   6.794   5.003   9.156  3.3193  0.8964 -2.1290
  119OSM   C16F12620   6.689   4.897   8.981  0.1843 -0.0100 -0.4187
  119OSM   H16F12621   6.589   4.918   9.025  0.4204 -2.0130  1.2844
  119OSM   H16G12622   6.697   4.791   8.947 -1.1014 -0.3040  0.1362
  119OSM   C17F12623   6.721   4.996   8.875  0.1160 -0.9432  0.5236
  119OSM   H17F12624   6.748   4.942   8.781 -2.0680  0.7958 -1.2176
  119OSM   H17G12625   6.810   5.058   8.901 -1.4941  1.1969  1.2311
  119OSM   C18F12626   6.602   5.093   8.848  0.0269  1.2497  0.3527
  119OSM   H18F12627   6.627   5.166   8.769 -0.0037  0.8418 -0.0333
  119OSM   H18G12628   6.577   5.146   8.943 -0.1364  1.8737 -0.0325
  119OSM   H18H12629   6.513   5.029   8.831  0.7567  0.3098 -0.0192
  120OSM      N12630   0.845   6.559  10.816  0.6231  0.4243 -0.8222
  120OSM    C1512631   0.817   6.453  10.716  1.0198 -0.0184  0.3775
  120OSM   H15A12632   0.717   6.413  10.733  1.7963 -2.6655 -0.7059
  120OSM   H15B12633   0.901   6.386  10.712  1.4629  0.4924  0.9841
  120OSM   H15C12634   0.813   6.500  10.619  1.0437 -0.1183  0.3274
  120OSM    C1412635   0.808   6.512  10.954  0.4925 -0.0941 -0.0509
  120OSM   H14A12636   0.877   6.430  10.971  0.2378 -0.1209  0.9205
  120OSM   H14B12637   0.705   6.482  10.964 -0.8246  4.0612  0.7932
  120OSM   H14C12638   0.817   6.585  11.034  1.9555  0.3619 -0.5841
  120OSM    C1312639   0.991   6.591  10.824  0.2175  0.6967 -0.1306
  120OSM   H13A12640   1.010   6.674  10.890 -0.7496  1.3916 -0.6975
  120OSM   H13B12641   1.021   6.625  10.726  2.9683 -0.2688  0.2786
  120OSM   H13C12642   1.048   6.503  10.851 -2.0393 -0.1237  2.3804
  120OSM    C1212643   0.764   6.682  10.797 -0.3167 -0.2226 -0.2726
  120OSM   H12A12644   0.780   6.740  10.887  0.6271 -2.0255  0.7947
  120OSM   H12B12645   0.659   6.657  10.807 -0.5456  0.9199  0.3700
  120OSM    C1112646   0.781   6.775  10.673  0.9184  0.4206 -0.7045
  120OSM   H11A12647   0.877   6.830  10.690  0.6789  0.8154 -0.6144
  120OSM   H11B12648   0.706   6.854  10.692  1.8241  0.7979  1.6948
  120OSM      P12649   0.635   6.717  10.471 -0.6231 -0.1036 -0.1801
  120OSM    O1312650   0.649   6.642  10.347 -0.6565 -0.6187  0.5326
  120OSM    O1412651   0.535   6.674  10.573  0.4935  0.5324 -0.1530
  120OSM    O1112652   0.620   6.867  10.447 -0.0361 -0.2407 -0.5191
  120OSM    O1212653   0.780   6.705  10.546  0.2690 -0.7114  0.0493
  120OSM    C1S12654   0.729   6.951  10.409  0.3772  0.1029  0.4449
  120OSM    H1S12655   0.828   6.912  10.440 -0.0350  0.3850  2.2129
  120OSM    H1T12656   0.712   7.052  10.452  1.3844 -0.3273  1.9224
  120OSM     NF12657   0.866   7.027  10.209 -0.0789  0.5281  0.1759
  120OSM    HNF12658   0.868   7.121  10.175 -2.3820  0.7943  0.5924
  120OSM    C2S12659   0.749   6.961  10.248  0.4747  0.0201  0.0187
  120OSM    H2S12660   0.748   6.859  10.205 -2.3712  0.8461 -2.1496
  120OSM    C3S12661   0.623   7.031  10.185 -0.0994  0.0466 -0.1926
  120OSM    H3S12662   0.611   7.137  10.215  0.2037  0.6629 -2.1276
  120OSM     O312663   0.509   6.959  10.234 -0.1236  0.3364 -0.0565
  120OSM    HO312664   0.536   6.896  10.301 -0.9980  0.9420  0.8996
  120OSM    C4S12665   0.636   7.018  10.035  0.2167 -0.5409  0.0054
  120OSM    H4S12666   0.631   6.920   9.985 -1.1757  0.6807 -2.4252
  120OSM    C5S12667   0.662   7.120   9.947 -0.0021  0.2192 -0.1964
  120OSM    H5S12668   0.687   7.223   9.975 -0.8025  0.5707 -0.7356
  120OSM    C6S12669   0.668   7.100   9.798 -0.1676  0.2250 -0.0316
  120OSM    H6S12670   0.745   7.166   9.751 -0.4507  0.1448 -0.6232
  120OSM    H6T12671   0.573   7.119   9.743 -0.4328 -0.9707 -0.0171
  120OSM    C7S12672   0.725   6.964   9.749 -0.5040  0.7099 -0.5592
  120OSM    H7S12673   0.656   6.885   9.787  0.1062  0.4192 -0.0365
  120OSM    H7T12674   0.820   6.943   9.803 -1.7901 -0.9176  1.2302
  120OSM    C8S12675   0.744   6.955   9.597 -0.1430  0.4451  0.3667
  120OSM    H8S12676   0.796   6.865   9.559 -1.4140  0.6520 -2.0755
  120OSM    H8T12677   0.806   7.041   9.563 -1.4033  0.2337 -2.7736
  120OSM    C9S12678   0.609   6.945   9.516 -0.4124  0.3700  0.9396
  120OSM    H9S12679   0.540   7.029   9.534 -1.0043 -0.0905  0.8471
  120OSM    H9T12680   0.564   6.850   9.553 -0.8468  0.5479  0.8690
  120OSM   C10S12681   0.640   6.943   9.367 -0.3660  0.3029 -0.0970
  120OSM   H10S12682   0.733   6.891   9.335 -0.3248 -0.1209  0.6640
  120OSM   H10T12683   0.653   7.050   9.339 -0.2754  0.1744 -0.5535
  120OSM   C11S12684   0.518   6.905   9.277  0.2286 -0.3794  0.4649
  120OSM   H11S12685   0.429   6.957   9.318 -0.2772 -1.2859  0.5565
  120OSM   H11T12686   0.512   6.794   9.284 -0.6912 -0.3359  0.5822
  120OSM   C12S12687   0.527   6.951   9.130  0.4481  0.3485 -0.4017
  120OSM   H12S12688   0.518   7.062   9.122  1.8047  0.4266 -1.0289
  120OSM   H12T12689   0.445   6.906   9.069  2.1035 -1.2576 -1.5262
  120OSM   C13S12690   0.658   6.905   9.062 -0.2024  0.0326  0.5726
  120OSM   H13S12691   0.672   6.797   9.081  0.4650 -0.1919 -1.0795
  120OSM   H13T12692   0.751   6.953   9.100  0.5935 -1.3608  0.4429
  120OSM   C14S12693   0.658   6.902   8.911 -0.5070 -0.1953  0.1002
  120OSM   H14S12694   0.656   7.008   8.877  0.7097 -0.0920  0.3088
  120OSM   H14T12695   0.566   6.846   8.884 -0.0152 -0.9148 -0.1181
  120OSM   C15S12696   0.772   6.819   8.850  0.0367  0.1268 -0.6073
  120OSM   H15S12697   0.774   6.714   8.886  1.1596  0.2238 -0.3418
  120OSM   H15T12698   0.871   6.864   8.874 -0.9932  3.1463 -1.5739
  120OSM   C16S12699   0.765   6.802   8.698 -0.2311  0.5422  0.2385
  120OSM   H16S12700   0.783   6.900   8.647 -2.0842  0.7091 -0.1701
  120OSM   H16T12701   0.663   6.769   8.671 -0.1889 -0.5842  1.4025
  120OSM   C17S12702   0.861   6.690   8.644 -0.1922 -0.1129  0.0850
  120OSM   H17S12703   0.818   6.588   8.658  0.3551 -0.4574 -0.6930
  120OSM   H17T12704   0.962   6.695   8.690  0.3784 -0.2976 -1.1065
  120OSM   C18S12705   0.877   6.710   8.497  0.0867 -0.5690  0.5153
  120OSM   H18S12706   0.950   6.643   8.446 -0.3738 -1.5275  1.0992
  120OSM   H18T12707   0.909   6.816   8.481 -1.2471 -0.0965  0.8604
  120OSM   H18U12708   0.779   6.694   8.448  0.5903  0.7382 -1.0465
  120OSM    C1F12709   0.986   6.968  10.220 -0.2849 -0.0654  0.4330
  120OSM     OF12710   0.997   6.848  10.234  0.3588 -0.0833 -0.0128
  120OSM    C2F12711   1.104   7.064  10.214  0.1358  0.4333 -0.2717
  120OSM    H2F12712   1.150   7.058  10.316  1.1161 -1.8466 -0.7663
  120OSM    H2G12713   1.088   7.170  10.188  0.9327  0.1996 -1.8619
  120OSM    C3F12714   1.205   7.018  10.105  0.5964 -0.3255 -0.1730
  120OSM    H3F12715   1.247   6.922  10.142  0.7927 -0.0278  0.3848
  120OSM    H3G12716   1.289   7.089  10.118 -0.9433  1.6493 -0.6374
  120OSM    C4F12717   1.161   7.020   9.955 -0.2920  0.3942  0.5464
  120OSM    H4F12718   1.080   6.946   9.936 -0.3392  0.7990 -1.0204
  120OSM    H4G12719   1.251   6.992   9.896 -0.2376 -1.2789  1.3651
  120OSM    C5F12720   1.102   7.148   9.894 -0.2171  0.1778 -0.2747
  120OSM    H5F12721   1.158   7.238   9.929  0.7078 -1.2305  2.1754
  120OSM    H5G12722   1.006   7.160   9.949  0.0334  3.1128 -0.3287
  120OSM    C6F12723   1.066   7.145   9.746 -1.1261  0.1331 -0.4516
  120OSM    H6F12724   0.991   7.223   9.724 -1.6907 -0.5412 -0.9972
  120OSM    H6G12725   1.018   7.048   9.720 -1.4297  0.0371  0.4357
  120OSM    C7F12726   1.186   7.164   9.647 -0.5382  0.2824  0.1579
  120OSM    H7F12727   1.257   7.079   9.654 -2.0479 -1.2985 -2.2158
  120OSM    H7G12728   1.239   7.256   9.680  1.5306 -0.5528 -0.7098
  120OSM    C8F12729   1.137   7.169   9.504  0.7054 -0.7095 -0.1848
  120OSM    H8F12730   1.068   7.083   9.495  0.4006 -0.5345  0.3991
  120OSM    H8G12731   1.211   7.148   9.424  0.6714 -4.2540  0.5586
  120OSM    C9F12732   1.069   7.303   9.481  0.6666 -0.5111 -0.7462
  120OSM    H9F12733   1.056   7.364   9.572 -1.0124  1.4807 -2.2364
  120OSM   C10F12734   1.035   7.363   9.366  0.2548 -0.5213 -0.4323
  120OSM   H10F12735   0.987   7.462   9.369  2.2391  0.4613  0.1942
  120OSM   C11F12736   1.056   7.307   9.227  0.2998  0.2803 -0.1655
  120OSM   H11F12737   1.159   7.272   9.205  0.0573  0.5924 -1.9578
  120OSM   H11G12738   1.036   7.387   9.152  0.6047  0.9527  0.4525
  120OSM   C12F12739   0.959   7.187   9.193  0.0372 -0.5524  0.1185
  120OSM   H12F12740   0.850   7.208   9.192  0.2728  0.9414 -2.0373
  120OSM   H12G12741   0.970   7.103   9.264 -0.5150 -1.3888 -0.7459
  120OSM   C13F12742   0.998   7.117   9.060 -1.4245  0.1132 -0.7459
  120OSM   H13F12743   0.942   7.021   9.067 -0.2741 -0.4712  2.0642
  120OSM   H13G12744   1.108   7.104   9.067 -1.2139  2.0273  0.1539
  120OSM   C14F12745   0.962   7.195   8.936  0.0633  0.0143  0.0388
  120OSM   H14F12746   0.982   7.303   8.949  0.3639 -0.1227  0.8002
  120OSM   H14G12747   0.854   7.168   8.928  0.2596 -0.2629 -2.1746
  120OSM   C15F12748   1.041   7.146   8.818 -0.4594 -0.1030  0.2560
  120OSM   H15F12749   1.004   7.044   8.795  0.7179 -0.7352  1.0859
  120OSM   H15G12750   1.151   7.143   8.832  0.1209  1.9893 -2.9052
  120OSM   C16F12751   1.020   7.242   8.691  0.3458 -0.0934 -0.2542
  120OSM   H16F12752   1.025   7.346   8.731 -2.9885  0.0670  0.0152
  120OSM   H16G12753   0.916   7.228   8.655  0.5520 -1.1646 -0.4603
  120OSM   C17F12754   1.112   7.196   8.578 -0.0594  0.1534 -0.8785
  120OSM   H17F12755   1.078   7.245   8.484  0.6469  3.0114  0.2419
  120OSM   H17G12756   1.098   7.086   8.568 -0.9534  0.3118 -1.4776
  120OSM   C18F12757   1.259   7.240   8.596 -0.4369  0.6464 -0.8691
  120OSM   H18F12758   1.260   7.351   8.605 -0.4382  0.6315 -0.6953
  120OSM   H18G12759   1.308   7.209   8.501 -2.4770  0.6427 -1.9742
  120OSM   H18H12760   1.300   7.184   8.682  0.1810  1.1913 -0.8025
  121OSM      N12761   4.443   4.848  11.451 -0.4579  1.1496  0.3793
  121OSM    C1512762   4.472   4.955  11.556  0.1894 -0.5013  0.2522
  121OSM   H15A12763   4.576   4.967  11.583  0.2628 -0.2575 -0.1396
  121OSM   H15B12764   4.425   4.925  11.649 -0.1198  1.2024  0.6817
  121OSM   H15C12765   4.428   5.048  11.525  1.6288  0.0517 -0.1916
  121OSM    C1412766   4.533   4.735  11.472  0.3828 -0.1295 -0.1835
  121OSM   H14A12767   4.519   4.652  11.404  0.3789  1.9355 -2.8848
  121OSM   H14B12768   4.519   4.690  11.569 -0.3948 -0.0365 -0.2491
  121OSM   H14C12769   4.635   4.769  11.459  0.4548 -0.4870 -0.5730
  121OSM    C1312770   4.302   4.806  11.452 -0.0970 -0.1013 -0.8891
  121OSM   H13A12771   4.237   4.893  11.449  0.8015  0.5623 -1.6403
  121OSM   H13B12772   4.288   4.755  11.547  3.0441 -1.7074 -1.1417
  121OSM   H13C12773   4.278   4.733  11.376 -0.0708 -1.8431  0.6984
  121OSM    C1212774   4.473   4.905  11.314 -1.0981  0.0877 -0.2691
  121OSM   H12A12775   4.404   4.988  11.302  0.0225  1.1234  0.1834
  121OSM   H12B12776   4.444   4.829  11.243  0.4820 -0.2082 -0.6313
  121OSM    C1112777   4.623   4.943  11.279  0.9171 -0.2206  0.3434
  121OSM   H11A12778   4.652   5.021  11.352 -0.1752 -2.3352  3.2181
  121OSM   H11B12779   4.617   4.981  11.175  0.1741 -0.4014  0.3159
  121OSM      P12780   4.731   4.749  11.154  0.1713 -0.2909  0.1526
  121OSM    O1312781   4.789   4.614  11.182 -0.0764  0.3344  0.3241
  121OSM    O1412782   4.604   4.748  11.076 -0.7273  0.1344  1.0367
  121OSM    O1112783   4.842   4.835  11.075  0.3676  0.3488 -0.6372
  121OSM    O1212784   4.711   4.831  11.291  0.1735 -0.1218  0.1601
  121OSM    C1S12785   4.891   4.781  10.943 -0.2449 -0.0105 -0.3163
  121OSM    H1S12786   4.870   4.672  10.944 -1.6329  0.2444  0.2771
  121OSM    H1T12787   4.999   4.803  10.928  0.1185  1.7513  3.6988
  121OSM     NF12788   4.871   4.787  10.691  0.3329  0.4945  0.0777
  121OSM    HNF12789   4.952   4.832  10.656  0.8841 -0.6500 -0.1406
  121OSM    C2S12790   4.826   4.849  10.813  0.3669 -0.0705 -0.5815
  121OSM    H2S12791   4.718   4.837  10.834  0.3381  0.6542 -0.2604
  121OSM    C3S12792   4.859   5.004  10.824  0.9189 -0.2550  0.2312
  121OSM    H3S12793   4.969   5.019  10.819  0.9892 -0.4240  1.0512
  121OSM     O312794   4.821   5.075  10.942 -0.3103  0.1361 -0.0430
  121OSM    HO312795   4.804   5.006  11.006  2.0414 -2.7209 -2.2131
  121OSM    C4S12796   4.790   5.067  10.711  0.1338 -0.3635 -0.5830
  121OSM    H4S12797   4.681   5.077  10.722  0.1720  0.6737 -1.0003
  121OSM    C5S12798   4.844   5.122  10.599 -0.4523 -0.0009 -0.6399
  121OSM    H5S12799   4.952   5.114  10.580 -0.1857  2.8222 -0.6931
  121OSM    C6S12800   4.768   5.179  10.485  0.1930  0.0684 -0.2859
  121OSM    H6S12801   4.779   5.290  10.482  2.0098 -0.0947 -0.5432
  121OSM    H6T12802   4.659   5.156  10.487  0.3734 -0.7712  0.8528
  121OSM    C7S12803   4.817   5.119  10.355 -0.1541 -0.2284  0.0621
  121OSM    H7S12804   4.793   5.011  10.348  1.1526 -0.7036  1.9128
  121OSM    H7T12805   4.928   5.132  10.353 -0.1176 -0.2315  1.1452
  121OSM    C8S12806   4.759   5.196  10.237 -0.6597 -0.1155  0.1005
  121OSM    H8S12807   4.766   5.307  10.242 -1.6589  0.0040 -0.8052
  121OSM    H8T12808   4.649   5.179  10.241 -0.4018 -2.4677 -1.1494
  121OSM    C9S12809   4.810   5.140  10.096  0.0303 -0.4935 -0.3334
  121OSM    H9S12810   4.787   5.031  10.099  0.0823 -0.4776  1.5963
  121OSM    H9T12811   4.919   5.160  10.087 -0.3192  2.2103  0.4231
  121OSM   C10S12812   4.747   5.198   9.969  0.1783 -0.0119  0.2229
  121OSM   H10S12813   4.760   5.308   9.971  3.7722 -0.3087  0.9174
  121OSM   H10T12814   4.638   5.178   9.971  0.1735 -0.8814 -2.9277
  121OSM   C11S12815   4.795   5.127   9.839 -0.2997  0.2629 -0.2918
  121OSM   H11S12816   4.754   5.024   9.839 -0.4382  0.2797 -2.2790
  121OSM   H11T12817   4.905   5.139   9.836 -0.1128 -1.4646 -1.3005
  121OSM   C12S12818   4.736   5.200   9.710 -0.1307  0.0374  0.3751
  121OSM   H12S12819   4.743   5.311   9.716  1.6744  0.0462 -1.0740
  121OSM   H12T12820   4.631   5.165   9.697  0.5722 -1.0379 -4.2989
  121OSM   C13S12821   4.805   5.176   9.574 -0.7084  0.2742  0.1632
  121OSM   H13S12822   4.815   5.070   9.543 -0.4273  0.1313  0.7363
  121OSM   H13T12823   4.906   5.221   9.561  0.0258 -1.8907 -2.5945
  121OSM   C14S12824   4.710   5.231   9.454  0.1992  0.1128  0.0255
  121OSM   H14S12825   4.702   5.342   9.459 -1.8309 -0.0476  2.9467
  121OSM   H14T12826   4.610   5.189   9.477  1.1931 -2.3251  0.2422
  121OSM   C15S12827   4.735   5.176   9.312  0.6310  0.0035 -0.9719
  121OSM   H15S12828   4.720   5.066   9.316 -1.7823  0.2932 -0.9034
  121OSM   H15T12829   4.836   5.192   9.268  1.1974 -2.1973 -0.5584
  121OSM   C16S12830   4.625   5.220   9.213 -0.1706 -0.2221 -1.1338
  121OSM   H16S12831   4.619   5.330   9.222 -1.2801 -0.4033  0.7828
  121OSM   H16T12832   4.529   5.182   9.254  0.9724 -0.3429  1.6174
  121OSM   C17S12833   4.643   5.178   9.065 -0.2923  0.5579 -0.5686
  121OSM   H17S12834   4.551   5.210   9.013 -1.6011 -0.0757  1.2260
  121OSM   H17T12835   4.655   5.068   9.074 -0.8407  0.6295  1.6708
  121OSM   C18S12836   4.777   5.219   8.991  0.5518 -0.3631 -1.0640
  121OSM   H18S12837   4.871   5.193   9.045 -0.0286  0.1245  0.2489
  121OSM   H18T12838   4.771   5.330   8.982 -2.3409 -0.0346  2.3618
  121OSM   H18U12839   4.766   5.182   8.887  0.1291 -1.4246 -0.6561
  121OSM    C1F12840   4.824   4.666  10.665  0.5745 -0.3655  0.9120
  121OSM     OF12841   4.729   4.610  10.716  0.4772 -0.5079  0.6635
  121OSM    C2F12842   4.896   4.586  10.555 -0.7375  0.6748 -0.0700
  121OSM    H2F12843   5.006   4.586  10.571 -0.9500 -1.5051  1.7768
  121OSM    H2G12844   4.886   4.636  10.456 -0.5036 -1.6460 -1.3242
  121OSM    C3F12845   4.846   4.441  10.524  0.3385  0.3524  0.6029
  121OSM    H3F12846   4.736   4.424  10.520  0.4827 -0.3551 -1.6191
  121OSM    H3G12847   4.873   4.378  10.612  0.1137 -0.4877  0.0854
  121OSM    C4F12848   4.906   4.379  10.396 -0.0834 -0.0005 -0.1081
  121OSM    H4F12849   4.910   4.269  10.381  0.7229 -0.0273  0.2842
  121OSM    H4G12850   5.014   4.406  10.401  0.2984 -1.3152 -0.6019
  121OSM    C5F12851   4.835   4.430  10.271  0.1689  0.0932  0.1019
  121OSM    H5F12852   4.842   4.540  10.277  3.3618  0.0258 -0.6697
  121OSM    H5G12853   4.730   4.398  10.284  0.4425 -0.3317  1.4570
  121OSM    C6F12854   4.880   4.371  10.129 -0.1840 -0.6442 -0.4447
  121OSM    H6F12855   4.840   4.268  10.141 -1.9748 -0.0535 -0.8948
  121OSM    H6G12856   4.989   4.380  10.111 -0.2519  1.8876  0.0215
  121OSM    C7F12857   4.793   4.426  10.016 -0.4219 -0.0514  0.2595
  121OSM    H7F12858   4.776   4.534  10.033 -1.8880 -0.3835  1.0420
  121OSM    H7G12859   4.693   4.378  10.021 -0.0598 -1.0895 -1.4193
  121OSM    C8F12860   4.858   4.412   9.879 -1.2002  0.1236 -0.1914
  121OSM    H8F12861   4.854   4.304   9.854  0.9603  0.6851 -3.4958
  121OSM    H8G12862   4.968   4.421   9.886 -1.3307  1.7604  0.1388
  121OSM    C9F12863   4.781   4.501   9.785 -0.7880  0.4377 -0.0266
  121OSM    H9F12864   4.680   4.527   9.821 -1.7739 -1.9334 -0.8635
  121OSM   C10F12865   4.806   4.532   9.662  0.3574 -0.2750 -0.3766
  121OSM   H10F12866   4.725   4.592   9.619  1.6278  1.0900 -0.9727
  121OSM   C11F12867   4.924   4.500   9.582 -0.2381  0.1047  0.6022
  121OSM   H11F12868   4.983   4.419   9.630  1.3821  1.7021  1.4314
  121OSM   H11G12869   4.988   4.589   9.565  0.3966 -0.2995  0.8017
  121OSM   C12F12870   4.858   4.440   9.460 -0.9474  0.7311  0.4876
  121OSM   H12F12871   4.790   4.502   9.397  0.4212 -0.3451 -2.2129
  121OSM   H12G12872   4.804   4.347   9.490  0.2649  0.1962  1.0464
  121OSM   C13F12873   4.964   4.385   9.357  0.0596 -0.2116  0.0317
  121OSM   H13F12874   4.900   4.350   9.273  1.3290 -0.2064 -0.9705
  121OSM   H13G12875   5.026   4.309   9.408 -1.2732 -1.9842 -0.8576
  121OSM   C14F12876   5.063   4.492   9.308  0.4675 -0.0544 -0.5346
  121OSM   H14F12877   5.113   4.457   9.216 -0.3735  5.1118 -3.3303
  121OSM   H14G12878   5.141   4.511   9.385 -0.5779  0.3983  0.4474
  121OSM   C15F12879   5.011   4.630   9.259 -0.0662 -0.2326 -0.3205
  121OSM   H15F12880   5.098   4.677   9.208  0.2308 -1.5208 -1.0350
  121OSM   H15G12881   4.984   4.685   9.352 -0.3528 -0.0433 -0.5108
  121OSM   C16F12882   4.897   4.637   9.154 -0.2749 -0.7424 -0.2007
  121OSM   H16F12883   4.831   4.555   9.190 -0.0261 -0.1452  1.7526
  121OSM   H16G12884   4.941   4.618   9.054 -2.4710 -2.5257 -0.9118
  121OSM   C17F12885   4.828   4.774   9.157  0.5033 -0.4872 -0.4024
  121OSM   H17F12886   4.796   4.814   9.256  2.2904 -0.5775  0.2510
  121OSM   H17G12887   4.736   4.769   9.095 -0.1219 -0.7740  0.5216
  121OSM   C18F12888   4.897   4.886   9.081  0.7485 -0.6129 -0.4854
  121OSM   H18F12889   4.953   4.950   9.152  0.0519  0.7918 -1.1786
  121OSM   H18G12890   4.828   4.947   9.019  1.4722  0.1649 -0.5421
  121OSM   H18H12891   4.977   4.828   9.029  0.5932 -1.5030  0.2345
  122OSM      N12892   0.701   2.499  10.958  0.6225  0.6681  0.0617
  122OSM    C1512893   0.674   2.627  10.884 -0.5958 -0.4327  0.1076
  122OSM   H15A12894   0.771   2.673  10.872 -1.1738  0.8331  0.1480
  122OSM   H15B12895   0.612   2.700  10.933  1.9077  0.0280  2.8869
  122OSM   H15C12896   0.632   2.611  10.786 -2.0052  2.5518  0.1234
  122OSM    C1412897   0.792   2.522  11.072  0.1684 -0.1091  0.9109
  122OSM   H14A12898   0.756   2.592  11.147  0.8427  1.3122 -0.0518
  122OSM   H14B12899   0.879   2.571  11.030 -0.5180 -1.1702 -1.9660
  122OSM   H14C12900   0.826   2.434  11.124  2.2818 -0.2241 -0.5495
  122OSM    C1312901   0.566   2.452  11.008  0.4419 -0.0916 -0.1818
  122OSM   H13A12902   0.508   2.419  10.923 -0.1658 -0.1564  0.2569
  122OSM   H13B12903   0.516   2.526  11.067  3.0165  0.8861  0.9283
  122OSM   H13C12904   0.579   2.360  11.063 -1.2949 -0.2943 -0.0735
  122OSM    C1212905   0.778   2.390  10.876 -0.6775  0.0317 -0.4465
  122OSM   H12A12906   0.773   2.298  10.932  1.9325 -1.4582 -2.4447
  122OSM   H12B12907   0.880   2.424  10.869 -0.8242  0.2115 -2.1215
  122OSM    C1112908   0.725   2.357  10.731  0.3789  0.3750  0.6292
  122OSM   H11A12909   0.805   2.291  10.692  2.2338  1.6779  2.0423
  122OSM   H11B12910   0.745   2.439  10.658  4.7966 -0.2708  0.8604
  122OSM      P12911   0.568   2.151  10.714  0.0581  0.1242  0.3529
  122OSM    O1312912   0.627   2.097  10.838  0.0847 -0.6527 -0.2464
  122OSM    O1412913   0.423   2.121  10.698  0.6495 -0.3807  0.2503
  122OSM    O1112914   0.650   2.113  10.586 -0.4358 -0.0191 -0.3664
  122OSM    O1212915   0.590   2.309  10.728 -0.0454  0.0524  0.2563
  122OSM    C1S12916   0.618   1.991  10.511 -0.3282 -0.5449 -0.0293
  122OSM    H1S12917   0.508   1.977  10.517 -0.3513 -0.1336  0.6234
  122OSM    H1T12918   0.666   1.903  10.559 -3.6212 -3.3119 -1.4146
  122OSM     NF12919   0.603   1.885  10.287 -0.6244  0.3156 -0.2232
  122OSM    HNF12920   0.660   1.803  10.286  0.3262  0.9279  0.9364
  122OSM    C2S12921   0.660   1.999  10.361  0.1202  0.6711 -0.1981
  122OSM    H2S12922   0.610   2.091  10.324  0.1526  1.1770  0.9671
  122OSM    C3S12923   0.814   2.017  10.350 -0.5662  0.2295 -0.2582
  122OSM    H3S12924   0.859   1.926  10.396 -0.5510 -0.0202 -0.7601
  122OSM     O312925   0.857   2.135  10.424  0.2183  0.1298  0.0807
  122OSM    HO312926   0.772   2.151  10.464  0.1254 -0.7121  0.2481
  122OSM    C4S12927   0.855   2.017  10.208 -0.4813  0.2679  0.2210
  122OSM    H4S12928   0.853   1.920  10.156 -1.5747 -0.1361  0.9755
  122OSM    C5S12929   0.882   2.126  10.132 -0.8696 -0.0640  0.0239
  122OSM    H5S12930   0.895   2.220  10.187  0.8989  0.8865 -1.8912
  122OSM    C6S12931   0.929   2.122   9.984  0.5006  0.5886  0.5836
  122OSM    H6S12932   0.990   2.211   9.959  0.2241  0.2001 -1.7013
  122OSM    H6T12933   0.838   2.130   9.921  0.6058 -4.2697 -0.6218
  122OSM    C7S12934   1.003   1.990   9.935  0.6839 -0.1377  0.5342
  122OSM    H7S12935   0.929   1.908   9.919 -0.5213  1.0420 -0.1243
  122OSM    H7T12936   1.087   1.966  10.004  2.3283 -1.0171 -1.6799
  122OSM    C8S12937   1.082   2.022   9.806 -0.3419  0.0189  0.2291
  122OSM    H8S12938   1.168   2.091   9.822 -0.2416 -0.2902  1.0889
  122OSM    H8T12939   1.013   2.072   9.735 -0.0616  1.6096  1.0165
  122OSM    C9S12940   1.147   1.899   9.736  1.4189 -0.2171  0.9389
  122OSM    H9S12941   1.064   1.827   9.719 -0.1136  1.9978 -1.9522
  122OSM    H9T12942   1.213   1.850   9.810  0.0602 -3.9544 -0.0572
  122OSM   C10S12943   1.200   1.940   9.597  0.8716  0.2183  0.1234
  122OSM   H10S12944   1.252   1.852   9.553  1.8021 -0.3898  2.3311
  122OSM   H10T12945   1.286   2.009   9.611  1.5820 -0.5482 -0.3655
  122OSM   C11S12946   1.093   1.982   9.505 -0.1608 -0.2347  1.2093
  122OSM   H11S12947   1.042   2.073   9.542 -0.3033 -0.6531  2.0681
  122OSM   H11T12948   1.006   1.913   9.512 -2.2985  1.7676 -2.4156
  122OSM   C12S12949   1.134   2.001   9.349 -0.0214 -0.0190 -0.1087
  122OSM   H12S12950   1.209   1.922   9.330  0.6560  0.7486 -0.7142
  122OSM   H12T12951   1.202   2.088   9.340  2.0005 -1.3646  1.3404
  122OSM   C13S12952   1.014   2.008   9.261  0.3856  0.5649  0.5356
  122OSM   H13S12953   0.965   2.107   9.251 -0.2559  0.2157  0.1391
  122OSM   H13T12954   0.937   1.940   9.303  1.7966 -0.6698  1.2616
  122OSM   C14S12955   1.056   1.964   9.113  0.0484 -0.5143 -1.1526
  122OSM   H14S12956   1.082   1.856   9.117  1.2583 -0.2013  1.2133
  122OSM   H14T12957   1.130   2.033   9.068  0.7160 -0.0425  0.5851
  122OSM   C15S12958   0.928   1.971   9.028  0.7078 -0.1430 -0.2279
  122OSM   H15S12959   0.903   2.080   9.029  4.1185  0.7469 -0.4366
  122OSM   H15T12960   0.846   1.914   9.078 -0.4367  0.5712 -1.2194
  122OSM   C16S12961   0.940   1.918   8.888  0.4417  1.4390 -0.6597
  122OSM   H16S12962   0.941   1.807   8.886 -0.9112  1.3644  0.9965
  122OSM   H16T12963   1.031   1.959   8.839  0.4404  1.0638 -0.9853
  122OSM   C17S12964   0.827   1.960   8.798 -0.1424 -0.0760  0.3661
  122OSM   H17S12965   0.819   2.069   8.782 -0.2704 -0.2788 -1.0523
  122OSM   H17T12966   0.731   1.922   8.839  0.4079  0.2094  1.9841
  122OSM   C18S12967   0.841   1.896   8.659  0.0580  0.5721 -0.4659
  122OSM   H18S12968   0.761   1.923   8.587  0.0789 -0.0467 -0.7291
  122OSM   H18T12969   0.842   1.785   8.665 -0.5111  0.5279 -1.0807
  122OSM   H18U12970   0.939   1.923   8.613  0.2713 -0.3569 -0.5994
  122OSM    C1F12971   0.471   1.878  10.264  0.1279 -0.1345 -0.2868
  122OSM     OF12972   0.398   1.968  10.298 -0.1188  0.0094  0.6939
  122OSM    C2F12973   0.407   1.758  10.199  0.5161  0.5688 -0.0517
  122OSM    H2F12974   0.481   1.675  10.193 -0.7735 -0.6322  0.1036
  122OSM    H2G12975   0.370   1.785  10.098 -3.8775 -0.7665  0.9852
  122OSM    C3F12976   0.278   1.713  10.274  0.3387  0.2810 -0.1142
  122OSM    H3F12977   0.211   1.802  10.272  0.0610  0.0825  0.1917
  122OSM    H3G12978   0.299   1.676  10.377 -0.3451 -1.1317 -0.4681
  122OSM    C4F12979   0.200   1.606  10.192 -0.3644  0.4836 -0.3179
  122OSM    H4F12980   0.113   1.600  10.261  1.0985  1.6131  1.7353
  122OSM    H4G12981   0.257   1.511  10.199 -1.9354 -0.4140  2.0220
  122OSM    C5F12982   0.164   1.637  10.043  0.8422 -0.7337  0.6883
  122OSM    H5F12983   0.259   1.642   9.987  0.6002 -0.7095  0.2732
  122OSM    H5G12984   0.114   1.736  10.030 -1.6430 -2.2290 -2.4654
  122OSM    C6F12985   0.075   1.524   9.991 -0.5254 -0.6790  0.4996
  122OSM    H6F12986  -0.036   1.526  10.005 -0.6204 -1.4987 -0.0538
  122OSM    H6G12987   0.115   1.433  10.039  0.9447 -0.0402  0.5263
  122OSM    C7F12988   0.099   1.507   9.835  0.2511  0.1089 -0.3133
  122OSM    H7F12989   0.206   1.503   9.808  0.5524 -0.0116  0.8634
  122OSM    H7G12990   0.048   1.595   9.789  2.2705  1.7913  0.5322
  122OSM    C8F12991   0.044   1.374   9.778 -0.4831 -0.5017  0.6192
  122OSM    H8F12992   0.064   1.283   9.839 -0.4914 -0.8095  0.1735
  122OSM    H8G12993   0.100   1.355   9.684 -2.1091 -1.6762 -0.1776
  122OSM    C9F12994  -0.102   1.372   9.741  0.5996 -0.6462 -0.0515
  122OSM    H9F12995  -0.159   1.315   9.815 -0.0827  1.4730  1.1470
  122OSM   C10F12996  -0.167   1.420   9.630  0.0916  0.3362  0.2855
  122OSM   H10F12997  -0.273   1.394   9.621  1.1809 -4.9637 -0.7145
  122OSM   C11F12998  -0.110   1.499   9.517 -0.2765  0.0015  0.6254
  122OSM   H11F12999  -0.101   1.435   9.427 -0.4229  0.3896  0.3317
  122OSM   H11G13000  -0.008   1.528   9.549 -0.1039  0.5758 -0.4213
  122OSM   C12F13001  -0.197   1.621   9.475  0.1299  0.1686 -0.4493
  122OSM   H12F13002  -0.288   1.601   9.415 -0.5568  1.6917  0.0155
  122OSM   H12G13003  -0.132   1.676   9.404  2.3356  2.1909  2.8448
  122OSM   C13F13004  -0.234   1.723   9.585  0.5930  0.1139  1.2247
  122OSM   H13F13005  -0.269   1.666   9.674 -2.5315 -0.4696 -0.2503
  122OSM   H13G13006  -0.318   1.784   9.543  1.6815 -0.3330 -1.8351
  122OSM   C14F13007  -0.119   1.822   9.609  0.3005 -0.2550  0.5024
  122OSM   H14F13008  -0.072   1.849   9.512 -2.0841 -2.0850 -1.2957
  122OSM   H14G13009  -0.046   1.764   9.670 -1.1909 -1.5643  1.1246
  122OSM   C15F13010  -0.154   1.946   9.696 -0.1378 -0.8926 -0.4783
  122OSM   H15F13011  -0.219   1.911   9.779  2.0470 -1.7818  0.9352
  122OSM   H15G13012  -0.209   2.022   9.636 -0.1051 -1.6012 -1.4151
  122OSM   C16F13013  -0.032   1.993   9.771 -0.4005 -0.4389  0.2591
  122OSM   H16F13014   0.033   2.037   9.693  0.7093 -0.8547  0.9348
  122OSM   H16G13015   0.021   1.906   9.814  0.4393 -0.4169 -0.7048
  122OSM   C17F13016  -0.063   2.105   9.868 -0.2422  0.5617 -0.3110
  122OSM   H17F13017  -0.169   2.082   9.891  0.2556 -1.7996 -0.1424
  122OSM   H17G13018  -0.069   2.191   9.798 -1.3068  0.6417 -0.1468
  122OSM   C18F13019   0.028   2.126   9.984  0.0604  0.2886 -0.1003
  122OSM   H18F13020   0.133   2.155   9.964  0.1893  1.6873  2.1854
  122OSM   H18G13021   0.027   2.034  10.047  0.6731 -0.1661 -0.7348
  122OSM   H18H13022  -0.014   2.201  10.055  0.3461  0.9039 -0.5768
  123OSM      N13023   4.918   1.315   5.549 -0.4603 -0.6228  0.1492
  123OSM    C1513024   4.928   1.298   5.394 -0.1600 -0.0029 -0.2158
  123OSM   H15A13025   4.921   1.197   5.357  1.5935  0.7266 -2.7301
  123OSM   H15B13026   5.024   1.333   5.361 -0.7064 -0.6147 -2.6619
  123OSM   H15C13027   4.850   1.354   5.344 -0.3409 -1.2132 -1.3398
  123OSM    C1413028   4.790   1.260   5.597 -0.2468  0.2079  0.0693
  123OSM   H14A13029   4.777   1.162   5.554 -0.6915  1.5174 -3.0517
  123OSM   H14B13030   4.707   1.311   5.550  0.2065 -1.0996 -2.3250
  123OSM   H14C13031   4.788   1.263   5.705  0.0293  0.8849  0.0632
  123OSM    C1313032   5.029   1.238   5.609 -0.8606 -0.3650 -0.0261
  123OSM   H13A13033   5.010   1.132   5.600 -1.3768 -0.2932  0.1550
  123OSM   H13B13034   5.050   1.271   5.710 -2.1241 -1.4848  0.6367
  123OSM   H13C13035   5.122   1.251   5.557  0.3248 -1.1335  1.8017
  123OSM    C1213036   4.925   1.463   5.589 -0.0239  0.2923 -0.3155
  123OSM   H12A13037   4.836   1.513   5.555 -1.2460 -3.4034 -3.2455
  123OSM   H12B13038   5.014   1.503   5.541 -0.3659  1.9619  0.3842
  123OSM    C1113039   4.941   1.495   5.742  0.6764  0.8053  0.2635
  123OSM   H11A13040   4.944   1.606   5.744 -0.8516  0.9163 -1.4581
  123OSM   H11B13041   5.037   1.454   5.781  1.4794  2.1607 -0.2519
  123OSM      P13042   4.690   1.505   5.823  0.0466  0.0207  0.0703
  123OSM    O1313043   4.661   1.592   5.711 -0.5741  0.1981 -0.0219
  123OSM    O1413044   4.592   1.398   5.848  0.2295  0.6333  0.4495
  123OSM    O1113045   4.719   1.588   5.956 -0.0402 -0.1145  0.5456
  123OSM    O1213046   4.834   1.442   5.814  0.5119  0.2170 -0.6672
  123OSM    C1S13047   4.624   1.674   6.021  0.9342  0.3502  0.1244
  123OSM    H1S13048   4.541   1.612   6.062  1.3606 -0.3692 -0.0758
  123OSM    H1T13049   4.561   1.741   5.959 -1.7503 -2.8239 -0.9020
  123OSM     NF13050   4.588   1.803   6.232  0.3008 -0.1527  0.1485
  123OSM    HNF13051   4.576   1.899   6.211 -1.9556 -0.3670  0.2240
  123OSM    C2S13052   4.688   1.743   6.143 -0.1987 -0.6059 -0.1567
  123OSM    H2S13053   4.736   1.661   6.201  1.8038  0.4146 -0.2656
  123OSM    C3S13054   4.802   1.839   6.105 -0.5321 -0.3893 -0.3076
  123OSM    H3S13055   4.756   1.913   6.037  0.2753 -0.4749 -0.9693
  123OSM     O313056   4.913   1.779   6.032 -0.1419  0.4107 -0.4227
  123OSM    HO313057   4.872   1.704   5.987  1.6911 -2.3670  2.1366
  123OSM    C4S13058   4.858   1.900   6.227 -0.8376 -0.0449  0.7001
  123OSM    H4S13059   4.889   1.827   6.303 -2.3994  0.2866  1.7236
  123OSM    C5S13060   4.862   2.028   6.263 -0.3023  0.0227  0.2983
  123OSM    H5S13061   4.820   2.105   6.197 -1.2627 -1.7701 -1.3278
  123OSM    C6S13062   4.902   2.079   6.400  0.1746 -0.0798 -0.4454
  123OSM    H6S13063   4.845   2.169   6.430  1.1613 -0.2689  2.2462
  123OSM    H6T13064   5.006   2.117   6.387  1.0730 -2.6928 -1.7648
  123OSM    C7S13065   4.891   1.992   6.526  0.0618  0.2186  0.1682
  123OSM    H7S13066   4.974   1.918   6.516 -0.2282  0.0549 -1.3049
  123OSM    H7T13067   4.794   1.940   6.534  0.0003  0.5428  1.8750
  123OSM    C8S13068   4.924   2.057   6.657 -0.2823  0.2524  0.0054
  123OSM    H8S13069   4.878   2.157   6.673 -0.9234 -0.2041  1.1159
  123OSM    H8T13070   5.032   2.073   6.677 -0.7404  1.7196  1.5811
  123OSM    C9S13071   4.881   1.958   6.769 -0.6189 -0.1862 -0.0580
  123OSM    H9S13072   4.908   1.851   6.764 -0.6188 -0.1896  0.0092
  123OSM    H9T13073   4.771   1.970   6.781 -0.3386  0.8081  2.1191
  123OSM   C10S13074   4.952   2.006   6.897 -0.2187 -0.3676  0.3579
  123OSM   H10S13075   4.936   2.113   6.920  0.7721  0.1869 -1.3385
  123OSM   H10T13076   5.060   2.009   6.870 -0.4079  2.3013 -0.3364
  123OSM   C11S13077   4.924   1.918   7.024  0.7910 -0.3540  0.2696
  123OSM   H11S13078   4.965   1.818   6.999  0.3366 -0.5204  0.1708
  123OSM   H11T13079   4.814   1.905   7.035  0.4448  0.3927 -1.8624
  123OSM   C12S13080   4.991   1.957   7.159  0.6093 -0.0588 -0.1308
  123OSM   H12S13081   5.096   1.987   7.138  0.7586 -0.1701  0.4283
  123OSM   H12T13082   4.998   1.861   7.216 -1.0559 -0.4972 -0.5986
  123OSM   C13S13083   4.922   2.082   7.224 -0.2795 -0.2878  0.4675
  123OSM   H13S13084   4.820   2.056   7.259 -0.4293  0.9868  1.0596
  123OSM   H13T13085   4.899   2.159   7.147  0.3676  0.9981  1.5040
  123OSM   C14S13086   5.003   2.142   7.331 -0.3561 -0.1688  0.0020
  123OSM   H14S13087   5.050   2.065   7.396 -2.5304 -0.0092  1.9350
  123OSM   H14T13088   4.949   2.206   7.404  2.5434  0.1428  2.0364
  123OSM   C15S13089   5.117   2.234   7.264  0.3424 -0.0485 -0.5065
  123OSM   H15S13090   5.055   2.323   7.240 -2.7791 -1.9751 -0.2652
  123OSM   H15T13091   5.158   2.187   7.172 -2.0876 -2.0754 -0.6603
  123OSM   C16S13092   5.238   2.256   7.360 -0.5201 -0.3745 -0.0489
  123OSM   H16S13093   5.206   2.302   7.456 -2.1576  3.0870 -2.0639
  123OSM   H16T13094   5.306   2.334   7.320  1.6878 -0.9427  2.3571
  123OSM   C17S13095   5.324   2.132   7.368 -0.1827 -0.2356  0.2547
  123OSM   H17S13096   5.265   2.040   7.385  1.1067 -1.0050  0.6828
  123OSM   H17T13097   5.397   2.142   7.452 -2.1432 -0.0824  2.0091
  123OSM   C18S13098   5.426   2.119   7.251  0.5062 -0.7961  0.3100
  123OSM   H18S13099   5.474   2.218   7.237  0.2512 -0.4131  1.8999
  123OSM   H18T13100   5.369   2.085   7.162 -2.1612  0.7972  1.2820
  123OSM   H18U13101   5.512   2.048   7.258 -0.1236 -1.7832 -1.3787
  123OSM    C1F13102   4.487   1.740   6.292  0.3608 -0.4049 -0.2004
  123OSM     OF13103   4.490   1.619   6.321 -0.5129  0.0854  0.8669
  123OSM    C2F13104   4.365   1.820   6.313  0.2734  0.1728  0.0493
  123OSM    H2F13105   4.274   1.770   6.274  0.1415  0.3903  0.0729
  123OSM    H2G13106   4.377   1.918   6.262 -0.3396  0.2466  0.0366
  123OSM    C3F13107   4.357   1.835   6.472  0.4426 -0.4051  0.7548
  123OSM    H3F13108   4.361   1.740   6.530 -0.0170 -0.4189  0.7647
  123OSM    H3G13109   4.270   1.896   6.503 -0.8741 -1.2191 -1.1039
  123OSM    C4F13110   4.478   1.916   6.525  0.1541  0.1484  0.8753
  123OSM    H4F13111   4.503   1.995   6.451 -2.4654 -0.8143 -1.1978
  123OSM    H4G13112   4.565   1.847   6.532  0.9023  0.6369 -2.1372
  123OSM    C5F13113   4.452   1.980   6.662  0.0405 -0.6957 -0.5633
  123OSM    H5F13114   4.363   2.043   6.642 -0.4955 -1.3934 -0.4146
  123OSM    H5G13115   4.536   2.046   6.691 -1.0380  2.2353 -3.6001
  123OSM    C6F13116   4.426   1.875   6.776 -0.3563 -0.0169 -0.3694
  123OSM    H6F13117   4.512   1.805   6.791  0.3893  1.3335  2.2150
  123OSM    H6G13118   4.333   1.821   6.748  0.9060 -2.5958  0.0753
  123OSM    C7F13119   4.413   1.945   6.912 -0.8409 -0.8829 -0.0800
  123OSM    H7F13120   4.363   2.041   6.886 -0.6751 -1.3004 -2.0795
  123OSM    H7G13121   4.518   1.967   6.939 -0.9416 -0.9660  0.3906
  123OSM    C8F13122   4.324   1.867   7.016 -0.1440  0.5388  0.2293
  123OSM    H8F13123   4.376   1.777   7.055  0.7804  0.4436 -1.1603
  123OSM    H8G13124   4.245   1.828   6.949  0.5040 -0.5089  0.0635
  123OSM    C9F13125   4.257   1.971   7.112 -0.5829  0.3825 -0.3711
  123OSM    H9F13126   4.148   1.989   7.108 -0.7711 -0.5259  0.3272
  123OSM   C10F13127   4.324   2.041   7.208 -0.3000  0.2149  0.3778
  123OSM   H10F13128   4.263   2.103   7.276  1.1940  0.7625  1.2650
  123OSM   C11F13129   4.471   2.058   7.245 -0.2956 -0.0030 -0.4531
  123OSM   H11F13130   4.488   2.156   7.294  2.6901 -1.0525  0.8462
  123OSM   H11G13131   4.536   2.062   7.154  2.5007 -1.2371  1.3539
  123OSM   C12F13132   4.517   1.948   7.346  0.0841 -0.1935  0.4099
  123OSM   H12F13133   4.621   1.973   7.374  0.2714 -0.5764  0.0642
  123OSM   H12G13134   4.518   1.851   7.293 -2.7185 -0.8949  1.4778
  123OSM   C13F13135   4.436   1.947   7.474  0.0019  0.1425 -0.5964
  123OSM   H13F13136   4.333   1.911   7.456  0.0821 -0.2677 -0.2336
  123OSM   H13G13137   4.433   2.047   7.522 -0.0169 -0.3821  0.5072
  123OSM   C14F13138   4.480   1.843   7.577  0.0766 -0.2822  0.1620
  123OSM   H14F13139   4.510   1.749   7.526 -1.7852 -1.3732  0.9465
  123OSM   H14G13140   4.392   1.807   7.636 -0.5636  1.0007  0.0311
  123OSM   C15F13141   4.600   1.891   7.664  0.0137 -0.7223  0.5394
  123OSM   H15F13142   4.569   1.971   7.734 -1.3598  1.8650 -2.7397
  123OSM   H15G13143   4.667   1.936   7.588 -0.2352 -1.6065 -0.2361
  123OSM   C16F13144   4.671   1.786   7.738 -0.3267  0.9834 -0.0984
  123OSM   H16F13145   4.766   1.821   7.784  0.4850 -1.3050  0.1012
  123OSM   H16G13146   4.701   1.698   7.678 -1.4050 -0.1324  0.9279
  123OSM   C17F13147   4.581   1.726   7.855  0.4241  0.1731 -0.1853
  123OSM   H17F13148   4.484   1.699   7.809  0.3554 -0.2228  0.1865
  123OSM   H17G13149   4.557   1.811   7.923 -0.4717  0.3414 -0.7035
  123OSM   C18F13150   4.633   1.606   7.933  0.1879  0.2045 -0.2396
  123OSM   H18F13151   4.572   1.592   8.025  0.5445 -0.3968 -0.0897
  123OSM   H18G13152   4.737   1.637   7.960 -0.6229  1.5848  1.5495
  123OSM   H18H13153   4.630   1.518   7.866 -1.2838  0.2596 -0.2869
  124OSM      N13154   1.054   4.353   6.415  0.0272 -0.6104  0.4681
  124OSM    C1513155   1.061   4.365   6.265 -0.0315  0.0727  0.4780
  124OSM   H15A13156   1.164   4.340   6.246  0.0546  0.0964  0.9145
  124OSM   H15B13157   1.038   4.464   6.230  2.1484  0.9060  1.2544
  124OSM   H15C13158   0.993   4.293   6.221 -0.0371  0.6064 -0.4021
  124OSM    C1413159   1.150   4.452   6.479  0.1417  0.3986  0.5248
  124OSM   H14A13160   1.121   4.547   6.438 -2.6644  0.5778  2.6002
  124OSM   H14B13161   1.250   4.428   6.448 -0.0593  0.3893 -0.1223
  124OSM   H14C13162   1.143   4.444   6.587 -0.3442  2.3092  0.6805
  124OSM    C1313163   0.919   4.402   6.469 -0.1728  0.3662  0.5844
  124OSM   H13A13164   0.837   4.339   6.437  0.7035  0.0928 -1.2535
  124OSM   H13B13165   0.905   4.503   6.433  0.1563  0.5912  1.0834
  124OSM   H13C13166   0.928   4.403   6.576  2.2230 -0.8490  0.4471
  124OSM    C1213167   1.078   4.216   6.465  0.1214  0.0144  0.8369
  124OSM   H12A13168   1.081   4.226   6.572 -1.1225 -0.9754  0.9847
  124OSM   H12B13169   1.177   4.180   6.440  1.4051  2.2168  2.3809
  124OSM    C1113170   0.970   4.108   6.429 -0.1217  0.4194  0.1336
  124OSM   H11A13171   1.005   4.007   6.459 -3.5733 -0.1013  3.1846
  124OSM   H11B13172   0.951   4.117   6.320 -3.0845 -1.5796  0.3415
  124OSM      P13173   0.709   4.096   6.455 -0.1449 -0.0245  0.3894
  124OSM    O1313174   0.687   4.208   6.355  0.3146  0.1367 -0.4039
  124OSM    O1413175   0.691   3.954   6.420 -0.7054 -0.4330  0.0557
  124OSM    O1113176   0.625   4.130   6.578  0.2576  0.0248 -0.2429
  124OSM    O1213177   0.851   4.119   6.513  0.7342  0.0867 -0.2378
  124OSM    C1S13178   0.622   4.036   6.687 -0.4267  0.2226  0.7489
  124OSM    H1S13179   0.722   3.995   6.714 -0.2217 -1.2245 -1.9462
  124OSM    H1T13180   0.562   3.946   6.660  0.7260 -0.3136 -0.1010
  124OSM     NF13181   0.571   4.019   6.921  0.1442 -0.4458  0.1750
  124OSM    HNF13182   0.485   3.972   6.937 -0.1162 -1.1296 -2.6271
  124OSM    C2S13183   0.557   4.112   6.803 -0.8177  0.6358 -0.7545
  124OSM    H2S13184   0.611   4.207   6.822 -1.7635  1.2490 -1.0642
  124OSM    C3S13185   0.411   4.170   6.760  0.2134  0.0411  1.1099
  124OSM    H3S13186   0.344   4.085   6.737  0.4264  0.8829 -3.4395
  124OSM     O313187   0.423   4.254   6.643  0.0549 -0.5254 -0.1608
  124OSM    HO313188   0.510   4.241   6.604 -0.1922 -0.8239 -0.6249
  124OSM    C4S13189   0.344   4.242   6.870 -0.2206  0.2595 -0.0622
  124OSM    H4S13190   0.290   4.171   6.935 -1.6636  1.7469  0.4545
  124OSM    C5S13191   0.347   4.367   6.924  0.1179 -0.0682 -0.3927
  124OSM    H5S13192   0.424   4.435   6.886 -1.7916  2.5808  0.1498
  124OSM    C6S13193   0.267   4.419   7.040  0.0860 -0.0520 -0.6808
  124OSM    H6S13194   0.241   4.521   7.005 -1.2414 -1.3480 -3.8486
  124OSM    H6T13195   0.336   4.434   7.126  0.4325  0.3242 -1.0239
  124OSM    C7S13196   0.139   4.353   7.084  0.2055 -0.0268 -0.2752
  124OSM    H7S13197   0.151   4.250   7.124 -0.3784  0.5086  1.3828
  124OSM    H7T13198   0.071   4.339   6.997  1.3145  1.3273 -1.4001
  124OSM    C8S13199   0.072   4.442   7.192  0.0774  0.4619  0.8525
  124OSM    H8S13200   0.116   4.543   7.180  0.2934  0.0868 -2.4491
  124OSM    H8T13201   0.097   4.402   7.293  0.3708 -0.6913  0.3405
  124OSM    C9S13202  -0.086   4.445   7.184  0.6081 -0.3637 -0.0422
  124OSM    H9S13203  -0.121   4.351   7.232  2.6692 -1.2333 -0.1682
  124OSM    H9T13204  -0.115   4.452   7.077  0.6006  0.3390  0.0012
  124OSM   C10S13205  -0.148   4.560   7.255 -0.8073 -0.7779 -0.3738
  124OSM   H10S13206  -0.257   4.540   7.250 -0.7161 -1.9325  1.5630
  124OSM   H10T13207  -0.120   4.658   7.210  0.4005 -0.8039  0.3042
  124OSM   C11S13208  -0.105   4.557   7.402 -0.5593  0.2887  0.3607
  124OSM   H11S13209  -0.142   4.648   7.454  0.3732 -0.2623  2.0584
  124OSM   H11T13210   0.005   4.563   7.417 -0.7153 -0.8700  2.3823
  124OSM   C12S13211  -0.152   4.441   7.483  0.2269 -0.5627 -0.0460
  124OSM   H12S13212  -0.137   4.342   7.435 -0.4673 -0.6822 -0.0264
  124OSM   H12T13213  -0.263   4.451   7.482  0.1477 -0.9767  1.3266
  124OSM   C13S13214  -0.106   4.429   7.628 -0.0322  0.8201 -0.3919
  124OSM   H13S13215   0.005   4.418   7.623 -0.0915  0.3861 -0.9579
  124OSM   H13T13216  -0.146   4.340   7.680  0.7099  1.0137  0.5271
  124OSM   C14S13217  -0.143   4.544   7.708 -0.0316 -0.6102 -0.4054
  124OSM   H14S13218  -0.246   4.583   7.698  0.5395  0.7546 -1.2924
  124OSM   H14T13219  -0.088   4.636   7.677  1.0746 -0.7932  0.9259
  124OSM   C15S13220  -0.104   4.509   7.855  0.0646 -0.6292  0.1886
  124OSM   H15S13221   0.005   4.493   7.866  0.1283 -0.6135 -0.4121
  124OSM   H15T13222  -0.150   4.409   7.872  2.1442 -1.5829  0.5430
  124OSM   C16S13223  -0.154   4.619   7.953 -0.1858 -0.3781  0.6048
  124OSM   H16S13224  -0.260   4.600   7.981 -0.8625  0.5787 -1.1421
  124OSM   H16T13225  -0.177   4.711   7.894 -1.6746 -1.9466 -1.4117
  124OSM   C17S13226  -0.069   4.641   8.073 -1.2979 -0.0907 -0.5321
  124OSM   H17S13227   0.036   4.668   8.047 -1.2601  0.2944  0.0089
  124OSM   H17T13228  -0.044   4.546   8.124 -0.2817 -1.0556 -2.6889
  124OSM   C18S13229  -0.147   4.728   8.177  0.0779  0.4934  0.3207
  124OSM   H18S13230  -0.100   4.738   8.277 -3.6791  2.1001  2.1389
  124OSM   H18T13231  -0.257   4.711   8.184  0.0556  0.4445 -0.0973
  124OSM   H18U13232  -0.149   4.834   8.141 -0.0296 -0.3652 -2.4668
  124OSM    C1F13233   0.681   3.973   6.984  0.0792 -0.1910 -0.1812
  124OSM     OF13234   0.791   4.002   6.947 -0.7163 -0.1392  0.9145
  124OSM    C2F13235   0.657   3.879   7.100 -0.4709 -0.0396 -0.5406
  124OSM    H2F13236   0.697   3.781   7.069  1.6969  1.2001 -1.9561
  124OSM    H2G13237   0.548   3.878   7.118 -0.5772  0.8186 -1.0441
  124OSM    C3F13238   0.726   3.928   7.225 -0.0994 -0.3548 -0.4067
  124OSM    H3F13239   0.709   4.037   7.233  2.4086  0.0996 -0.5183
  124OSM    H3G13240   0.835   3.910   7.213 -0.1838 -1.8991  0.7936
  124OSM    C4F13241   0.666   3.862   7.353 -0.1305 -0.6250  0.7145
  124OSM    H4F13242   0.687   3.753   7.350 -4.5255 -1.6394 -1.2544
  124OSM    H4G13243   0.556   3.875   7.357 -0.3014 -1.8676  0.5669
  124OSM    C5F13244   0.738   3.909   7.480  0.9859 -0.5848  0.4197
  124OSM    H5F13245   0.758   4.018   7.490 -0.4040 -0.3463  0.9392
  124OSM    H5G13246   0.839   3.874   7.451  1.8609  0.8602  1.5760
  124OSM    C6F13247   0.676   3.857   7.610  0.6691 -0.5112  0.7123
  124OSM    H6F13248   0.583   3.915   7.625  0.0451 -1.8246  2.1340
  124OSM    H6G13249   0.742   3.867   7.699  2.0244  0.9226 -0.3901
  124OSM    C7F13250   0.640   3.709   7.600 -0.3189  0.3833  0.1959
  124OSM    H7F13251   0.726   3.640   7.590 -2.2320 -1.9020 -1.5851
  124OSM    H7G13252   0.567   3.689   7.518  0.2776 -2.6356  0.2968
  124OSM    C8F13253   0.553   3.659   7.718  0.0635  0.4423  0.2274
  124OSM    H8F13254   0.515   3.555   7.714  0.0189  0.4863 -0.4612
  124OSM    H8G13255   0.463   3.723   7.721 -0.3639 -0.1338 -0.0739
  124OSM    C9F13256   0.623   3.669   7.850  0.2390  0.4676  0.2353
  124OSM    H9F13257   0.725   3.628   7.844 -0.3746 -1.0697 -0.4250
  124OSM   C10F13258   0.578   3.722   7.971  0.2548 -0.3285 -0.0152
  124OSM   H10F13259   0.654   3.700   8.047  0.3667 -2.2084 -0.6340
  124OSM   C11F13260   0.443   3.783   7.989  0.1179  0.5343 -0.2194
  124OSM   H11F13261   0.428   3.842   7.896 -0.1048 -0.3080 -0.7254
  124OSM   H11G13262   0.455   3.854   8.074 -1.5812 -0.4138  0.8751
  124OSM   C12F13263   0.323   3.691   8.013 -0.2117  0.6500 -0.0870
  124OSM   H12F13264   0.347   3.643   8.111  1.5892  0.4426 -0.5931
  124OSM   H12G13265   0.323   3.619   7.929  0.1561  0.9735 -0.3681
  124OSM   C13F13266   0.181   3.761   8.000 -0.2132  0.8419  0.3151
  124OSM   H13F13267   0.105   3.706   8.059 -0.5117 -0.9504 -1.6539
  124OSM   H13G13268   0.153   3.751   7.893  0.7524  0.1329  0.1142
  124OSM   C14F13269   0.185   3.914   8.041 -0.2020  0.2717 -0.0042
  124OSM   H14F13270   0.090   3.956   8.002  0.5551  1.7925 -0.2832
  124OSM   H14G13271   0.272   3.966   7.997  0.6991 -0.7013  0.5923
  124OSM   C15F13272   0.182   3.937   8.194 -0.0262  0.4282 -0.3109
  124OSM   H15F13273   0.283   3.940   8.238 -0.8273  0.9168  1.5831
  124OSM   H15G13274   0.131   3.846   8.233 -0.5006 -0.2986 -2.4335
  124OSM   C16F13275   0.118   4.067   8.232  0.1431  0.4742 -0.3380
  124OSM   H16F13276   0.126   4.065   8.343  1.6078 -2.0094 -0.4087
  124OSM   H16G13277   0.010   4.049   8.213  0.0818  0.0057  0.3862
  124OSM   C17F13278   0.161   4.201   8.175  0.0212 -0.1136  0.5450
  124OSM   H17F13279   0.134   4.191   8.068 -1.8183 -1.8967  1.1103
  124OSM   H17G13280   0.271   4.203   8.189 -0.0039 -0.0619  0.7377
  124OSM   C18F13281   0.102   4.320   8.243  0.0953 -0.1659 -0.4192
  124OSM   H18F13282   0.150   4.410   8.200  1.6570 -0.6348  0.2708
  124OSM   H18G13283   0.116   4.337   8.352 -2.7035  0.4664 -0.0950
  124OSM   H18H13284  -0.007   4.332   8.229 -0.3585  0.7301  2.9924
  125OSM      N13285   0.202   6.506   5.949 -0.0082 -0.8008  0.8307
  125OSM    C1513286   0.122   6.618   5.879  0.3510 -0.2185 -0.1624
  125OSM   H15A13287   0.052   6.583   5.805 -1.4048  1.1888  0.7466
  125OSM   H15B13288   0.194   6.679   5.825  1.1827  1.1902  2.3807
  125OSM   H15C13289   0.074   6.689   5.945  0.0577  1.1667 -1.7933
  125OSM    C1413290   0.105   6.423   6.018 -0.4243  0.2309  0.3221
  125OSM   H14A13291   0.025   6.482   6.060  1.1196 -0.0607  4.0394
  125OSM   H14B13292   0.146   6.375   6.105  0.1425  2.0678  1.1106
  125OSM   H14C13293   0.071   6.345   5.951  3.1933  0.3229 -1.9100
  125OSM    C1313294   0.263   6.427   5.845 -0.4415  0.3266  0.4001
  125OSM   H13A13295   0.190   6.366   5.793  0.6341 -1.9145  1.3901
  125OSM   H13B13296   0.337   6.364   5.891 -0.3248  0.6202  0.6155
  125OSM   H13C13297   0.318   6.490   5.777  2.3729  1.1203  3.1763
  125OSM    C1213298   0.310   6.578   6.041  0.1151  0.8497 -0.1660
  125OSM   H12A13299   0.396   6.608   5.984  0.8834  0.1086  0.5717
  125OSM   H12B13300   0.368   6.509   6.102  0.2045  0.9422 -0.1460
  125OSM    C1113301   0.244   6.685   6.128  0.1335 -0.2198  0.0418
  125OSM   H11A13302   0.203   6.761   6.057  0.2363 -0.3785 -0.1885
  125OSM   H11B13303   0.319   6.744   6.186  0.9533 -1.4317  0.2408
  125OSM      P13304   0.204   6.544   6.342 -0.3382  0.4656  0.0419
  125OSM    O1313305   0.129   6.418   6.357  0.0976  0.0181  0.1999
  125OSM    O1413306   0.354   6.534   6.327 -0.2854  0.1618  0.7256
  125OSM    O1113307   0.185   6.630   6.466  0.0102 -0.3129  0.3155
  125OSM    O1213308   0.147   6.632   6.221  0.7707  0.3998 -0.0149
  125OSM    C1S13309   0.047   6.661   6.503  0.1552  0.2120  0.3884
  125OSM    H1S13310  -0.030   6.628   6.430  0.8320  1.6267 -1.0140
  125OSM    H1T13311   0.035   6.771   6.504 -1.8359  0.0383 -0.5640
  125OSM     NF13312  -0.127   6.638   6.689 -0.2625  0.2316 -0.1022
  125OSM    HNF13313  -0.141   6.714   6.752 -3.3914  0.7560 -1.2738
  125OSM    C2S13314   0.011   6.609   6.646  0.0482 -0.2362 -0.5200
  125OSM    H2S13315   0.031   6.500   6.632 -0.8254 -0.5543  0.5557
  125OSM    C3S13316   0.121   6.658   6.751 -0.1449  0.1216  0.0632
  125OSM    H3S13317   0.104   6.767   6.767 -0.5292  0.5862 -2.8750
  125OSM     O313318   0.254   6.654   6.708 -0.5086  0.2236  0.3222
  125OSM    HO313319   0.246   6.636   6.614  3.2243 -1.0263  0.0824
  125OSM    C4S13320   0.082   6.585   6.881  0.7735  0.0076  0.2805
  125OSM    H4S13321   0.001   6.637   6.933 -1.0106 -2.6717  0.3857
  125OSM    C5S13322   0.133   6.476   6.931  0.3969  0.1184  0.7019
  125OSM    H5S13323   0.220   6.434   6.878  0.5058  0.5285  0.5478
  125OSM    C6S13324   0.095   6.421   7.068 -0.4912  0.0765 -0.0265
  125OSM    H6S13325  -0.004   6.371   7.061 -0.2744 -0.4373  0.5058
  125OSM    H6T13326   0.085   6.504   7.142 -1.1174 -0.7797  0.8727
  125OSM    C7S13327   0.199   6.331   7.122 -0.3784 -0.0377  0.0670
  125OSM    H7S13328   0.297   6.380   7.137 -1.4248  2.2892 -0.3364
  125OSM    H7T13329   0.204   6.244   7.053  1.4974 -0.4095  0.6171
  125OSM    C8S13330   0.169   6.280   7.265  0.3638  0.2182  0.2603
  125OSM    H8S13331   0.217   6.180   7.273 -1.1701 -0.6488 -0.8306
  125OSM    H8T13332   0.059   6.264   7.266  0.5046 -0.8235  0.9361
  125OSM    C9S13333   0.214   6.379   7.372  0.6594 -0.0105  0.4913
  125OSM    H9S13334   0.172   6.480   7.352  2.1657  0.6757  0.6670
  125OSM    H9T13335   0.323   6.397   7.358  0.8101 -1.0854  0.2010
  125OSM   C10S13336   0.180   6.330   7.514 -0.0947 -0.1189 -0.6651
  125OSM   H10S13337   0.251   6.253   7.547 -0.5182  0.3671  1.5171
  125OSM   H10T13338   0.081   6.280   7.516  0.1609 -0.6010  1.0333
  125OSM   C11S13339   0.194   6.435   7.622 -0.5839  0.0167  0.4720
  125OSM   H11S13340   0.108   6.506   7.624 -0.7854 -0.2403  1.4715
  125OSM   H11T13341   0.290   6.490   7.612 -0.9968  0.9408  1.4048
  125OSM   C12S13342   0.216   6.361   7.753  0.1617 -0.2433  0.8285
  125OSM   H12S13343   0.303   6.293   7.745 -0.1614 -0.5103 -0.6399
  125OSM   H12T13344   0.126   6.298   7.774  0.0728 -0.6694 -0.7373
  125OSM   C13S13345   0.229   6.450   7.877 -0.7276  0.2543  0.3466
  125OSM   H13S13346   0.326   6.504   7.876 -0.5279 -0.0701  1.1131
  125OSM   H13T13347   0.234   6.387   7.969  2.0432  0.0121  0.1114
  125OSM   C14S13348   0.119   6.550   7.905 -0.7598  0.2716  0.2051
  125OSM   H14S13349   0.023   6.499   7.926 -0.5716  0.4086  1.4285
  125OSM   H14T13350   0.099   6.605   7.810 -0.8236  1.5076  0.9196
  125OSM   C15S13351   0.144   6.652   8.016 -0.3426  0.2905  0.2043
  125OSM   H15S13352   0.229   6.722   7.999 -0.3215  0.3963  0.7282
  125OSM   H15T13353   0.174   6.587   8.101  0.4306  0.5558  0.1407
  125OSM   C16S13354   0.013   6.733   8.051 -0.2700  0.6030 -0.2855
  125OSM   H16S13355  -0.068   6.671   8.097 -1.0357  1.1577 -0.8530
  125OSM   H16T13356  -0.026   6.783   7.960  0.0427 -1.3194 -1.5495
  125OSM   C17S13357   0.042   6.855   8.134 -0.3963 -0.1093  0.1783
  125OSM   H17S13358  -0.042   6.927   8.123  0.9690  1.8693  1.9315
  125OSM   H17T13359   0.137   6.904   8.103 -0.8044  0.6086  0.0613
  125OSM   C18S13360   0.052   6.819   8.284  0.0184  0.2108  0.2511
  125OSM   H18S13361  -0.036   6.760   8.321  0.9338 -1.4602 -0.1264
  125OSM   H18T13362   0.061   6.916   8.338 -1.2635  2.9383 -3.9905
  125OSM   H18U13363   0.141   6.758   8.310  0.2287  1.0827  1.7111
  125OSM    C1F13364  -0.228   6.564   6.649  0.2136  0.0078 -0.1667
  125OSM     OF13365  -0.209   6.470   6.570  0.2094 -0.3531 -0.3246
  125OSM    C2F13366  -0.364   6.595   6.702  0.3696  0.4335  0.0106
  125OSM    H2F13367  -0.435   6.582   6.617  0.4587 -0.9410  0.1129
  125OSM    H2G13368  -0.369   6.700   6.737  1.1874  0.3447  0.4012
  125OSM    C3F13369  -0.400   6.505   6.823  0.0614  0.3174  0.5149
  125OSM    H3F13370  -0.331   6.515   6.910  1.7296 -1.2826 -0.5574
  125OSM    H3G13371  -0.382   6.402   6.786  0.7984  0.6176  0.0108
  125OSM    C4F13372  -0.549   6.515   6.857  0.5643  1.0635 -0.0838
  125OSM    H4F13373  -0.606   6.498   6.763 -1.2983 -1.0022  1.3176
  125OSM    H4G13374  -0.569   6.619   6.889  2.6269  0.7741  2.5282
  125OSM    C5F13375  -0.591   6.408   6.959 -0.1729 -0.2403 -0.5453
  125OSM    H5F13376  -0.549   6.309   6.933 -2.0265 -2.2527  3.3577
  125OSM    H5G13377  -0.700   6.410   6.983 -0.0988 -0.9290 -0.1587
  125OSM    C6F13378  -0.516   6.432   7.098 -0.1101  0.2498  0.5209
  125OSM    H6F13379  -0.556   6.517   7.157  0.0745  0.1007  0.8672
  125OSM    H6G13380  -0.407   6.446   7.084 -0.2314  1.1060  0.3996
  125OSM    C7F13381  -0.525   6.305   7.187  0.3806  0.0675 -0.5255
  125OSM    H7F13382  -0.473   6.226   7.130  0.3468  0.7917 -1.5880
  125OSM    H7G13383  -0.632   6.276   7.196  0.6300 -0.5646  0.5583
  125OSM    C8F13384  -0.471   6.339   7.329 -0.3662  0.2286  0.0853
  125OSM    H8F13385  -0.469   6.238   7.376  1.2026 -0.1968 -0.8437
  125OSM    H8G13386  -0.542   6.410   7.377 -0.5505  1.1281 -1.4845
  125OSM    C9F13387  -0.325   6.391   7.324  0.2886  0.9661 -0.4272
  125OSM    H9F13388  -0.259   6.326   7.266 -1.3938  0.2478 -1.6404
  125OSM   C10F13389  -0.269   6.491   7.395  0.0695  0.6918  0.3605
  125OSM   H10F13390  -0.172   6.532   7.362  0.0759 -0.9003 -1.7706
  125OSM   C11F13391  -0.340   6.578   7.491 -0.2867 -0.5424  0.1640
  125OSM   H11F13392  -0.444   6.586   7.452 -1.1436 -1.1992  2.1798
  125OSM   H11G13393  -0.302   6.682   7.489 -1.3755 -0.1202 -2.0563
  125OSM   C12F13394  -0.361   6.523   7.637 -0.2773  0.5178  0.5183
  125OSM   H12F13395  -0.406   6.421   7.642  2.4617 -0.8457 -0.4130
  125OSM   H12G13396  -0.425   6.603   7.679 -0.3369  0.8575 -0.2080
  125OSM   C13F13397  -0.233   6.511   7.725  0.2576 -0.4323 -0.3225
  125OSM   H13F13398  -0.180   6.608   7.733 -1.9448  0.8990 -0.9863
  125OSM   H13G13399  -0.169   6.439   7.670  1.3473  0.6535 -0.5246
  125OSM   C14F13400  -0.263   6.436   7.860 -0.3514  0.0545  0.3776
  125OSM   H14F13401  -0.176   6.387   7.910 -1.3744  0.0865  2.2812
  125OSM   H14G13402  -0.338   6.355   7.849 -1.5640  1.2105 -0.0194
  125OSM   C15F13403  -0.334   6.532   7.968 -0.4433 -0.1798 -0.3425
  125OSM   H15F13404  -0.432   6.573   7.936  0.0970  2.0752  0.7020
  125OSM   H15G13405  -0.271   6.622   7.983  0.6563 -1.0099  0.2441
  125OSM   C16F13406  -0.344   6.461   8.099 -0.2076 -0.5202 -0.1172
  125OSM   H16F13407  -0.374   6.535   8.177 -0.2184 -1.8692  1.2154
  125OSM   H16G13408  -0.239   6.435   8.123 -0.2813 -2.2065 -1.3726
  125OSM   C17F13409  -0.428   6.335   8.104  0.3940 -0.7451  0.6132
  125OSM   H17F13410  -0.364   6.252   8.066  0.3366 -0.2515 -0.5950
  125OSM   H17G13411  -0.522   6.343   8.045 -0.9771 -0.9405  2.6920
  125OSM   C18F13412  -0.473   6.306   8.249 -0.8854 -0.4283  0.3158
  125OSM   H18F13413  -0.539   6.384   8.294  0.8193  0.7290  0.8947
  125OSM   H18G13414  -0.392   6.304   8.325 -2.1436  1.0719  1.7716
  125OSM   H18H13415  -0.513   6.203   8.254 -2.9155  0.3285  0.6112
  126OSM      N13416   4.665   5.636   6.637  0.1767  0.0031  0.3791
  126OSM    C1513417   4.599   5.713   6.744  0.7646  0.2644  0.0863
  126OSM   H15A13418   4.641   5.811   6.761 -1.0099  0.8404  1.5493
  126OSM   H15B13419   4.596   5.659   6.837  0.3925 -1.2612 -0.7893
  126OSM   H15C13420   4.497   5.728   6.710  0.9382 -0.9006 -0.9860
  126OSM    C1413421   4.586   5.517   6.594 -1.2796  0.8377  0.4067
  126OSM   H14A13422   4.630   5.465   6.511 -2.9541  1.5741 -0.9858
  126OSM   H14B13423   4.484   5.540   6.567 -1.1056 -2.0587 -3.5314
  126OSM   H14C13424   4.584   5.447   6.677  0.8271  1.1990  0.8345
  126OSM    C1313425   4.679   5.715   6.517 -0.1729 -0.7196  0.5785
  126OSM   H13A13426   4.588   5.763   6.485 -0.3489 -1.1332  0.4442
  126OSM   H13B13427   4.707   5.652   6.434  1.2020  0.6988 -0.0718
  126OSM   H13C13428   4.760   5.782   6.539 -1.3296  1.2375 -0.8296
  126OSM    C1213429   4.807   5.610   6.687  0.3344  0.6050 -0.1705
  126OSM   H12A13430   4.865   5.564   6.608  2.0428 -0.0482  1.4015
  126OSM   H12B13431   4.798   5.535   6.764  0.7879  0.3635 -0.3529
  126OSM    C1113432   4.884   5.732   6.746  0.6045  0.3135  0.2738
  126OSM   H11A13433   4.983   5.701   6.787  0.6641 -0.5679 -0.5150
  126OSM   H11B13434   4.823   5.775   6.828 -1.4652 -1.9501 -0.0044
  126OSM      P13435   5.036   5.824   6.552  0.2893  0.2629 -0.0276
  126OSM    O1313436   5.042   5.688   6.491 -0.6413 -0.0922  0.2381
  126OSM    O1413437   5.033   5.941   6.466  0.2178 -0.7963 -0.2683
  126OSM    O1113438   5.158   5.846   6.652 -0.5000 -0.4665 -0.3497
  126OSM    O1213439   4.905   5.832   6.643 -0.6548  0.4844  0.0685
  126OSM    C1S13440   5.189   5.970   6.715  0.0339 -0.2289 -0.0346
  126OSM    H1S13441   5.136   6.053   6.664  1.2908  0.5376 -0.1459
  126OSM    H1T13442   5.298   5.990   6.711 -0.3524  2.1087 -0.4626
  126OSM     NF13443   5.139   6.100   6.928 -0.1220  0.2115  0.0899
  126OSM    HNF13444   5.211   6.118   6.994  0.4410  2.3993 -1.0200
  126OSM    C2S13445   5.141   5.967   6.865 -0.6668  0.2990  0.1492
  126OSM    H2S13446   5.037   5.930   6.857 -0.5954  0.0949  0.1577
  126OSM    C3S13447   5.228   5.869   6.947  1.0274  0.5188 -0.2141
  126OSM    H3S13448   5.327   5.918   6.943  1.6674 -0.7855 -1.1308
  126OSM     O313449   5.251   5.744   6.880 -0.4363 -0.2328  0.3955
  126OSM    HO313450   5.231   5.770   6.789 -1.0962 -0.5642  0.4412
  126OSM    C4S13451   5.179   5.856   7.091 -0.8938 -0.1843 -1.1584
  126OSM    H4S13452   5.227   5.931   7.156 -2.4888  0.9099 -1.1889
  126OSM    C5S13453   5.101   5.757   7.137  0.3820 -0.2379 -1.2875
  126OSM    H5S13454   5.070   5.673   7.072 -0.5820  1.5396 -3.2333
  126OSM    C6S13455   5.069   5.733   7.285  0.0501 -0.0117  0.5548
  126OSM    H6S13456   5.095   5.630   7.317  0.2540 -0.2511 -0.3525
  126OSM    H6T13457   4.959   5.739   7.303 -0.2880  0.6506 -1.4799
  126OSM    C7S13458   5.146   5.833   7.377 -0.3446  0.8072 -0.0753
  126OSM    H7S13459   5.108   5.932   7.343  0.5282  0.9724 -0.5728
  126OSM    H7T13460   5.255   5.829   7.362 -0.7717 -2.2818 -3.7592
  126OSM    C8S13461   5.101   5.817   7.526  0.0569 -0.1135 -0.3530
  126OSM    H8S13462   5.167   5.737   7.567 -0.1133  1.2816  2.9546
  126OSM    H8T13463   4.994   5.799   7.546  0.4777 -0.0833  2.3486
  126OSM    C9S13464   5.138   5.946   7.612 -0.1320 -0.0467 -1.0364
  126OSM    H9S13465   5.084   6.038   7.579  2.7200  1.1892 -2.5999
  126OSM    H9T13466   5.244   5.972   7.592 -0.3072  1.4333 -0.2343
  126OSM   C10S13467   5.124   5.936   7.766  0.1284  0.7781 -0.4373
  126OSM   H10S13468   5.179   5.844   7.793  0.9151  1.1485 -0.7603
  126OSM   H10T13469   5.015   5.928   7.787  0.2708  2.3110  1.1714
  126OSM   C11S13470   5.183   6.054   7.850 -0.0870 -0.1683 -0.1473
  126OSM   H11S13471   5.146   6.153   7.815  1.7838  1.1195  1.3309
  126OSM   H11T13472   5.288   6.050   7.813  0.0761  1.9364 -0.0010
  126OSM   C12S13473   5.162   6.028   7.998  0.0983 -0.3860  0.2443
  126OSM   H12S13474   5.195   5.925   8.022  1.0036 -0.0507  0.4629
  126OSM   H12T13475   5.054   6.044   8.019  0.0738  2.3917 -1.4304
  126OSM   C13S13476   5.234   6.124   8.093 -0.0767 -0.0080 -0.0126
  126OSM   H13S13477   5.219   6.229   8.062 -2.0721 -0.3028 -0.2231
  126OSM   H13T13478   5.345   6.116   8.089 -0.0379  1.0336 -2.0789
  126OSM   C14S13479   5.194   6.089   8.235 -0.2879 -0.9087  0.2623
  126OSM   H14S13480   5.223   5.985   8.261  0.4583 -0.6786  0.3838
  126OSM   H14T13481   5.084   6.103   8.236 -0.2860 -0.8772  1.2962
  126OSM   C15S13482   5.263   6.189   8.329 -0.8019  0.1351  0.5620
  126OSM   H15S13483   5.249   6.289   8.284  0.6169 -0.7640 -2.0855
  126OSM   H15T13484   5.372   6.169   8.326 -0.8998 -0.3772  0.3846
  126OSM   C16S13485   5.220   6.188   8.473 -0.2637 -0.0672 -0.6704
  126OSM   H16S13486   5.208   6.086   8.516 -1.2438 -0.4145 -1.7149
  126OSM   H16T13487   5.123   6.242   8.483 -0.1065 -0.0654  1.2321
  126OSM   C17S13488   5.329   6.259   8.553 -0.7671  0.6391 -0.2337
  126OSM   H17S13489   5.328   6.366   8.522  1.0588  0.2058 -1.9908
  126OSM   H17T13490   5.430   6.219   8.530 -0.4152  0.5458  1.3728
  126OSM   C18S13491   5.318   6.243   8.704 -0.2242 -0.4581 -0.7852
  126OSM   H18S13492   5.383   6.317   8.755 -0.5616 -0.7942  0.1486
  126OSM   H18T13493   5.359   6.141   8.722  0.8872  0.1093  0.0633
  126OSM   H18U13494   5.216   6.262   8.742  0.8626  2.7203  0.9663
  126OSM    C1F13495   5.055   6.198   6.889  0.4179  0.1111 -0.7969
  126OSM     OF13496   4.986   6.201   6.789  0.0292  0.5099  0.4110
  126OSM    C2F13497   5.054   6.307   6.984 -0.2354 -0.0163 -0.6083
  126OSM    H2F13498   5.147   6.367   6.971 -1.0998  1.2769 -1.0216
  126OSM    H2G13499   5.046   6.275   7.090 -0.9503  1.0340 -0.3238
  126OSM    C3F13500   4.928   6.401   6.966 -0.4433 -0.7222 -0.3252
  126OSM    H3F13501   4.830   6.349   6.973  0.2375 -2.1624 -1.0307
  126OSM    H3G13502   4.934   6.430   6.859 -1.5789 -0.2474 -0.2766
  126OSM    C4F13503   4.930   6.536   7.039  0.5104 -0.1940 -0.1738
  126OSM    H4F13504   4.877   6.625   6.999  1.9172  1.3646  1.2424
  126OSM    H4G13505   5.039   6.558   7.047  0.8206 -1.1230 -1.4687
  126OSM    C5F13506   4.869   6.528   7.176 -0.3370  0.6040  0.0191
  126OSM    H5F13507   4.896   6.431   7.223 -2.5759  0.8793  2.0831
  126OSM    H5G13508   4.758   6.523   7.170 -0.5816 -0.9105  3.3866
  126OSM    C6F13509   4.900   6.654   7.268  0.2627  0.8322  0.0276
  126OSM    H6F13510   4.843   6.730   7.211 -0.6960 -0.4165 -0.7336
  126OSM    H6G13511   5.011   6.661   7.262  0.4258 -0.5319  0.8269
  126OSM    C7F13512   4.845   6.632   7.409  0.0352 -0.3441 -0.6875
  126OSM    H7F13513   4.903   6.554   7.462  1.1402  1.4593  0.8976
  126OSM    H7G13514   4.740   6.596   7.407 -0.1696  0.1422  0.3810
  126OSM    C8F13515   4.881   6.748   7.504 -0.0235 -0.2306 -0.3933
  126OSM    H8F13516   4.983   6.788   7.484  0.6365 -1.3699  0.6187
  126OSM    H8G13517   4.880   6.691   7.598 -1.2581 -0.6179 -0.6231
  126OSM    C9F13518   4.781   6.859   7.496 -0.1039 -0.6504 -0.3283
  126OSM    H9F13519   4.824   6.948   7.449 -1.2503 -0.8196 -1.7420
  126OSM   C10F13520   4.658   6.865   7.550 -0.2189 -0.6143 -0.3524
  126OSM   H10F13521   4.596   6.953   7.528 -1.9889 -1.8821 -0.6583
  126OSM   C11F13522   4.598   6.752   7.635 -0.0700 -0.2965 -0.0277
  126OSM   H11F13523   4.674   6.672   7.647  0.1494  0.0761  1.2840
  126OSM   H11G13524   4.514   6.703   7.582 -0.7599  1.9058 -1.0906
  126OSM   C12F13525   4.546   6.792   7.781  0.4724  0.1333  0.1071
  126OSM   H12F13526   4.469   6.868   7.758  0.5375  0.2106  0.1462
  126OSM   H12G13527   4.632   6.834   7.836  0.6282  0.3993 -0.3373
  126OSM   C13F13528   4.486   6.672   7.853  0.2454 -0.0310  0.2675
  126OSM   H13F13529   4.560   6.592   7.875  0.6683  0.3454  0.2286
  126OSM   H13G13530   4.406   6.629   7.789  1.0107 -1.3286  0.1380
  126OSM   C14F13531   4.398   6.723   7.970  0.1644 -0.1406  0.0659
  126OSM   H14F13532   4.334   6.809   7.942 -0.7915 -0.8299  0.1142
  126OSM   H14G13533   4.472   6.770   8.039 -0.3881  1.4700 -0.3868
  126OSM   C15F13534   4.325   6.612   8.037  1.2039 -0.0588 -0.4605
  126OSM   H15F13535   4.392   6.526   8.061 -3.0768 -2.9320  2.4968
  126OSM   H15G13536   4.248   6.576   7.966 -0.6245  1.0831  0.8860
  126OSM   C16F13537   4.255   6.653   8.165 -0.3592 -0.8775 -0.5954
  126OSM   H16F13538   4.186   6.736   8.138 -1.8803 -2.3094 -1.3237
  126OSM   H16G13539   4.313   6.689   8.253 -1.6434 -2.4792  0.9846
  126OSM   C17F13540   4.149   6.546   8.210 -0.3663 -0.3421  0.0329
  126OSM   H17F13541   4.198   6.447   8.211 -1.6566 -0.9979  0.9833
  126OSM   H17G13542   4.060   6.525   8.146 -0.4703  0.2083 -0.0075
  126OSM   C18F13543   4.086   6.585   8.342 -0.1686 -0.0709  0.2492
  126OSM   H18F13544   4.051   6.689   8.327 -0.7155 -0.5367 -2.2763
  126OSM   H18G13545   4.169   6.575   8.415 -0.6223  0.1665  0.8032
  126OSM   H18H13546   3.999   6.523   8.371 -0.3943  1.0499  2.0884
  127OSM      N13547   6.314   2.760   5.920 -0.5642  0.4403 -0.5565
  127OSM    C1513548   6.419   2.867   5.949 -0.4860  0.2913 -0.0292
  127OSM   H15A13549   6.494   2.859   5.872  0.9259 -0.0242  1.3295
  127OSM   H15B13550   6.465   2.853   6.046 -1.0708  3.3936  0.8103
  127OSM   H15C13551   6.365   2.960   5.963 -2.4851 -0.3279 -2.8899
  127OSM    C1413552   6.262   2.772   5.785  0.0017 -0.6021  0.0784
  127OSM   H14A13553   6.212   2.684   5.747  0.7356  0.3041 -3.3502
  127OSM   H14B13554   6.342   2.783   5.714  0.0568 -1.1242  0.0515
  127OSM   H14C13555   6.194   2.856   5.782 -0.0336 -0.3406  3.6774
  127OSM    C1313556   6.381   2.627   5.939  0.2639  0.1940  0.2229
  127OSM   H13A13557   6.468   2.611   5.877  0.6869  0.4869  0.7318
  127OSM   H13B13558   6.313   2.544   5.937  0.1318  0.3063  0.0009
  127OSM   H13C13559   6.427   2.621   6.037 -1.3815 -1.5127  0.9540
  127OSM    C1213560   6.197   2.772   6.012 -0.5229  0.5243 -0.2531
  127OSM   H12A13561   6.238   2.775   6.112  0.9466 -2.1765 -0.6968
  127OSM   H12B13562   6.152   2.674   6.010  0.1566  0.2060 -0.2557
  127OSM    C1113563   6.099   2.886   5.993 -0.2421 -0.6634  0.5993
  127OSM   H11A13564   6.013   2.869   6.061  0.0569  0.0362  1.1586
  127OSM   H11B13565   6.054   2.884   5.892 -0.0799 -0.1360  0.5171
  127OSM      P13566   6.163   3.082   6.157  0.0775  0.2103 -0.2574
  127OSM    O1313567   6.300   3.111   6.183 -1.0374  0.0739 -0.1563
  127OSM    O1413568   6.074   3.196   6.163 -0.4231 -0.3419  0.2634
  127OSM    O1113569   6.115   2.966   6.254  0.7063 -0.5466 -0.5881
  127OSM    O1213570   6.158   3.013   6.014  0.3757 -0.5724 -0.1228
  127OSM    C1S13571   6.117   2.987   6.398  0.1644  0.5957 -1.0168
  127OSM    H1S13572   6.054   3.075   6.424  0.4768  1.2222 -2.3053
  127OSM    H1T13573   6.216   3.018   6.438 -0.1614 -0.2059  0.4935
  127OSM     NF13574   6.073   2.903   6.628 -1.0303  0.0133  0.1398
  127OSM    HNF13575   6.159   2.871   6.667 -0.1277 -1.2047 -2.5916
  127OSM    C2S13576   6.070   2.870   6.485 -0.0410 -0.3990 -0.2253
  127OSM    H2S13577   5.963   2.853   6.458 -0.2567 -0.9099  0.8993
  127OSM    C3S13578   6.155   2.740   6.446  0.1393 -0.4205  0.0344
  127OSM    H3S13579   6.256   2.780   6.467 -1.3210  3.0317  1.2798
  127OSM     O313580   6.157   2.708   6.308  0.1849 -0.0593  0.3600
  127OSM    HO313581   6.099   2.780   6.281 -0.5398 -0.2044  1.4368
  127OSM    C4S13582   6.118   2.624   6.535  0.0285  0.6069  0.5273
  127OSM    H4S13583   6.015   2.585   6.531  0.6189 -0.9663 -0.1016
  127OSM    C5S13584   6.209   2.557   6.614  0.4156 -0.4880  0.0131
  127OSM    H5S13585   6.313   2.594   6.616  0.2808  0.0490 -1.7104
  127OSM    C6S13586   6.178   2.450   6.708 -0.0316  0.2994  0.4457
  127OSM    H6S13587   6.240   2.362   6.682  0.5615  1.1188 -1.0458
  127OSM    H6T13588   6.076   2.415   6.680 -0.0855  0.3774  0.5461
  127OSM    C7S13589   6.188   2.462   6.857 -0.6596 -0.6708  1.1386
  127OSM    H7S13590   6.119   2.532   6.909 -0.0949  0.2165  0.7149
  127OSM    H7T13591   6.289   2.500   6.881  0.3759 -2.8565  0.5228
  127OSM    C8S13592   6.169   2.319   6.932 -0.3119 -0.7878 -0.5851
  127OSM    H8S13593   6.180   2.335   7.041 -0.8739 -0.4557 -0.5732
  127OSM    H8T13594   6.260   2.262   6.903  1.1550  1.1301  0.0163
  127OSM    C9S13595   6.030   2.251   6.913 -0.6950  0.0170  0.1154
  127OSM    H9S13596   6.022   2.211   6.809  2.4819  0.1323 -0.2748
  127OSM    H9T13597   5.948   2.325   6.922 -0.5575  0.2103 -0.2016
  127OSM   C10S13598   5.990   2.140   7.011  0.2794  0.4737 -0.0134
  127OSM   H10S13599   6.024   2.169   7.112  1.3937 -1.7103  0.2734
  127OSM   H10T13600   6.043   2.047   6.984 -1.6777 -0.6785 -0.0497
  127OSM   C11S13601   5.834   2.131   7.024  0.7585  0.4795  0.3660
  127OSM   H11S13602   5.799   2.218   7.085  0.2104  1.0177 -0.6919
  127OSM   H11T13603   5.808   2.035   7.073  0.6171  0.2688 -0.1217
  127OSM   C12S13604   5.752   2.148   6.895 -0.6416  0.5378  0.1802
  127OSM   H12S13605   5.792   2.081   6.816 -1.6354  1.3626 -1.0712
  127OSM   H12T13606   5.748   2.250   6.850 -1.5906  1.0758  1.3892
  127OSM   C13S13607   5.608   2.107   6.922 -0.5356 -0.3257  0.1057
  127OSM   H13S13608   5.569   2.170   7.005 -0.1884 -2.0729  1.6682
  127OSM   H13T13609   5.603   2.007   6.970  0.0511 -0.5695 -0.3264
  127OSM   C14S13610   5.518   2.118   6.799  0.9299 -0.1565 -0.0528
  127OSM   H14S13611   5.587   2.102   6.714 -0.4577  0.0044 -1.2451
  127OSM   H14T13612   5.480   2.222   6.787  0.8138 -0.5082 -3.7828
  127OSM   C15S13613   5.397   2.017   6.794 -0.3852  0.2954  0.3760
  127OSM   H15S13614   5.339   2.042   6.886  1.4757  2.7650  0.9565
  127OSM   H15T13615   5.426   1.910   6.801  0.3643  0.4745  0.1037
  127OSM   C16S13616   5.304   2.041   6.678  0.0496 -0.1990  0.2159
  127OSM   H16S13617   5.269   2.145   6.696 -0.9073 -0.6826  1.2618
  127OSM   H16T13618   5.220   1.969   6.687 -0.6199  0.6973  1.4334
  127OSM   C17S13619   5.366   2.030   6.537 -0.5319 -0.2446  0.2729
  127OSM   H17S13620   5.434   2.117   6.529  0.3495 -0.9557 -0.2361
  127OSM   H17T13621   5.277   2.041   6.472 -0.8048  1.2283  0.8624
  127OSM   C18S13622   5.448   1.907   6.501 -0.7279 -0.1064  0.3119
  127OSM   H18S13623   5.477   1.910   6.393  0.3427  0.1020  0.5944
  127OSM   H18T13624   5.392   1.813   6.518  0.1961 -0.6475  0.3582
  127OSM   H18U13625   5.543   1.903   6.558 -0.2651 -1.0054 -0.4995
  127OSM    C1F13626   6.001   2.990   6.698  0.1931 -0.3030  0.0192
  127OSM     OF13627   5.902   3.045   6.649  0.0156  0.7173 -0.2378
  127OSM    C2F13628   6.043   3.021   6.838 -0.7400  0.1849  0.0370
  127OSM    H2F13629   6.086   3.124   6.842 -0.1379 -0.0607 -0.1296
  127OSM    H2G13630   6.120   2.949   6.874  0.2640  1.0422 -0.3420
  127OSM    C3F13631   5.921   3.020   6.924  0.5378  0.1353  0.1647
  127OSM    H3F13632   5.870   2.921   6.919 -1.2413  0.8830  2.0751
  127OSM    H3G13633   5.849   3.096   6.887  0.6510  0.1254 -0.0762
  127OSM    C4F13634   5.940   3.042   7.077  0.0366 -0.5365 -0.4754
  127OSM    H4F13635   5.937   2.945   7.132 -2.0609 -0.5849 -0.5802
  127OSM    H4G13636   5.856   3.091   7.131 -0.5867 -2.1514  0.0959
  127OSM    C5F13637   6.067   3.113   7.115 -0.9687 -0.0202  0.0595
  127OSM    H5F13638   6.067   3.217   7.077 -1.4213 -0.9003 -2.5998
  127OSM    H5G13639   6.152   3.063   7.063  0.0216  1.0905  0.5775
  127OSM    C6F13640   6.092   3.108   7.268  0.4524  0.7177 -0.4298
  127OSM    H6F13641   6.110   3.007   7.309 -0.0290  1.9195  3.0642
  127OSM    H6G13642   6.000   3.145   7.318  0.4303 -1.5819  1.3986
  127OSM    C7F13643   6.207   3.201   7.306  0.9897  0.1025  0.1197
  127OSM    H7F13644   6.180   3.305   7.280 -1.0854 -0.3236  0.3276
  127OSM    H7G13645   6.292   3.188   7.236 -0.0167  0.1617 -1.1571
  127OSM    C8F13646   6.273   3.202   7.446 -0.1966 -0.2393 -0.7869
  127OSM    H8F13647   6.346   3.285   7.441  1.2042 -1.3379  0.6185
  127OSM    H8G13648   6.330   3.109   7.465 -0.4137 -0.1959  0.1373
  127OSM    C9F13649   6.176   3.229   7.561 -0.4135 -0.0503  0.0443
  127OSM    H9F13650   6.068   3.218   7.541 -0.8405  2.9346  0.3174
  127OSM   C10F13651   6.209   3.254   7.684 -0.1680  0.1836 -0.1876
  127OSM   H10F13652   6.130   3.273   7.758  2.6581 -0.6073  3.3422
  127OSM   C11F13653   6.346   3.265   7.742  0.0895  0.7263 -0.1700
  127OSM   H11F13654   6.367   3.369   7.776 -0.2918  0.3064  1.4773
  127OSM   H11G13655   6.415   3.251   7.656 -0.6259 -1.1727 -0.4812
  127OSM   C12F13656   6.385   3.165   7.850  0.1871  0.7377  0.3458
  127OSM   H12F13657   6.488   3.194   7.879  1.0491  0.7494 -2.3880
  127OSM   H12G13658   6.394   3.074   7.787  1.7395  0.8701  0.3290
  127OSM   C13F13659   6.305   3.148   7.981 -0.1308 -0.1771  0.7275
  127OSM   H13F13660   6.355   3.070   8.042  2.1775  0.2083 -0.5545
  127OSM   H13G13661   6.199   3.133   7.950  0.4815  0.7777 -2.2209
  127OSM   C14F13662   6.319   3.277   8.062  0.4236 -0.2257 -0.4382
  127OSM   H14F13663   6.279   3.367   8.010 -0.3752 -0.6764 -0.6088
  127OSM   H14G13664   6.428   3.294   8.075  0.2066 -0.6971  2.6077
  127OSM   C15F13665   6.252   3.255   8.195  0.1206  0.5624  0.6483
  127OSM   H15F13666   6.300   3.167   8.243  2.9230  2.5861  1.8259
  127OSM   H15G13667   6.144   3.232   8.184  0.4981 -0.3013 -1.5904
  127OSM   C16F13668   6.260   3.371   8.292 -0.4741  0.6119  0.0484
  127OSM   H16F13669   6.176   3.363   8.364 -2.5228  0.1550 -2.2315
  127OSM   H16G13670   6.233   3.457   8.226 -1.2109  2.1727  2.2823
  127OSM   C17F13671   6.398   3.390   8.358  0.4617 -0.0331 -0.6133
  127OSM   H17F13672   6.483   3.395   8.287  1.2953 -1.0658  0.2908
  127OSM   H17G13673   6.411   3.289   8.403 -0.9026  0.3919  0.8317
  127OSM   C18F13674   6.387   3.499   8.459  0.0734 -1.0215  0.7144
  127OSM   H18F13675   6.334   3.468   8.552 -2.6444  1.4467  0.1448
  127OSM   H18G13676   6.322   3.575   8.411  2.6049  0.1946 -1.0132
  127OSM   H18H13677   6.485   3.538   8.494 -0.1502 -0.7252  1.0178
  128OSM      N13678   1.582   1.436   5.903  0.2998  0.2116  0.1895
  128OSM    C1513679   1.705   1.465   5.822  0.1434  0.1809 -0.2545
  128OSM   H15A13680   1.720   1.394   5.742  5.7003 -1.7624  1.9995
  128OSM   H15B13681   1.787   1.459   5.892 -1.1507  2.1368  1.5487
  128OSM   H15C13682   1.708   1.566   5.782  1.8161  0.2424 -0.0593
  128OSM    C1413683   1.455   1.448   5.816 -0.7966 -0.4222 -0.1436
  128OSM   H14A13684   1.369   1.424   5.876 -0.6622  0.7216  0.5447
  128OSM   H14B13685   1.459   1.372   5.740  2.2792 -0.0860 -0.4541
  128OSM   H14C13686   1.449   1.537   5.755 -0.8822 -0.9329 -0.8777
  128OSM    C1313687   1.589   1.296   5.948 -0.3793  0.5229 -0.3853
  128OSM   H13A13688   1.563   1.225   5.871  0.3814  0.2766 -0.4239
  128OSM   H13B13689   1.523   1.276   6.030  1.5410  2.7635  1.8822
  128OSM   H13C13690   1.684   1.263   5.987 -1.4494  1.1647  3.0459
  128OSM    C1213691   1.577   1.534   6.020 -0.3822  0.4495  0.2969
  128OSM   H12A13692   1.662   1.512   6.083  1.4152  0.4404 -1.9600
  128OSM   H12B13693   1.487   1.534   6.079  0.1364 -2.9881  1.3260
  128OSM    C1113694   1.581   1.684   5.979 -0.1255  0.2080 -0.7090
  128OSM   H11A13695   1.490   1.711   5.922 -0.0232 -0.5867 -1.2563
  128OSM   H11B13696   1.660   1.711   5.905 -0.5705 -1.7832 -1.9918
  128OSM      P13697   1.724   1.745   6.196  0.1700  0.2707  0.1258
  128OSM    O1313698   1.805   1.620   6.171  0.3899 -0.6232 -0.1437
  128OSM    O1413699   1.790   1.878   6.176  0.2342  0.1686  0.5051
  128OSM    O1113700   1.663   1.737   6.342  0.1736  0.3464  0.4486
  128OSM    O1213701   1.597   1.747   6.104 -0.2548  0.3171 -0.3052
  128OSM    C1S13702   1.527   1.772   6.363  0.0385  0.0600 -0.2898
  128OSM    H1S13703   1.446   1.699   6.339  0.0102  0.0805 -0.2569
  128OSM    H1T13704   1.512   1.871   6.314  5.0074  0.6620 -1.0877
  128OSM     NF13705   1.351   1.826   6.534  0.4828  0.1044  0.2824
  128OSM    HNF13706   1.325   1.922   6.524  2.2565  0.4566 -1.8027
  128OSM    C2S13707   1.495   1.796   6.515 -0.6480 -0.1062 -0.8387
  128OSM    H2S13708   1.506   1.701   6.572 -0.1795 -0.2672 -1.1947
  128OSM    C3S13709   1.588   1.897   6.581 -0.0297 -0.0509  0.5889
  128OSM    H3S13710   1.563   2.000   6.548  0.3029  0.5087  2.0437
  128OSM     O313711   1.728   1.880   6.552  0.3261 -0.0740  0.2949
  128OSM    HO313712   1.730   1.812   6.485  1.0102  1.0000 -0.8029
  128OSM    C4S13713   1.566   1.894   6.728 -0.7461  0.0320  0.1183
  128OSM    H4S13714   1.624   1.819   6.784  0.8389  0.9266 -0.2677
  128OSM    C5S13715   1.533   1.999   6.797  0.8282  0.0430  0.5244
  128OSM    H5S13716   1.494   2.088   6.744 -3.0652 -0.0852  2.7685
  128OSM    C6S13717   1.510   1.995   6.951 -0.2006  0.1809  0.3282
  128OSM    H6S13718   1.402   1.995   6.977 -0.3408 -1.6167 -0.1318
  128OSM    H6T13719   1.559   2.088   6.986  0.5159 -0.1730  0.2955
  128OSM    C7S13720   1.573   1.879   7.036  0.2774  0.0920  0.4395
  128OSM    H7S13721   1.683   1.882   7.021  0.3083  1.2399  0.8346
  128OSM    H7T13722   1.540   1.784   6.987  0.3297  0.7116 -0.8393
  128OSM    C8S13723   1.534   1.882   7.183 -0.4905 -0.1573 -1.3448
  128OSM    H8S13724   1.586   1.798   7.234 -1.3902  0.7941  1.3506
  128OSM    H8T13725   1.426   1.859   7.188 -0.5256  0.0637  2.8064
  128OSM    C9S13726   1.579   2.010   7.254 -0.1614 -0.0525 -0.1259
  128OSM    H9S13727   1.537   2.102   7.208 -1.9772 -0.2805  0.9895
  128OSM    H9T13728   1.689   2.022   7.245 -0.2145 -0.2029 -1.1335
  128OSM   C10S13729   1.531   2.014   7.402  0.8764 -0.3834  0.1543
  128OSM   H10S13730   1.525   1.908   7.435  0.4154 -0.9157 -1.5497
  128OSM   H10T13731   1.434   2.067   7.407  0.9887 -0.2376  0.8860
  128OSM   C11S13732   1.631   2.089   7.493  0.3290 -0.0105 -0.1331
  128OSM   H11S13733   1.650   2.190   7.451 -1.1789 -1.3420 -4.4839
  128OSM   H11T13734   1.723   2.028   7.498  0.0980 -0.3475 -0.0123
  128OSM   C12S13735   1.588   2.089   7.636  0.7266 -0.2649  0.0128
  128OSM   H12S13736   1.482   2.124   7.631  0.8132  0.0299  0.1945
  128OSM   H12T13737   1.648   2.163   7.694  1.7974 -0.8354 -0.3377
  128OSM   C13S13738   1.591   1.951   7.702  0.3361 -0.0315  0.0208
  128OSM   H13S13739   1.675   1.886   7.670  1.0463 -0.9191  3.3032
  128OSM   H13T13740   1.493   1.907   7.674  0.3714  0.5710 -1.0941
  128OSM   C14S13741   1.600   1.957   7.857  0.3352  0.0322 -0.0309
  128OSM   H14S13742   1.609   1.852   7.891  0.7169  0.6223  1.8121
  128OSM   H14T13743   1.509   1.999   7.906  1.5517 -1.6554  4.1049
  128OSM   C15S13744   1.724   2.033   7.914  0.7670 -0.4986 -0.0202
  128OSM   H15S13745   1.712   2.143   7.901 -0.8150 -0.4953  1.1371
  128OSM   H15T13746   1.825   2.004   7.877  1.0075  0.3302 -0.0435
  128OSM   C16S13747   1.743   2.006   8.066  0.1560 -0.4040 -0.2229
  128OSM   H16S13748   1.748   1.898   8.092 -0.4664 -0.6394 -1.0586
  128OSM   H16T13749   1.640   2.035   8.095 -0.4469  2.1471 -4.1416
  128OSM   C17S13750   1.844   2.088   8.149 -0.5169 -0.4918 -0.0722
  128OSM   H17S13751   1.845   2.193   8.112 -2.7182 -0.3338  0.2027
  128OSM   H17T13752   1.949   2.058   8.128 -0.6633  0.7811 -3.1656
  128OSM   C18S13753   1.824   2.088   8.298 -0.0063  0.0649 -0.5359
  128OSM   H18S13754   1.819   1.986   8.341  2.8734  0.3651  0.7113
  128OSM   H18T13755   1.730   2.143   8.322  0.4239  0.5145  0.1681
  128OSM   H18U13756   1.906   2.140   8.353  1.5607 -2.8052  0.0052
  128OSM    C1F13757   1.257   1.731   6.524 -0.0579 -0.4611 -0.1187
  128OSM     OF13758   1.293   1.617   6.548 -0.3301 -0.0784 -0.0107
  128OSM    C2F13759   1.116   1.769   6.495 -0.4237 -0.6413 -0.0733
  128OSM    H2F13760   1.085   1.752   6.390 -0.2248 -0.5914 -0.1415
  128OSM    H2G13761   1.100   1.873   6.529  0.3146 -1.5135  3.2899
  128OSM    C3F13762   1.021   1.691   6.589 -0.4584  0.5476 -0.0832
  128OSM    H3F13763   1.050   1.584   6.587  0.3175  0.7515 -0.2638
  128OSM    H3G13764   0.915   1.683   6.559 -0.7052  1.4811  0.5091
  128OSM    C4F13765   1.023   1.739   6.732  0.3920  0.0668 -0.1347
  128OSM    H4F13766   0.987   1.844   6.726 -1.0256 -0.2696  1.4806
  128OSM    H4G13767   1.126   1.726   6.772  0.2854 -1.1851 -0.2370
  128OSM    C5F13768   0.905   1.667   6.812 -0.5847  0.1176 -0.5559
  128OSM    H5F13769   0.935   1.561   6.808 -0.4028  0.1574 -0.2198
  128OSM    H5G13770   0.817   1.675   6.745  0.0771 -1.0752 -1.6140
  128OSM    C6F13771   0.886   1.712   6.960  0.2248  0.5885 -1.4273
  128OSM    H6F13772   0.962   1.660   7.022 -0.6256  1.4580  0.4337
  128OSM    H6G13773   0.790   1.666   6.992  0.7165 -0.0142 -0.8078
  128OSM    C7F13774   0.898   1.865   6.987  0.0495 -0.4378 -0.1294
  128OSM    H7F13775   0.807   1.914   6.946 -1.1028 -0.1418  2.5125
  128OSM    H7G13776   0.994   1.909   6.952  0.5914 -0.3372  1.4051
  128OSM    C8F13777   0.877   1.897   7.144 -0.0813 -0.1670  1.1432
  128OSM    H8F13778   0.792   1.834   7.175 -1.2863 -0.4844 -2.3588
  128OSM    H8G13779   0.848   2.004   7.152  0.2406 -0.1700  2.7107
  128OSM    C9F13780   1.006   1.878   7.221  0.1613  0.0845  0.4463
  128OSM    H9F13781   1.096   1.875   7.157  0.8219 -1.3915  1.3867
  128OSM   C10F13782   1.021   1.865   7.354 -0.2716 -0.0263 -0.4178
  128OSM   H10F13783   1.125   1.866   7.389  0.7277  0.8028 -3.1399
  128OSM   C11F13784   0.908   1.863   7.456 -0.4204  0.6109  0.6082
  128OSM   H11F13785   0.879   1.760   7.487  1.0251  0.3931  1.3143
  128OSM   H11G13786   0.816   1.906   7.410  1.8084  3.1645 -1.7971
  128OSM   C12F13787   0.932   1.941   7.582  0.9459  0.2841  0.2311
  128OSM   H12F13788   0.837   1.956   7.639 -0.2973 -0.4251 -1.5710
  128OSM   H12G13789   0.966   2.043   7.553 -1.1494  0.9253 -0.1892
  128OSM   C13F13790   1.034   1.893   7.683  0.0251  0.3297  0.1909
  128OSM   H13F13791   1.133   1.917   7.639  0.3283  0.1042  0.7379
  128OSM   H13G13792   1.024   1.784   7.701  1.1934  0.0560 -0.7237
  128OSM   C14F13793   1.016   1.966   7.819 -0.2549 -0.7580 -0.0767
  128OSM   H14F13794   0.943   2.049   7.805 -0.4254 -0.9010 -0.0417
  128OSM   H14G13795   1.115   2.005   7.851 -0.6248 -1.3797  1.9417
  128OSM   C15F13796   0.953   1.894   7.933  0.2150  0.1030  0.2974
  128OSM   H15F13797   0.965   1.784   7.920  0.5858  0.3180 -1.3824
  128OSM   H15G13798   0.844   1.918   7.929  0.4308  1.0006 -1.8867
  128OSM   C16F13799   1.003   1.945   8.068 -0.8849  0.9405  0.0430
  128OSM   H16F13800   0.942   1.904   8.151  1.5056  0.5376  1.7160
  128OSM   H16G13801   1.001   2.055   8.084 -0.8272  0.8034  1.0994
  128OSM   C17F13802   1.152   1.904   8.099 -0.0543 -0.0317  0.6532
  128OSM   H17F13803   1.224   1.968   8.045 -1.6697  1.5325  0.2508
  128OSM   H17G13804   1.172   1.796   8.083 -1.1116 -0.2491  0.7187
  128OSM   C18F13805   1.187   1.932   8.247  0.6520  0.1209 -0.4090
  128OSM   H18F13806   1.186   2.041   8.268  0.2191  0.0592 -0.0869
  128OSM   H18G13807   1.291   1.904   8.273  0.8929  2.9364  2.2896
  128OSM   H18H13808   1.111   1.884   8.312 -0.2944  2.5650  0.4105
  129OSM      N13809   5.328   4.760   6.403  0.2589 -0.5851 -0.2228
  129OSM    C1513810   5.209   4.824   6.455  0.2023  0.5755  0.1402
  129OSM   H15A13811   5.193   4.921   6.411 -0.5677 -0.6472 -2.4928
  129OSM   H15B13812   5.226   4.839   6.561  0.4515 -1.0655  0.3673
  129OSM   H15C13813   5.121   4.763   6.442  0.0677  0.5150  1.2420
  129OSM    C1413814   5.450   4.841   6.432 -0.6599 -0.1926  0.8538
  129OSM   H14A13815   5.473   4.847   6.537  0.5449  0.4326  0.5744
  129OSM   H14B13816   5.439   4.945   6.406 -0.0564 -0.5394 -0.9656
  129OSM   H14C13817   5.541   4.817   6.378 -2.0439 -1.0870 -1.2261
  129OSM    C1313818   5.351   4.635   6.475  1.1032 -0.6930  0.4792
  129OSM   H13A13819   5.342   4.645   6.582 -1.4239 -1.0052  0.3669
  129OSM   H13B13820   5.450   4.593   6.467  2.7991  2.4380  2.6220
  129OSM   H13C13821   5.276   4.564   6.445 -0.1499  0.9884 -0.5776
  129OSM    C1213822   5.323   4.729   6.257  0.4731 -0.1551  0.3310
  129OSM   H12A13823   5.421   4.727   6.212  1.6103  0.1685  2.6617
  129OSM   H12B13824   5.277   4.811   6.204  0.7504 -1.3424 -1.8705
  129OSM    C1113825   5.240   4.602   6.203 -0.7513  0.9883 -0.4990
  129OSM   H11A13826   5.281   4.507   6.242  1.2377  0.9389 -2.5235
  129OSM   H11B13827   5.247   4.598   6.092 -1.0502  0.2146 -0.4912
  129OSM      P13828   4.996   4.709   6.196  0.0390  0.6166 -0.0972
  129OSM    O1313829   5.062   4.834   6.160  0.0550  0.1970  0.3060
  129OSM    O1413830   4.916   4.650   6.091 -0.3643  0.7051  0.2243
  129OSM    O1113831   4.910   4.729   6.324 -0.6893 -0.3849  0.6107
  129OSM    O1213832   5.104   4.606   6.238 -0.4030  0.2405  0.2312
  129OSM    C1S13833   4.886   4.613   6.405 -0.4567  0.4392  0.3333
  129OSM    H1S13834   4.980   4.579   6.454 -0.0959  1.0141  0.0440
  129OSM    H1T13835   4.843   4.527   6.349 -1.9270  1.1473  0.3435
  129OSM     NF13836   4.809   4.522   6.608  0.2595 -0.0077 -0.2348
  129OSM    HNF13837   4.734   4.457   6.610  0.7755 -0.6594 -1.1967
  129OSM    C2S13838   4.787   4.636   6.525 -0.5666  0.0124  0.4918
  129OSM    H2S13839   4.827   4.726   6.575  2.0245 -1.2617  0.8840
  129OSM    C3S13840   4.645   4.664   6.482 -0.8035 -0.8928  0.2373
  129OSM    H3S13841   4.592   4.574   6.445 -2.0110  0.3885 -1.2751
  129OSM     O313842   4.642   4.765   6.378  0.2457 -0.1275 -0.4471
  129OSM    HO313843   4.734   4.756   6.353  0.2574 -2.2247  0.1322
  129OSM    C4S13844   4.565   4.713   6.599  0.1770  0.3630 -0.1359
  129OSM    H4S13845   4.621   4.777   6.669  0.7395  0.4346 -0.6433
  129OSM    C5S13846   4.433   4.697   6.617  0.0768  0.3957 -0.2003
  129OSM    H5S13847   4.372   4.654   6.537  0.6887 -1.1077  0.1029
  129OSM    C6S13848   4.351   4.755   6.731 -0.2206  0.2027 -0.4613
  129OSM    H6S13849   4.265   4.688   6.751  1.7410 -1.8348  1.8985
  129OSM    H6T13850   4.318   4.855   6.696 -0.9030  0.4979  0.9536
  129OSM    C7S13851   4.430   4.771   6.861 -0.1421 -0.0689  0.2732
  129OSM    H7S13852   4.527   4.824   6.847  0.6363 -1.4085  0.4179
  129OSM    H7T13853   4.463   4.678   6.911  1.0745  0.2168  0.0568
  129OSM    C8S13854   4.353   4.847   6.971 -0.3907  0.3298 -0.0997
  129OSM    H8S13855   4.255   4.796   6.977  1.7706 -4.1815  0.4849
  129OSM    H8T13856   4.346   4.949   6.927  2.8367 -0.1584 -2.1492
  129OSM    C9S13857   4.430   4.846   7.098  0.5628  0.0651 -0.4465
  129OSM    H9S13858   4.518   4.911   7.077  0.3689  0.5445  0.2002
  129OSM    H9T13859   4.470   4.747   7.126 -0.2821 -0.3122 -0.5430
  129OSM   C10S13860   4.359   4.912   7.218 -0.6744 -0.5083 -0.2168
  129OSM   H10S13861   4.279   4.841   7.248 -0.6339 -0.8105 -0.8127
  129OSM   H10T13862   4.313   5.006   7.181  1.2766  2.0627  3.3522
  129OSM   C11S13863   4.459   4.938   7.322 -0.0160 -0.0465  0.0448
  129OSM   H11S13864   4.527   5.023   7.298 -0.3768  0.7955  1.8510
  129OSM   H11T13865   4.519   4.848   7.346 -1.6129 -0.5509  2.3981
  129OSM   C12S13866   4.392   4.982   7.454  0.3286  1.0465 -0.3975
  129OSM   H12S13867   4.326   4.897   7.480  1.4379  0.3666  0.2836
  129OSM   H12T13868   4.329   5.073   7.440 -0.0282  1.4658  3.0635
  129OSM   C13S13869   4.490   5.005   7.560 -0.2928 -0.4186 -0.0081
  129OSM   H13S13870   4.559   5.089   7.534  1.9520 -1.4490  2.2400
  129OSM   H13T13871   4.565   4.924   7.558  1.8191  1.3344  2.3953
  129OSM   C14S13872   4.426   5.021   7.702 -0.2698  0.2415 -0.1253
  129OSM   H14S13873   4.397   4.922   7.742 -0.7504  1.0059  1.5211
  129OSM   H14T13874   4.333   5.080   7.690  0.1792  0.7756 -1.1570
  129OSM   C15S13875   4.518   5.080   7.807 -0.0800 -0.0731 -0.7048
  129OSM   H15S13876   4.523   5.187   7.778 -0.5977  0.1234 -0.1036
  129OSM   H15T13877   4.627   5.060   7.807  0.2744  1.3510  2.1546
  129OSM   C16S13878   4.470   5.083   7.948  0.0765 -0.2133  0.1167
  129OSM   H16S13879   4.483   4.978   7.982  2.0049 -0.0418 -0.0170
  129OSM   H16T13880   4.365   5.119   7.955 -0.1859 -0.8032 -0.7430
  129OSM   C17S13881   4.555   5.172   8.039  0.7108  0.2595 -0.3364
  129OSM   H17S13882   4.555   5.276   8.001  0.5095  0.0265 -0.9916
  129OSM   H17T13883   4.659   5.135   8.046  0.8405  0.8603  1.3453
  129OSM   C18S13884   4.490   5.170   8.177  0.1727 -0.5251 -0.2331
  129OSM   H18S13885   4.465   5.065   8.203  1.7785 -0.7550  0.5049
  129OSM   H18T13886   4.400   5.235   8.179 -0.2280 -1.0541 -0.8581
  129OSM   H18U13887   4.558   5.215   8.253 -2.0608  1.8474  0.4903
  129OSM    C1F13888   4.923   4.495   6.675  0.4670  0.3866 -0.4493
  129OSM     OF13889   5.011   4.581   6.691 -0.4233 -0.4196  0.3360
  129OSM    C2F13890   4.938   4.354   6.726  0.1365 -0.7808 -0.2687
  129OSM    H2F13891   5.043   4.320   6.723  0.0336 -1.0805 -0.5565
  129OSM    H2G13892   4.860   4.291   6.678 -1.4014  0.3172  0.6516
  129OSM    C3F13893   4.908   4.346   6.871 -0.5958  0.3100 -0.2897
  129OSM    H3F13894   4.912   4.238   6.896 -2.4361  0.0935 -0.7870
  129OSM    H3G13895   4.804   4.381   6.890 -0.3376  1.8041 -1.4341
  129OSM    C4F13896   4.999   4.425   6.959 -0.0685 -0.0235 -0.2840
  129OSM    H4F13897   4.955   4.526   6.971  0.7469  0.4167 -0.8831
  129OSM    H4G13898   5.093   4.459   6.911 -0.1005  1.3919  0.6014
  129OSM    C5F13899   5.037   4.354   7.087  0.6576  0.3569 -0.7553
  129OSM    H5F13900   5.131   4.296   7.072  1.2616  1.0611  0.1658
  129OSM    H5G13901   4.953   4.288   7.116  2.8793 -2.2312  0.2570
  129OSM    C6F13902   5.054   4.451   7.206 -0.2473 -0.6297 -0.0082
  129OSM    H6F13903   4.957   4.499   7.227 -1.2073 -2.1758 -0.6708
  129OSM    H6G13904   5.125   4.528   7.168  0.8546 -1.3481  0.5278
  129OSM    C7F13905   5.104   4.392   7.339  1.0967  0.2987  0.0625
  129OSM    H7F13906   5.120   4.477   7.409  1.9831  0.1639  0.0450
  129OSM    H7G13907   5.204   4.345   7.324  1.6810  1.8784 -1.3983
  129OSM    C8F13908   5.017   4.282   7.408  0.2345 -0.6270  0.1692
  129OSM    H8F13909   4.987   4.205   7.334  2.0093 -0.2181 -1.0399
  129OSM    H8G13910   4.923   4.331   7.440 -0.3037 -1.1127 -0.6421
  129OSM    C9F13911   5.078   4.220   7.533  0.0931 -0.1836 -0.1410
  129OSM    H9F13912   5.157   4.145   7.516 -0.0486 -0.8890  2.0381
  129OSM   C10F13913   5.046   4.239   7.661  0.1822  0.1667 -0.0295
  129OSM   H10F13914   5.100   4.180   7.737 -0.3415  1.5899  1.5205
  129OSM   C11F13915   4.934   4.323   7.722  0.5766  0.2194 -0.2477
  129OSM   H11F13916   4.845   4.302   7.660  1.6712 -0.1404 -1.7667
  129OSM   H11G13917   4.971   4.428   7.726 -2.6545  1.4118  1.2179
  129OSM   C12F13918   4.892   4.268   7.860 -0.7105 -0.5326  0.2170
  129OSM   H12F13919   4.857   4.164   7.843  1.2178 -1.1014 -0.5438
  129OSM   H12G13920   4.809   4.333   7.896  1.3866  0.5122  3.6140
  129OSM   C13F13921   5.005   4.254   7.968  0.6710 -0.0141 -0.4635
  129OSM   H13F13922   5.084   4.181   7.939  0.1394 -0.4934 -0.7285
  129OSM   H13G13923   4.946   4.221   8.056 -1.3164  1.1670 -1.3017
  129OSM   C14F13924   5.078   4.376   8.003  0.3105  0.0284  0.6382
  129OSM   H14F13925   5.003   4.458   8.003  2.0492  1.6801  0.2003
  129OSM   H14G13926   5.151   4.402   7.923 -0.8494  0.0333 -0.4420
  129OSM   C15F13927   5.133   4.369   8.144  0.2167 -0.1001 -0.4184
  129OSM   H15F13928   5.203   4.283   8.147  0.1045 -0.1698  0.5323
  129OSM   H15G13929   5.048   4.359   8.215 -0.6220  0.1947 -1.3599
  129OSM   C16F13930   5.211   4.498   8.168 -0.4270  0.0986 -0.3212
  129OSM   H16F13931   5.155   4.592   8.148  0.4905  0.9710  1.0009
  129OSM   H16G13932   5.295   4.503   8.096 -1.1434 -0.2276 -1.1917
  129OSM   C17F13933   5.267   4.501   8.309 -0.0846 -0.2876 -0.5880
  129OSM   H17F13934   5.331   4.415   8.339  1.7685  0.7290 -1.5049
  129OSM   H17G13935   5.183   4.499   8.382 -0.8670 -0.4819 -1.4766
  129OSM   C18F13936   5.367   4.618   8.322  0.1037  0.2548 -0.2233
  129OSM   H18F13937   5.388   4.627   8.431  0.7805 -1.3835 -0.1880
  129OSM   H18G13938   5.330   4.712   8.276  0.9830  1.7730  1.9912
  129OSM   H18H13939   5.465   4.591   8.277  0.7983 -0.1649  1.4575
  130OSM      N13940   2.158   6.465   5.980  0.2720 -0.0711  0.7938
  130OSM    C1513941   2.107   6.382   6.100 -0.7965  0.9329 -0.1648
  130OSM   H15A13942   2.183   6.336   6.161 -1.6120 -1.1151 -0.6087
  130OSM   H15B13943   2.038   6.310   6.057  0.1528  0.2493 -0.5628
  130OSM   H15C13944   2.045   6.438   6.169 -0.9521 -0.2316  0.6785
  130OSM    C1413945   2.251   6.373   5.904 -0.4231  0.8491  0.0632
  130OSM   H14A13946   2.322   6.328   5.972 -0.3271 -1.0254 -1.1956
  130OSM   H14B13947   2.310   6.418   5.826  0.9557 -1.1708 -0.1338
  130OSM   H14C13948   2.193   6.294   5.859  0.4718 -0.4604  1.1433
  130OSM    C1313949   2.050   6.514   5.895 -0.3572 -1.0852  0.1340
  130OSM   H13A13950   1.978   6.575   5.948  0.2788 -1.0496  0.9661
  130OSM   H13B13951   1.996   6.446   5.830 -0.5658  1.6509 -2.8104
  130OSM   H13C13952   2.098   6.585   5.829 -0.8433  0.2872  1.2106
  130OSM    C1213953   2.237   6.574   6.054 -0.1806 -0.9329  0.4645
  130OSM   H12A13954   2.275   6.644   5.981 -1.9874  0.1272  0.4732
  130OSM   H12B13955   2.322   6.533   6.105 -0.1030  1.8566  2.8502
  130OSM    C1113956   2.167   6.671   6.155  0.0328  0.8432  0.7657
  130OSM   H11A13957   2.227   6.751   6.203 -0.5714  0.4438  2.2514
  130OSM   H11B13958   2.132   6.604   6.237 -0.8263  1.7121  1.1299
  130OSM      P13959   1.914   6.730   6.174 -0.2382  0.0791  0.0783
  130OSM    O1313960   1.831   6.838   6.122 -0.3477  0.1451 -0.1913
  130OSM    O1413961   1.861   6.595   6.170 -0.3286 -0.3405  0.1853
  130OSM    O1113962   1.948   6.754   6.327  0.2442 -0.8126  0.3207
  130OSM    O1213963   2.055   6.737   6.099  0.6928  0.8809 -0.4366
  130OSM    C1S13964   2.012   6.870   6.387  0.9722 -0.4561 -0.1891
  130OSM    H1S13965   1.992   6.959   6.324 -1.0195 -1.1554 -0.6187
  130OSM    H1T13966   2.122   6.860   6.388  0.9520 -0.9734 -1.3569
  130OSM     NF13967   1.975   7.036   6.580 -0.2655 -0.4896 -0.4249
  130OSM    HNF13968   2.041   7.047   6.654  0.8421 -0.3466 -1.3969
  130OSM    C2S13969   1.958   6.897   6.533 -0.2933  0.1449 -0.0345
  130OSM    H2S13970   1.848   6.885   6.527 -1.0831  2.9989  4.0527
  130OSM    C3S13971   2.014   6.790   6.633 -0.2876 -0.1081 -0.0111
  130OSM    H3S13972   2.124   6.800   6.633 -0.0418 -2.2643 -1.3629
  130OSM     O313973   1.975   6.659   6.587  0.3822 -0.3249  0.1717
  130OSM    HO313974   1.963   6.657   6.492 -0.7968 -0.0468  0.2987
  130OSM    C4S13975   1.954   6.811   6.770 -0.6333  0.3025  0.1489
  130OSM    H4S13976   1.856   6.763   6.784 -0.2970 -0.6532 -0.5997
  130OSM    C5S13977   2.020   6.857   6.876 -0.6160 -0.2887  0.5149
  130OSM    H5S13978   2.123   6.895   6.862 -1.7207  1.6562 -4.6910
  130OSM    C6S13979   1.958   6.880   7.014  0.0742 -0.1738 -0.7221
  130OSM    H6S13980   1.867   6.818   7.026  1.0894 -1.2822  2.2504
  130OSM    H6T13981   1.933   6.987   7.032  1.1504 -0.1868  1.1684
  130OSM    C7S13982   2.043   6.839   7.133  0.5755  0.1353  0.4067
  130OSM    H7S13983   2.129   6.909   7.137  1.5378 -1.0760  1.6395
  130OSM    H7T13984   2.078   6.734   7.125 -0.2541 -0.0202 -2.3290
  130OSM    C8S13985   1.973   6.861   7.263 -0.7266 -0.2305  0.5847
  130OSM    H8S13986   1.886   6.793   7.275 -0.6054 -0.3540  0.7682
  130OSM    H8T13987   1.922   6.960   7.267 -1.6588 -0.4385 -2.8958
  130OSM    C9S13988   2.073   6.839   7.381 -0.2729  0.3152 -0.5216
  130OSM    H9S13989   2.159   6.909   7.375 -0.2926  0.2802 -1.2396
  130OSM    H9T13990   2.116   6.736   7.382 -1.2610 -0.2667  3.9898
  130OSM   C10S13991   2.005   6.853   7.515 -0.1929 -0.1266 -0.5980
  130OSM   H10S13992   1.922   6.779   7.517 -0.2781 -0.0194  0.2501
  130OSM   H10T13993   1.955   6.951   7.522 -0.0315 -0.0593 -0.3869
  130OSM   C11S13994   2.109   6.831   7.625  0.9678 -0.5503 -0.2638
  130OSM   H11S13995   2.179   6.916   7.607 -0.8133  0.5136 -2.6429
  130OSM   H11T13996   2.155   6.730   7.629 -0.2169 -1.0673  1.3203
  130OSM   C12S13997   2.061   6.850   7.774 -0.4885  0.1865  0.9781
  130OSM   H12S13998   2.145   6.819   7.839  0.6507  0.8508 -0.1409
  130OSM   H12T13999   1.989   6.768   7.795 -1.5096  1.1473  1.3342
  130OSM   C13S14000   1.978   6.978   7.804 -0.5523  0.0415  0.3254
  130OSM   H13S14001   1.880   6.961   7.755  0.5378 -2.8256 -1.1141
  130OSM   H13T14002   2.030   7.056   7.745 -0.5379  2.1915  2.9653
  130OSM   C14S14003   1.971   7.015   7.952 -0.4722 -0.0333 -0.5450
  130OSM   H14S14004   1.917   7.112   7.959  1.5834  1.0651  2.0900
  130OSM   H14T14005   2.072   7.032   7.994 -0.8317  0.8300 -0.0049
  130OSM   C15S14006   1.898   6.907   8.035  0.3815 -0.4046  0.5149
  130OSM   H15S14007   1.951   6.813   8.008  1.4449  0.0162  1.0667
  130OSM   H15T14008   1.789   6.903   8.014  0.2657  1.8185  0.4557
  130OSM   C16S14009   1.923   6.916   8.192 -0.0662 -0.1447  0.4043
  130OSM   H16S14010   1.863   6.996   8.242 -1.0624 -0.8695  0.3888
  130OSM   H16T14011   2.029   6.945   8.210 -0.6776  0.8584  2.7984
  130OSM   C17S14012   1.897   6.788   8.259  0.4026 -0.4909  0.0191
  130OSM   H17S14013   1.912   6.819   8.365 -0.0567 -1.7057  0.4566
  130OSM   H17T14014   1.973   6.710   8.240  3.9218  2.5195  0.4559
  130OSM   C18S14015   1.756   6.728   8.242  0.2631  0.3436  0.5407
  130OSM   H18S14016   1.676   6.802   8.263 -0.7581  0.1793 -2.3487
  130OSM   H18T14017   1.740   6.642   8.310  1.5252  0.1850  0.6760
  130OSM   H18U14018   1.736   6.695   8.139 -0.7755  1.9970  0.1697
  130OSM    C1F14019   1.922   7.146   6.528  0.2185 -0.0283  0.3962
  130OSM     OF14020   1.831   7.141   6.448 -0.4159 -0.0853  1.4435
  130OSM    C2F14021   1.988   7.274   6.565  0.3552  0.3863 -0.0089
  130OSM    H2F14022   2.002   7.342   6.478  1.4840 -0.7051 -0.7275
  130OSM    H2G14023   2.094   7.248   6.589  0.3405 -1.0725 -1.3424
  130OSM    C3F14024   1.923   7.350   6.675  0.4674 -0.2298 -1.3633
  130OSM    H3F14025   1.814   7.331   6.677  0.5518 -0.6735 -0.0912
  130OSM    H3G14026   1.940   7.459   6.662  2.9218 -0.7009 -2.7905
  130OSM    C4F14027   1.969   7.308   6.818 -0.0847  0.1063 -0.0074
  130OSM    H4F14028   2.077   7.333   6.832  0.1404 -1.6074  1.7529
  130OSM    H4G14029   1.960   7.198   6.835 -1.5698 -0.3453 -2.9358
  130OSM    C5F14030   1.899   7.384   6.936 -0.1977 -0.3559  0.3766
  130OSM    H5F14031   1.792   7.373   6.909 -0.0294  0.4515 -0.6640
  130OSM    H5G14032   1.907   7.494   6.925 -2.4710 -0.1028  0.6515
  130OSM    C6F14033   1.936   7.349   7.079  0.3216 -0.5518 -0.0068
  130OSM    H6F14034   2.040   7.375   7.111 -0.0944 -0.5325  1.3619
  130OSM    H6G14035   1.927   7.239   7.086 -1.0317 -0.5939 -1.7435
  130OSM    C7F14036   1.836   7.399   7.182 -0.0674 -0.4616  0.1392
  130OSM    H7F14037   1.730   7.402   7.150 -1.0281 -0.9083  3.0171
  130OSM    H7G14038   1.858   7.507   7.196  3.3831 -0.8806 -1.0998
  130OSM    C8F14039   1.853   7.335   7.320  0.1772 -0.2804  0.1888
  130OSM    H8F14040   1.828   7.227   7.307  1.3036 -0.5522  0.1934
  130OSM    H8G14041   1.761   7.375   7.368  0.9161 -2.2817  3.6265
  130OSM    C9F14042   1.978   7.365   7.398  0.0595  0.0940 -0.1558
  130OSM    H9F14043   2.069   7.352   7.337  0.0673 -1.6854  0.1868
  130OSM   C10F14044   1.974   7.420   7.525 -0.5139  0.1215 -0.3113
  130OSM   H10F14045   2.072   7.438   7.573  0.4401 -0.1495 -2.0516
  130OSM   C11F14046   1.854   7.462   7.609 -0.0853 -0.1303  0.4832
  130OSM   H11F14047   1.756   7.443   7.561 -0.1661  1.7388 -0.2015
  130OSM   H11G14048   1.849   7.569   7.639  0.6690  0.0838 -0.1079
  130OSM   C12F14049   1.855   7.370   7.733  0.4423 -0.6689 -0.0612
  130OSM   H12F14050   1.941   7.381   7.802  0.1658  1.7524  0.0000
  130OSM   H12G14051   1.853   7.263   7.703 -2.6963 -1.7236  3.1244
  130OSM   C13F14052   1.726   7.396   7.815 -0.4500  0.4722 -0.5374
  130OSM   H13F14053   1.645   7.383   7.739 -0.4300 -3.2938 -0.1099
  130OSM   H13G14054   1.721   7.497   7.860 -0.2727  0.6209 -0.8474
  130OSM   C14F14055   1.693   7.301   7.931  0.4143  0.6045 -0.1306
  130OSM   H14F14056   1.716   7.195   7.906  0.6673  0.5336  0.4068
  130OSM   H14G14057   1.586   7.316   7.957  0.0514  0.5343 -1.5119
  130OSM   C15F14058   1.764   7.330   8.065  0.2004 -0.0536 -0.4367
  130OSM   H15F14059   1.767   7.441   8.066 -0.2464 -0.0387 -0.0718
  130OSM   H15G14060   1.867   7.289   8.052 -0.3062 -1.8868  0.8986
  130OSM   C16F14061   1.694   7.290   8.203 -0.7356 -0.4820 -0.0339
  130OSM   H16F14062   1.683   7.180   8.188  1.6275 -0.8839  0.7366
  130OSM   H16G14063   1.592   7.332   8.215  0.2972  2.0151  0.7737
  130OSM   C17F14064   1.774   7.321   8.336  0.9854 -0.6477  0.9731
  130OSM   H17F14065   1.784   7.431   8.345  2.6672 -0.6370 -0.5146
  130OSM   H17G14066   1.875   7.276   8.327  1.8978  1.4820 -0.1742
  130OSM   C18F14067   1.700   7.273   8.465 -0.1242 -0.4700  0.6640
  130OSM   H18F14068   1.603   7.325   8.479 -0.3213  0.1939 -2.4448
  130OSM   H18G14069   1.763   7.314   8.547  1.4740 -0.8135 -0.3423
  130OSM   H18H14070   1.690   7.162   8.471  1.1149 -0.7260 -1.1569
  131OSM      N14071   0.622   1.714   5.508 -0.6062 -0.0768  0.7099
  131OSM    C1514072   0.655   1.841   5.445  0.0876  0.1181 -0.0897
  131OSM   H15A14073   0.761   1.846   5.427 -0.0846  0.0326 -1.2073
  131OSM   H15B14074   0.639   1.928   5.508 -1.6100  2.0404 -2.9174
  131OSM   H15C14075   0.605   1.861   5.351 -0.0390 -2.6870 -0.6836
  131OSM    C1414076   0.658   1.597   5.420 -0.1462 -0.8708  0.0568
  131OSM   H14A14077   0.605   1.593   5.326 -2.4317 -1.9022  1.2917
  131OSM   H14B14078   0.639   1.504   5.471  0.4288 -0.0410  1.8966
  131OSM   H14C14079   0.765   1.605   5.419 -0.1995 -0.0088  0.0095
  131OSM    C1314080   0.689   1.708   5.639  0.2763 -0.1678 -0.6712
  131OSM   H13A14081   0.655   1.620   5.691 -0.7720 -0.6970 -2.1793
  131OSM   H13B14082   0.663   1.793   5.700  1.7073  0.0569 -0.3338
  131OSM   H13C14083   0.796   1.698   5.624  0.5319  0.9115  0.2804
  131OSM    C1214084   0.466   1.715   5.531  0.4415 -0.0553  0.1408
  131OSM   H12A14085   0.422   1.619   5.553 -3.1697  1.5250  0.6059
  131OSM   H12B14086   0.417   1.736   5.437 -0.6030 -0.6764  0.5236
  131OSM    C1114087   0.411   1.813   5.634  0.3867 -0.3649  0.6986
  131OSM   H11A14088   0.302   1.813   5.609  0.5954 -1.7355 -0.3436
  131OSM   H11B14089   0.456   1.913   5.616 -0.0515 -0.4673 -1.1962
  131OSM      P14090   0.353   1.644   5.821 -0.2752 -0.1054 -0.1896
  131OSM    O1314091   0.242   1.698   5.898  0.2559 -0.3268  0.8426
  131OSM    O1414092   0.322   1.553   5.706 -0.4270 -0.3295  0.4373
  131OSM    O1114093   0.451   1.573   5.921 -0.8438  0.0602 -0.5246
  131OSM    O1214094   0.428   1.769   5.768 -0.1113 -0.1455  0.0368
  131OSM    C1S14095   0.533   1.645   6.016  1.2353 -0.5406 -0.1424
  131OSM    H1S14096   0.527   1.756   6.013 -1.7029 -0.6511 -2.1935
  131OSM    H1T14097   0.641   1.624   5.999  1.2272 -0.6976 -0.0124
  131OSM     NF14098   0.564   1.693   6.254  1.1411  0.2983  0.2307
  131OSM    HNF14099   0.646   1.646   6.284  1.5676  0.7626 -0.1951
  131OSM    C2S14100   0.480   1.617   6.157 -1.1961 -0.4078  0.4225
  131OSM    H2S14101   0.378   1.662   6.160 -1.8107 -1.7282  0.0465
  131OSM    C3S14102   0.474   1.463   6.200  0.4013  0.1110 -0.1093
  131OSM    H3S14103   0.582   1.440   6.207  0.9235  1.5066 -2.3185
  131OSM     O314104   0.412   1.381   6.104  0.1565 -0.2590 -0.1853
  131OSM    HO314105   0.413   1.443   6.030 -0.5277  1.0148  0.8198
  131OSM    C4S14106   0.408   1.462   6.342  0.1080 -0.0721 -0.2365
  131OSM    H4S14107   0.484   1.457   6.421  0.7732  0.3466 -0.8354
  131OSM    C5S14108   0.284   1.488   6.370 -0.1903  0.7168  0.1806
  131OSM    H5S14109   0.210   1.516   6.294 -2.3288  1.7074  2.4969
  131OSM    C6S14110   0.230   1.504   6.508  0.3701  0.5449  0.3257
  131OSM    H6S14111   0.127   1.464   6.498 -0.2707  2.3330 -0.6198
  131OSM    H6T14112   0.218   1.610   6.538 -1.6160  0.3281  0.4050
  131OSM    C7S14113   0.302   1.426   6.621  0.3908  0.5423 -0.1806
  131OSM    H7S14114   0.401   1.465   6.651  0.1517 -0.3579  2.0131
  131OSM    H7T14115   0.323   1.321   6.591 -4.4457 -1.4191  2.1228
  131OSM    C8S14116   0.220   1.420   6.756 -0.4623 -1.1041 -1.2491
  131OSM    H8S14117   0.131   1.358   6.733  0.3705 -2.4543 -0.9573
  131OSM    H8T14118   0.196   1.522   6.793  2.6993 -0.7655  0.1918
  131OSM    C9S14119   0.298   1.356   6.870 -0.1130  0.1888 -0.4894
  131OSM    H9S14120   0.399   1.403   6.873  1.6179 -3.2163 -0.4133
  131OSM    H9T14121   0.324   1.250   6.851 -0.6501  0.3844 -2.7049
  131OSM   C10S14122   0.224   1.359   7.002 -1.1028 -0.5417 -0.0944
  131OSM   H10S14123   0.119   1.322   7.006 -1.3250  0.0725 -0.1780
  131OSM   H10T14124   0.230   1.467   7.028 -1.6885 -0.8996  1.6014
  131OSM   C11S14125   0.307   1.283   7.115 -0.5856  0.4821 -0.1899
  131OSM   H11S14126   0.416   1.303   7.104 -0.2747 -0.8505  0.2489
  131OSM   H11T14127   0.301   1.172   7.110  0.8579  0.4111 -1.1601
  131OSM   C12S14128   0.257   1.323   7.250  0.4439 -0.1744  0.1454
  131OSM   H12S14129   0.148   1.302   7.256 -0.0397  0.6532 -3.5176
  131OSM   H12T14130   0.278   1.431   7.266 -0.0377 -0.0325 -0.1589
  131OSM   C13S14131   0.327   1.238   7.362  0.4069 -0.9880 -0.0761
  131OSM   H13S14132   0.434   1.267   7.354 -0.2249  1.3608 -0.6506
  131OSM   H13T14133   0.330   1.130   7.336  2.4746 -0.8251 -0.7121
  131OSM   C14S14134   0.268   1.273   7.496 -0.2308  0.1588  0.1269
  131OSM   H14S14135   0.163   1.237   7.506 -0.1094  0.1841  1.7976
  131OSM   H14T14136   0.258   1.383   7.508 -1.4751  0.0650  0.0959
  131OSM   C15S14137   0.355   1.218   7.611 -0.2400 -0.7090 -0.0815
  131OSM   H15S14138   0.458   1.253   7.588 -0.1493 -0.3281  0.8550
  131OSM   H15T14139   0.360   1.107   7.605 -1.5181 -0.7764 -0.0315
  131OSM   C16S14140   0.314   1.261   7.758  0.4368 -0.3624 -0.4498
  131OSM   H16S14141   0.211   1.224   7.776  0.7394 -0.1213  2.1806
  131OSM   H16T14142   0.307   1.371   7.759  0.2476 -0.3096  3.1538
  131OSM   C17S14143   0.416   1.228   7.869 -0.3836 -1.2659 -0.4468
  131OSM   H17S14144   0.524   1.254   7.856 -0.0766 -2.6332 -0.7467
  131OSM   H17T14145   0.428   1.118   7.879  3.1219 -1.2475 -2.6920
  131OSM   C18S14146   0.380   1.305   7.996  0.8671 -0.1908  0.1001
  131OSM   H18S14147   0.271   1.294   8.017  0.6404 -0.1385 -0.9859
  131OSM   H18T14148   0.404   1.413   7.987 -1.0931  0.3713  1.0754
  131OSM   H18U14149   0.440   1.270   8.082  1.4042  0.4324 -0.0140
  131OSM    C1F14150   0.553   1.828   6.272  0.6627  0.8133  0.3048
  131OSM     OF14151   0.464   1.898   6.222 -0.2605  0.5292  0.0312
  131OSM    C2F14152   0.666   1.883   6.342 -0.3232  0.3674  0.5863
  131OSM    H2F14153   0.692   1.980   6.294 -0.6834 -0.5038 -1.4381
  131OSM    H2G14154   0.759   1.824   6.328 -1.3584 -0.8384 -1.6679
  131OSM    C3F14155   0.639   1.891   6.497  0.3126  0.2908  0.2920
  131OSM    H3F14156   0.575   1.981   6.511  1.2518  0.5816  3.2478
  131OSM    H3G14157   0.733   1.916   6.550  0.8408 -1.1704  0.0804
  131OSM    C4F14158   0.591   1.765   6.567  0.5600 -0.0936 -1.1468
  131OSM    H4F14159   0.666   1.685   6.550 -1.1132 -1.8436 -0.6676
  131OSM    H4G14160   0.487   1.743   6.534  0.0887  0.6355 -0.2073
  131OSM    C5F14161   0.552   1.796   6.719 -0.9017 -0.0920 -0.3985
  131OSM    H5F14162   0.493   1.889   6.733  1.3481  1.4636 -0.7858
  131OSM    H5G14163   0.648   1.815   6.771 -2.0753  3.1169  0.8482
  131OSM    C6F14164   0.478   1.679   6.794  0.2854 -0.3467  0.2261
  131OSM    H6F14165   0.542   1.591   6.819  0.9004  0.0300 -0.0105
  131OSM    H6G14166   0.401   1.657   6.717  1.2951  1.1252 -1.2947
  131OSM    C7F14167   0.407   1.731   6.925 -0.2426  0.0113  0.0744
  131OSM    H7F14168   0.317   1.673   6.953 -0.3966  1.0322  1.8236
  131OSM    H7G14169   0.372   1.832   6.892 -1.7310 -1.7031 -4.2728
  131OSM    C8F14170   0.503   1.734   7.046  0.2713 -0.2708  0.6388
  131OSM    H8F14171   0.465   1.811   7.116  0.0961 -1.4593  1.8970
  131OSM    H8G14172   0.594   1.773   6.995  0.6336 -0.3000  1.2576
  131OSM    C9F14173   0.529   1.606   7.119 -0.4448  0.6638  0.2351
  131OSM    H9F14174   0.521   1.517   7.054 -0.8404  1.0272 -0.2145
  131OSM   C10F14175   0.540   1.584   7.256  0.0943  0.0340  0.3000
  131OSM   H10F14176   0.558   1.479   7.283 -0.9441 -0.1110  0.4503
  131OSM   C11F14177   0.545   1.690   7.360  0.0753  0.2402  0.5893
  131OSM   H11F14178   0.513   1.790   7.322 -0.8415  0.2879  1.4471
  131OSM   H11G14179   0.650   1.695   7.395  0.6280  0.6505 -1.0483
  131OSM   C12F14180   0.460   1.646   7.482 -0.2449  0.7948  0.4648
  131OSM   H12F14181   0.502   1.549   7.517  2.8582  1.7646 -0.2719
  131OSM   H12G14182   0.356   1.610   7.463  0.8581 -2.9826  0.6051
  131OSM   C13F14183   0.469   1.740   7.595 -0.2574  0.7961  0.3737
  131OSM   H13F14184   0.425   1.836   7.559  0.7980 -0.1281 -3.9011
  131OSM   H13G14185   0.575   1.759   7.620 -0.2436 -0.5351  1.4590
  131OSM   C14F14186   0.395   1.710   7.727  0.1217  0.4692 -0.6099
  131OSM   H14F14187   0.422   1.607   7.757  0.5392  0.1673 -1.9593
  131OSM   H14G14188   0.287   1.692   7.705  0.4908 -0.9630 -1.3630
  131OSM   C15F14189   0.416   1.816   7.829  0.0778 -0.1009  0.3840
  131OSM   H15F14190   0.340   1.894   7.809 -0.6929 -0.9188  0.0233
  131OSM   H15G14191   0.514   1.864   7.812  0.1298  0.0626  1.1142
  131OSM   C16F14192   0.418   1.764   7.969 -0.0357  0.3315  0.0612
  131OSM   H16F14193   0.441   1.852   8.033  0.1343 -1.4676  2.6562
  131OSM   H16G14194   0.514   1.707   7.971  2.0250  3.5553  0.6697
  131OSM   C17F14195   0.284   1.694   8.020 -0.5797 -0.3349 -0.1889
  131OSM   H17F14196   0.257   1.603   7.962 -0.9997  0.7149 -1.7048
  131OSM   H17G14197   0.216   1.777   7.994  1.0207  0.9853 -0.3390
  131OSM   C18F14198   0.291   1.681   8.171  0.4337 -0.2977 -0.7517
  131OSM   H18F14199   0.200   1.647   8.224  0.9137  0.0844  0.3561
  131OSM   H18G14200   0.307   1.784   8.209  1.7910  0.0601 -2.1744
  131OSM   H18H14201   0.378   1.618   8.202  1.5304 -0.2129 -3.3546
  132OSM      N14202   0.460   5.351   6.255  0.2388  0.3697 -0.2881
  132OSM    C1514203   0.317   5.340   6.248 -0.0379  0.2982  0.1664
  132OSM   H15A14204   0.284   5.346   6.350  0.8619  2.7469  0.3625
  132OSM   H15B14205   0.273   5.250   6.207  0.7168 -0.5697  1.2213
  132OSM   H15C14206   0.269   5.422   6.195  0.4310 -0.0431 -0.8116
  132OSM    C1414207   0.507   5.356   6.116  0.5255  0.5478  0.5242
  132OSM   H14A14208   0.458   5.439   6.066 -2.2909  0.1349  2.3757
  132OSM   H14B14209   0.470   5.270   6.063  1.2937  0.7048 -0.3186
  132OSM   H14C14210   0.615   5.360   6.105  0.2436  1.2538 -3.6309
  132OSM    C1314211   0.492   5.470   6.337  0.2237 -0.5157  0.5526
  132OSM   H13A14212   0.447   5.460   6.435 -0.5681 -1.1016  0.1387
  132OSM   H13B14213   0.454   5.556   6.284 -0.8181 -1.3323 -0.0677
  132OSM   H13C14214   0.597   5.475   6.362  0.7559  0.5256 -1.6648
  132OSM    C1214215   0.511   5.221   6.320  0.3807 -0.5693 -0.2057
  132OSM   H12A14216   0.478   5.134   6.263  0.3575 -1.6444  1.3947
  132OSM   H12B14217   0.462   5.219   6.416  0.5061  1.3738 -0.0638
  132OSM    C1114218   0.669   5.204   6.330  0.2554 -0.4113  0.0609
  132OSM   H11A14219   0.714   5.160   6.237  1.2878  0.6725  0.0256
  132OSM   H11B14220   0.683   5.129   6.411 -0.0158  0.9908  1.4373
  132OSM      P14221   0.873   5.372   6.295  0.3468 -0.3063  0.1825
  132OSM    O1314222   0.986   5.283   6.309 -0.4995  0.3694 -0.0448
  132OSM    O1414223   0.836   5.409   6.152 -0.1684  0.0181 -0.2142
  132OSM    O1114224   0.897   5.513   6.361  0.0209 -0.1769  0.7098
  132OSM    O1214225   0.740   5.320   6.368 -0.2680 -0.3399  0.3167
  132OSM    C1S14226   0.922   5.540   6.495 -0.0352  0.5797 -0.1304
  132OSM    H1S14227   0.907   5.444   6.548 -0.9263 -0.6634 -2.4935
  132OSM    H1T14228   0.844   5.611   6.528 -0.7845  0.2084 -1.0838
  132OSM     NF14229   1.096   5.568   6.675  0.4869 -0.1237 -0.2541
  132OSM    HNF14230   1.066   5.641   6.736  0.5283 -0.1962 -0.1443
  132OSM    C2S14231   1.067   5.587   6.535  0.1305  0.2902  0.3492
  132OSM    H2S14232   1.138   5.522   6.480 -1.6742 -0.3459 -1.3737
  132OSM    C3S14233   1.095   5.730   6.478  0.1399  0.1111  0.4536
  132OSM    H3S14234   1.015   5.800   6.508 -1.4776  0.6494 -4.2937
  132OSM     O314235   1.071   5.729   6.338 -0.1433  0.3800 -0.2875
  132OSM    HO314236   1.020   5.649   6.330  2.2533 -1.4339  1.1642
  132OSM    C4S14237   1.239   5.771   6.502 -0.0158 -0.4696  0.2922
  132OSM    H4S14238   1.308   5.699   6.456  1.1599  0.2921  0.8077
  132OSM    C5S14239   1.287   5.885   6.562 -0.3665  0.4612 -0.5366
  132OSM    H5S14240   1.228   5.963   6.612  0.6196 -0.3870  2.1291
  132OSM    C6S14241   1.433   5.924   6.566 -0.0291 -0.1353 -0.1589
  132OSM    H6S14242   1.426   6.003   6.488  1.0478 -2.0145 -2.2739
  132OSM    H6T14243   1.502   5.845   6.529  0.6953  0.6489 -0.5214
  132OSM    C7S14244   1.481   5.987   6.700 -0.4013  0.3878 -0.4329
  132OSM    H7S14245   1.578   6.039   6.685  0.3752 -1.0715 -0.6062
  132OSM    H7T14246   1.498   5.904   6.772 -0.6803 -2.5810 -3.5770
  132OSM    C8S14247   1.400   6.085   6.787  0.7161 -0.4625  0.4585
  132OSM    H8S14248   1.298   6.043   6.796 -1.1136  3.4297 -0.1671
  132OSM    H8T14249   1.373   6.180   6.736 -1.6028  0.7363  3.6054
  132OSM    C9S14250   1.472   6.105   6.920  0.1767  0.2734  0.5406
  132OSM    H9S14251   1.570   6.156   6.912  1.2331 -1.9083 -3.2482
  132OSM    H9T14252   1.494   6.007   6.968 -2.8756 -0.0043  1.5915
  132OSM   C10S14253   1.393   6.202   7.006  0.0463  0.0062  0.2124
  132OSM   H10S14254   1.287   6.168   7.000 -0.2110  0.9535 -1.4001
  132OSM   H10T14255   1.391   6.305   6.964  0.1116  1.4766  3.4864
  132OSM   C11S14256   1.448   6.197   7.145 -0.4009  0.0387  0.2469
  132OSM   H11S14257   1.553   6.231   7.138 -0.1404 -1.1434 -2.4968
  132OSM   H11T14258   1.432   6.103   7.202 -2.1329 -0.1131 -0.4134
  132OSM   C12S14259   1.378   6.307   7.233 -0.3136 -0.2695 -0.1764
  132OSM   H12S14260   1.270   6.285   7.231 -0.3058 -0.3094 -1.5801
  132OSM   H12T14261   1.389   6.406   7.183  1.9491 -0.3844 -0.0193
  132OSM   C13S14262   1.440   6.309   7.368 -0.2520 -0.2788 -0.6323
  132OSM   H13S14263   1.444   6.414   7.404  0.1202 -1.1199  2.0183
  132OSM   H13T14264   1.546   6.280   7.358  0.1584  0.6781  0.6658
  132OSM   C14S14265   1.364   6.228   7.478  0.3034  0.5876 -0.4825
  132OSM   H14S14266   1.331   6.128   7.443  1.6237  0.4559 -1.4094
  132OSM   H14T14267   1.271   6.274   7.519  0.7976  1.0190  0.1809
  132OSM   C15S14268   1.454   6.203   7.596 -0.5578  0.0096  0.3293
  132OSM   H15S14269   1.498   6.303   7.615  0.2159 -0.1710 -0.4158
  132OSM   H15T14270   1.542   6.141   7.571 -0.2940  0.3940  0.3029
  132OSM   C16S14271   1.377   6.148   7.724  0.2946 -0.4738  0.6136
  132OSM   H16S14272   1.336   6.048   7.701 -1.9666  0.0269  2.1478
  132OSM   H16T14273   1.291   6.217   7.739 -1.7853 -2.5950 -0.8619
  132OSM   C17S14274   1.454   6.150   7.854  0.1385  0.1352 -0.3041
  132OSM   H17S14275   1.505   6.247   7.869  0.4281 -0.2167  1.1049
  132OSM   H17T14276   1.531   6.070   7.855 -0.9022 -0.9548 -1.9859
  132OSM   C18S14277   1.362   6.107   7.969 -0.3961  0.0679 -0.3479
  132OSM   H18S14278   1.426   6.115   8.060  1.6962 -0.3256 -1.7258
  132OSM   H18T14279   1.339   5.999   7.962 -1.4375  0.2870 -0.4787
  132OSM   H18U14280   1.266   6.164   7.973 -0.9782 -0.9225  2.2028
  132OSM    C1F14281   1.121   5.445   6.727  0.3872  0.3212  0.4007
  132OSM     OF14282   1.151   5.354   6.650  0.4294  0.4882  0.0923
  132OSM    C2F14283   1.120   5.429   6.880  0.5598 -0.2071  0.5650
  132OSM    H2F14284   1.021   5.470   6.908  1.1034  2.1850 -0.7534
  132OSM    H2G14285   1.208   5.482   6.922 -0.0148  1.2515 -0.0193
  132OSM    C3F14286   1.128   5.280   6.930  0.1323 -0.1406  0.2499
  132OSM    H3F14287   1.219   5.231   6.888  1.0807 -1.1973  3.2375
  132OSM    H3G14288   1.033   5.233   6.896 -1.0466  1.5755  1.0864
  132OSM    C4F14289   1.140   5.276   7.082 -0.1051 -0.0470 -0.3739
  132OSM    H4F14290   1.241   5.313   7.113 -0.1445  0.2753 -0.6200
  132OSM    H4G14291   1.136   5.168   7.109  0.0123  0.0793  0.1776
  132OSM    C5F14292   1.029   5.351   7.156 -0.1265  0.5870 -0.4055
  132OSM    H5F14293   0.926   5.311   7.143  0.2995 -1.2131  1.1774
  132OSM    H5G14294   1.025   5.460   7.137  0.3406  0.2592 -2.5581
  132OSM    C6F14295   1.061   5.352   7.301 -0.2774 -0.1326 -0.5387
  132OSM    H6F14296   0.987   5.420   7.348  0.2936 -0.4441  0.8687
  132OSM    H6G14297   1.156   5.403   7.327  0.1726 -0.9141 -0.6171
  132OSM    C7F14298   1.043   5.209   7.367 -0.0891 -0.4991 -0.3682
  132OSM    H7F14299   1.126   5.139   7.345  0.1704 -0.4372  0.3814
  132OSM    H7G14300   0.954   5.162   7.319 -0.8946  3.1978 -2.9599
  132OSM    C8F14301   1.021   5.229   7.514  0.3581  0.8163 -0.1321
  132OSM    H8F14302   0.991   5.136   7.566 -1.7315  3.0227  2.9543
  132OSM    H8G14303   0.933   5.295   7.530  0.9105  0.9537  2.9341
  132OSM    C9F14304   1.123   5.294   7.598  0.5099 -0.3048 -0.0123
  132OSM    H9F14305   1.111   5.402   7.585 -1.1523 -0.4268  0.2527
  132OSM   C10F14306   1.208   5.251   7.692 -0.5010 -0.3024  1.1543
  132OSM   H10F14307   1.281   5.322   7.734  1.4890 -0.8688 -1.1432
  132OSM   C11F14308   1.239   5.105   7.731  0.0923 -0.9152 -0.6132
  132OSM   H11F14309   1.332   5.071   7.681  0.6448  0.9412 -0.9025
  132OSM   H11G14310   1.166   5.027   7.699 -2.0578  1.0271 -0.6615
  132OSM   C12F14311   1.256   5.074   7.883 -0.5473 -0.2816  0.3084
  132OSM   H12F14312   1.328   5.142   7.933  0.9956 -2.5005  1.2671
  132OSM   H12G14313   1.304   4.978   7.911  1.5084  1.1248  1.9408
  132OSM   C13F14314   1.129   5.088   7.969 -0.4348  0.0592 -0.0339
  132OSM   H13F14315   1.048   5.056   7.901  0.1093  0.4838 -0.9038
  132OSM   H13G14316   1.106   5.196   7.985 -1.0204 -0.0928  0.1665
  132OSM   C14F14317   1.140   5.032   8.111  0.0048  0.8272 -0.0775
  132OSM   H14F14318   1.228   5.081   8.157  0.0631  0.9247 -0.2915
  132OSM   H14G14319   1.150   4.922   8.103 -1.2057  0.6862  0.2879
  132OSM   C15F14320   1.017   5.069   8.202 -0.6342 -0.0256  0.1245
  132OSM   H15F14321   0.927   5.037   8.146 -0.6174 -0.0697  0.1229
  132OSM   H15G14322   1.013   5.180   8.203 -2.0257  0.0244 -2.5951
  132OSM   C16F14323   1.026   5.007   8.347  0.2682  0.2312 -0.1321
  132OSM   H16F14324   1.107   5.060   8.402 -1.2082  0.7834  1.5808
  132OSM   H16G14325   1.057   4.902   8.328 -2.6209 -0.9532  1.1335
  132OSM   C17F14326   0.903   5.009   8.438 -0.3008 -0.2844  0.5950
  132OSM   H17F14327   0.930   4.934   8.516  0.1407  0.6010  1.3176
  132OSM   H17G14328   0.810   4.970   8.392  0.3582 -0.5864 -0.5074
  132OSM   C18F14329   0.872   5.133   8.518 -0.4980  0.0717  0.1494
  132OSM   H18F14330   0.763   5.152   8.510 -0.1824  1.6120 -1.0510
  132OSM   H18G14331   0.913   5.227   8.474 -2.1938  1.5368  1.5392
  132OSM   H18H14332   0.908   5.141   8.623  2.4802 -1.7338 -0.6021
  133OSM      N14333   1.365   5.677   5.851  0.2876  0.4067 -0.6970
  133OSM    C1514334   1.386   5.568   5.758 -0.2215  0.4929 -0.1116
  133OSM   H15A14335   1.301   5.548   5.693 -0.4112 -2.6924  0.9654
  133OSM   H15B14336   1.409   5.476   5.808  0.0513 -0.7087 -2.3136
  133OSM   H15C14337   1.473   5.592   5.699 -1.1746  1.8227 -1.0654
  133OSM    C1414338   1.494   5.739   5.904  0.5206 -0.9969  0.6956
  133OSM   H14A14339   1.544   5.659   5.958  3.0907 -0.2834 -0.4505
  133OSM   H14B14340   1.471   5.817   5.975  0.6658 -1.7455  1.5885
  133OSM   H14C14341   1.542   5.783   5.817 -0.1171 -2.0600 -0.2282
  133OSM    C1314342   1.309   5.797   5.777 -0.4929  0.9086 -0.0653
  133OSM   H13A14343   1.215   5.762   5.738  0.3676 -0.4486 -1.0036
  133OSM   H13B14344   1.361   5.818   5.684  2.4369 -2.5320  0.5971
  133OSM   H13C14345   1.290   5.888   5.832  0.8968  2.3692 -1.8525
  133OSM    C1214346   1.265   5.640   5.967 -0.8359 -0.0547  0.2396
  133OSM   H12A14347   1.174   5.624   5.912  0.6685  0.4859 -2.6318
  133OSM   H12B14348   1.240   5.721   6.033 -1.9686 -0.8759  0.8586
  133OSM    C1114349   1.311   5.521   6.055 -0.3303 -0.1808 -0.7024
  133OSM   H11A14350   1.247   5.535   6.145 -0.2025 -0.5500 -0.5562
  133OSM   H11B14351   1.418   5.540   6.078 -0.7577  1.4889  0.0512
  133OSM      P14352   1.380   5.264   6.015 -0.2661 -0.5222  0.2323
  133OSM    O1314353   1.280   5.150   6.022  0.1778  0.0181 -0.3227
  133OSM    O1414354   1.480   5.255   5.909 -0.3444  0.0582  0.6557
  133OSM    O1114355   1.452   5.274   6.155 -0.2880 -0.0156  0.0634
  133OSM    O1214356   1.287   5.397   5.999 -0.0458  0.1385 -0.1223
  133OSM    C1S14357   1.375   5.231   6.267  0.0586 -0.2167 -0.3068
  133OSM    H1S14358   1.347   5.124   6.268  1.7157 -0.6786  0.3021
  133OSM    H1T14359   1.272   5.274   6.262 -1.3564 -3.3995 -1.3144
  133OSM     NF14360   1.330   5.214   6.501 -0.3861 -0.2347  0.3505
  133OSM    HNF14361   1.258   5.269   6.542 -0.5084 -1.4416  1.8368
  133OSM    C2S14362   1.423   5.274   6.405 -0.0385  0.8391 -0.0107
  133OSM    H2S14363   1.526   5.232   6.417  0.2431  1.5686  0.1339
  133OSM    C3S14364   1.438   5.436   6.409  0.3135  0.0222 -0.3091
  133OSM    H3S14365   1.338   5.480   6.391  1.0351  2.3084  0.8577
  133OSM     O314366   1.529   5.485   6.312 -0.2422  0.1789 -0.1319
  133OSM    HO314367   1.527   5.419   6.243 -2.0125  0.5026 -0.4447
  133OSM    C4S14368   1.479   5.482   6.549  0.2790  0.1271 -0.4060
  133OSM    H4S14369   1.397   5.480   6.621  1.3441 -2.2206  0.8890
  133OSM    C5S14370   1.604   5.523   6.588  0.2062 -0.9941 -0.4846
  133OSM    H5S14371   1.693   5.526   6.524  1.2463  0.3935  0.9366
  133OSM    C6S14372   1.634   5.568   6.726 -0.5907 -0.6756  0.1317
  133OSM    H6S14373   1.700   5.658   6.724 -0.8872 -0.4650 -0.3342
  133OSM    H6T14374   1.688   5.485   6.777 -0.0084  0.6367  1.7347
  133OSM    C7S14375   1.517   5.612   6.813  0.3381  0.0710  0.2386
  133OSM    H7S14376   1.446   5.527   6.807  3.3427 -2.5156 -1.8553
  133OSM    H7T14377   1.463   5.691   6.756 -1.0901 -2.4590 -2.1759
  133OSM    C8S14378   1.539   5.669   6.948 -0.2012  0.0624 -0.8579
  133OSM    H8S14379   1.460   5.743   6.972  1.4754  1.5271  0.4089
  133OSM    H8T14380   1.634   5.726   6.947  2.0457 -3.2450  2.0634
  133OSM    C9S14381   1.562   5.578   7.069  0.8419 -0.1113  0.4998
  133OSM    H9S14382   1.642   5.501   7.061 -0.2153 -1.3702  1.6811
  133OSM    H9T14383   1.468   5.523   7.087  0.0006  0.8811 -0.6929
  133OSM   C10S14384   1.603   5.658   7.194 -0.8828  0.7683 -0.3403
  133OSM   H10S14385   1.673   5.735   7.156  1.5873 -2.5780 -3.2766
  133OSM   H10T14386   1.677   5.601   7.253 -0.4261  3.0968  1.4586
  133OSM   C11S14387   1.497   5.698   7.297  1.0501  0.3756 -0.1793
  133OSM   H11S14388   1.449   5.613   7.350 -1.0022  1.7056  0.2056
  133OSM   H11T14389   1.424   5.766   7.248  0.8676  0.4079  0.1369
  133OSM   C12S14390   1.572   5.781   7.405  0.6409 -0.1800  0.5322
  133OSM   H12S14391   1.614   5.874   7.362 -1.1456  0.7728  0.7419
  133OSM   H12T14392   1.651   5.708   7.432 -0.3259 -1.1302  0.8896
  133OSM   C13S14393   1.480   5.825   7.526  0.3876  0.1923 -0.2974
  133OSM   H13S14394   1.403   5.899   7.498  0.0419 -0.1887 -0.3706
  133OSM   H13T14395   1.542   5.879   7.601 -1.3773  2.6807 -0.5017
  133OSM   C14S14396   1.402   5.708   7.588 -0.2814  0.0053 -0.1759
  133OSM   H14S14397   1.471   5.623   7.608 -3.2965 -2.8331 -0.9297
  133OSM   H14T14398   1.325   5.675   7.515  0.4313  0.5538 -1.1933
  133OSM   C15S14399   1.315   5.733   7.714 -0.6226  0.0185 -1.2724
  133OSM   H15S14400   1.269   5.833   7.697 -1.8360 -0.3173 -0.1785
  133OSM   H15T14401   1.384   5.733   7.801 -3.8006  1.9122  1.5131
  133OSM   C16S14402   1.197   5.631   7.740  0.4187 -0.2982  0.4127
  133OSM   H16S14403   1.234   5.528   7.756  0.3338 -0.3644  0.1933
  133OSM   H16T14404   1.144   5.643   7.642  4.4895  3.2919 -1.6822
  133OSM   C17S14405   1.102   5.670   7.858 -0.8144  0.1177  0.0515
  133OSM   H17S14406   1.070   5.777   7.849 -1.8655 -0.0810  1.0902
  133OSM   H17T14407   1.157   5.678   7.955 -1.5874  0.4615  0.4754
  133OSM   C18S14408   0.978   5.584   7.869 -0.2213 -0.3990 -0.1273
  133OSM   H18S14409   1.002   5.478   7.891 -0.3558 -0.3574  0.2274
  133OSM   H18T14410   0.919   5.572   7.775 -1.7751 -0.0680  0.7718
  133OSM   H18U14411   0.912   5.618   7.952 -0.6869 -0.4647 -0.4613
  133OSM    C1F14412   1.335   5.083   6.530 -0.1694  0.2690  0.7265
  133OSM     OF14413   1.429   5.013   6.484  0.4538  0.5529 -0.1281
  133OSM    C2F14414   1.231   5.031   6.626 -0.1017 -0.0335 -0.1948
  133OSM    H2F14415   1.144   5.006   6.561 -0.4391  1.2253 -0.2644
  133OSM    H2G14416   1.204   5.116   6.692  0.0620  0.9208 -1.3178
  133OSM    C3F14417   1.276   4.910   6.710  0.4448  0.0145  0.1381
  133OSM    H3F14418   1.376   4.933   6.751  0.2129  1.9295 -0.2741
  133OSM    H3G14419   1.270   4.820   6.645 -4.4053 -0.5689  0.9769
  133OSM    C4F14420   1.191   4.870   6.836  0.7339 -0.6267  0.5357
  133OSM    H4F14421   1.086   4.842   6.813  0.5170 -1.3880  2.3213
  133OSM    H4G14422   1.188   4.960   6.900 -0.1760  0.0154 -0.3752
  133OSM    C5F14423   1.246   4.764   6.925 -0.1608  0.3352  0.2077
  133OSM    H5F14424   1.352   4.791   6.945 -0.4769  0.7344  1.4170
  133OSM    H5G14425   1.237   4.663   6.881 -1.2184 -0.6358  2.5057
  133OSM    C6F14426   1.170   4.761   7.056  0.5190  0.0302 -0.0531
  133OSM    H6F14427   1.068   4.719   7.046  0.2091 -0.1903  3.0722
  133OSM    H6G14428   1.166   4.856   7.112 -0.9297 -1.1256  1.9132
  133OSM    C7F14429   1.236   4.660   7.164 -0.3752 -0.9360  0.5088
  133OSM    H7F14430   1.343   4.689   7.163  0.0664 -2.2409 -2.8733
  133OSM    H7G14431   1.243   4.557   7.123 -1.1768 -0.3468 -1.1897
  133OSM    C8F14432   1.170   4.659   7.301  0.1815  0.3165 -0.4745
  133OSM    H8F14433   1.226   4.574   7.346 -1.3380  0.1122  1.1299
  133OSM    H8G14434   1.065   4.622   7.298  0.8768 -1.7627 -2.2502
  133OSM    C9F14435   1.180   4.787   7.375 -0.0427  0.4362  0.5632
  133OSM    H9F14436   1.148   4.868   7.308 -1.2829 -1.1277 -0.8341
  133OSM   C10F14437   1.229   4.815   7.494 -0.2639 -0.8740  1.2296
  133OSM   H10F14438   1.224   4.922   7.520  0.0998 -0.2728 -0.9712
  133OSM   C11F14439   1.284   4.707   7.594 -0.2940 -0.7531 -0.1740
  133OSM   H11F14440   1.377   4.735   7.649 -1.6069 -0.1587  1.8811
  133OSM   H11G14441   1.312   4.621   7.531 -0.2363  0.8823 -2.5123
  133OSM   C12F14442   1.176   4.648   7.684  0.3970 -0.3400  0.0029
  133OSM   H12F14443   1.212   4.559   7.740  0.7720 -0.8576 -1.0255
  133OSM   H12G14444   1.097   4.605   7.618  0.1371 -0.3198  0.3000
  133OSM   C13F14445   1.130   4.740   7.800  0.4157 -0.2849 -0.7815
  133OSM   H13F14446   1.082   4.834   7.764 -2.1927 -0.0799  2.7250
  133OSM   H13G14447   1.219   4.768   7.861  0.3982 -0.4102 -0.6992
  133OSM   C14F14448   1.029   4.671   7.898 -0.2814 -0.2464 -0.2759
  133OSM   H14F14449   1.016   4.734   7.988  0.1537  1.1143 -1.1293
  133OSM   H14G14450   1.083   4.580   7.931 -0.5212 -0.3244 -0.0954
  133OSM   C15F14451   0.890   4.640   7.852  0.1186  0.0987 -0.5317
  133OSM   H15F14452   0.891   4.565   7.770 -2.2077 -0.6015  0.0080
  133OSM   H15G14453   0.844   4.729   7.804  1.2245  0.2079 -1.4218
  133OSM   C16F14454   0.802   4.583   7.965  0.2880  0.1265  0.2522
  133OSM   H16F14455   0.861   4.496   8.001  1.5487  0.9055  0.1399
  133OSM   H16G14456   0.709   4.540   7.925  1.3925 -2.5172  0.3451
  133OSM   C17F14457   0.768   4.680   8.087 -0.5733  0.3813  0.5250
  133OSM   H17F14458   0.862   4.704   8.142 -0.4522  1.1029  0.0200
  133OSM   H17G14459   0.709   4.624   8.162 -0.0883 -0.5354  0.2397
  133OSM   C18F14460   0.695   4.814   8.050  0.2910 -0.3924  0.0586
  133OSM   H18F14461   0.592   4.817   8.010 -0.0874  2.3743  1.0159
  133OSM   H18G14462   0.765   4.867   7.982 -0.4254  2.1957  1.2110
  133OSM   H18H14463   0.672   4.877   8.139 -1.2317  0.8094 -1.1425
  134OSM      N14464   2.582   0.304   6.031 -0.2311  0.1163  0.3330
  134OSM    C1514465   2.601   0.434   6.097  0.3144  0.0929  0.7641
  134OSM   H15A14466   2.651   0.504   6.031 -0.2501 -1.0965 -0.9999
  134OSM   H15B14467   2.669   0.418   6.180  0.5415  0.5347  0.6664
  134OSM   H15C14468   2.504   0.465   6.132 -0.7628  0.0113 -1.8964
  134OSM    C1414469   2.543   0.330   5.888  0.2305 -0.1105  0.4186
  134OSM   H14A14470   2.620   0.389   5.841  0.0952  0.7010  1.1933
  134OSM   H14B14471   2.453   0.389   5.883 -0.7439 -1.6509 -2.6495
  134OSM   H14C14472   2.532   0.234   5.840  0.5193  0.4991 -0.9230
  134OSM    C1314473   2.718   0.235   6.041  0.2996 -0.6150  0.0861
  134OSM   H13A14474   2.737   0.193   6.138  1.4684  0.4626  0.3404
  134OSM   H13B14475   2.793   0.311   6.031 -0.2140  0.2010  2.0275
  134OSM   H13C14476   2.724   0.166   5.958  0.9156  0.2340 -0.5915
  134OSM    C1214477   2.484   0.207   6.099  0.5772 -1.1246 -0.6528
  134OSM   H12A14478   2.499   0.219   6.205  0.7102  0.7137 -0.8564
  134OSM   H12B14479   2.499   0.107   6.061 -0.5432 -1.7906  0.5654
  134OSM    C1114480   2.335   0.240   6.066 -0.0055  0.3187  0.5671
  134OSM   H11A14481   2.264   0.157   6.088 -1.4758  0.7693 -2.0545
  134OSM   H11B14482   2.316   0.241   5.956 -1.2560  0.3213  0.7646
  134OSM      P14483   2.203   0.383   6.243 -0.3342 -0.1702 -0.0465
  134OSM    O1314484   2.225   0.520   6.306 -0.3821 -0.2246  0.3414
  134OSM    O1414485   2.065   0.353   6.195 -0.2011 -0.9374  0.2539
  134OSM    O1114486   2.260   0.270   6.340  0.7208  0.1022  0.3177
  134OSM    O1214487   2.301   0.371   6.120  0.3195  0.2701  0.1549
  134OSM    C1S14488   2.340   0.308   6.455 -0.0632 -0.0841 -0.2646
  134OSM    H1S14489   2.302   0.402   6.500 -0.2173 -0.3542  0.1726
  134OSM    H1T14490   2.443   0.334   6.422  0.2556 -0.4630  0.4081
  134OSM     NF14491   2.376   0.264   6.694 -0.7168  0.0160 -0.5698
  134OSM    HNF14492   2.473   0.273   6.715 -0.1695 -0.3294 -2.7623
  134OSM    C2S14493   2.346   0.200   6.569  0.1072  0.2677 -0.3929
  134OSM    H2S14494   2.242   0.163   6.582  1.0243 -2.4664 -0.3175
  134OSM    C3S14495   2.433   0.070   6.536 -0.1314 -0.4021 -0.3768
  134OSM    H3S14496   2.539   0.096   6.517 -0.1757 -1.0450 -1.5739
  134OSM     O314497   2.385   0.002   6.418 -0.4223  0.2978 -0.2895
  134OSM    HO314498   2.324   0.070   6.390 -1.2727  0.5844  2.0270
  134OSM    C4S14499   2.430  -0.025   6.651 -0.1155  0.5185  0.4425
  134OSM    H4S14500   2.331  -0.072   6.661 -0.6897  1.7449  0.7214
  134OSM    C5S14501   2.526  -0.057   6.734  0.7280 -0.1369  0.4873
  134OSM    H5S14502   2.617   0.005   6.733 -0.2567  1.3543  0.5083
  134OSM    C6S14503   2.510  -0.157   6.851 -0.1148  0.0218  0.3841
  134OSM    H6S14504   2.603  -0.216   6.866 -0.2164 -0.8708 -1.9745
  134OSM    H6T14505   2.428  -0.228   6.828 -1.3314  0.8480  1.9266
  134OSM    C7S14506   2.471  -0.081   6.980 -0.6045 -0.0333  0.3728
  134OSM    H7S14507   2.406   0.005   6.954 -0.2579  0.8458  2.2654
  134OSM    H7T14508   2.570  -0.051   7.021 -0.7664  2.6873 -1.0284
  134OSM    C8S14509   2.400  -0.173   7.080  0.2139  0.4893 -1.1224
  134OSM    H8S14510   2.448  -0.273   7.084  1.4062  1.0897  2.3639
  134OSM    H8T14511   2.304  -0.207   7.035 -0.9602 -0.8299  2.1338
  134OSM    C9S14512   2.379  -0.105   7.218 -0.8246 -0.4460 -0.0604
  134OSM    H9S14513   2.281  -0.137   7.261  0.2157 -0.0078  2.8935
  134OSM    H9T14514   2.369   0.005   7.203 -0.8073 -0.5296 -0.7138
  134OSM   C10S14515   2.499  -0.124   7.310 -0.2679  0.5831 -0.1525
  134OSM   H10S14516   2.578  -0.048   7.295  0.6496 -0.0752  1.2106
  134OSM   H10T14517   2.533  -0.229   7.304 -0.2046  0.3151  3.1583
  134OSM   C11S14518   2.468  -0.096   7.459 -0.2716 -0.2257 -0.4154
  134OSM   H11S14519   2.390  -0.170   7.487 -0.9644 -0.0159 -1.7190
  134OSM   H11T14520   2.436   0.009   7.475 -0.4726 -0.3669  0.1117
  134OSM   C12S14521   2.605  -0.124   7.529  0.2092 -0.2262 -0.0065
  134OSM   H12S14522   2.699  -0.093   7.478  0.5171  1.1380  1.3190
  134OSM   H12T14523   2.605  -0.234   7.545  2.2758 -1.2581 -5.0568
  134OSM   C13S14524   2.613  -0.065   7.675 -0.0862 -0.1685 -0.4981
  134OSM   H13S14525   2.594   0.044   7.668  0.5567 -0.0553 -0.5732
  134OSM   H13T14526   2.714  -0.079   7.719 -0.6600  0.9494  1.2794
  134OSM   C14S14527   2.517  -0.116   7.778 -0.9240 -0.2108 -0.1448
  134OSM   H14S14528   2.551  -0.219   7.803 -1.0070  0.1512  1.5162
  134OSM   H14T14529   2.411  -0.128   7.746 -0.4567 -3.3123 -0.8805
  134OSM   C15S14530   2.532  -0.029   7.897  0.6378 -0.4762  0.0597
  134OSM   H15S14531   2.486   0.070   7.873  0.6332 -0.4509  0.1708
  134OSM   H15T14532   2.637   0.003   7.908 -0.1964  2.0994  1.5619
  134OSM   C16S14533   2.479  -0.091   8.032 -0.9411 -0.0298 -0.6081
  134OSM   H16S14534   2.497  -0.016   8.112  1.6622  0.0053 -1.1172
  134OSM   H16T14535   2.544  -0.178   8.057  0.5973  0.8905 -1.2174
  134OSM   C17S14536   2.328  -0.149   8.019  0.3469 -0.1609  0.6178
  134OSM   H17S14537   2.315  -0.233   7.947  0.2162 -0.6105  1.1589
  134OSM   H17T14538   2.260  -0.070   7.983  0.2581 -1.5486 -2.6529
  134OSM   C18S14539   2.280  -0.189   8.158 -0.1910 -0.4787  0.4907
  134OSM   H18S14540   2.252  -0.098   8.216 -0.4284 -0.6944  0.7201
  134OSM   H18T14541   2.359  -0.238   8.218 -0.5305 -0.2957  1.1013
  134OSM   H18U14542   2.195  -0.261   8.158  0.8636 -1.7976  2.1637
  134OSM    C1F14543   2.291   0.322   6.777  0.2381 -0.1850  0.2979
  134OSM     OF14544   2.169   0.313   6.747 -0.2778  0.5578  0.4038
  134OSM    C2F14545   2.341   0.392   6.902  0.6749 -0.1914 -0.3579
  134OSM    H2F14546   2.298   0.494   6.892 -1.1561 -0.8747  0.1306
  134OSM    H2G14547   2.452   0.397   6.890  1.2833 -3.0717  2.6968
  134OSM    C3F14548   2.300   0.329   7.032  0.3022 -0.4462  0.0360
  134OSM    H3F14549   2.337   0.225   7.028 -0.3938 -0.6693 -1.5762
  134OSM    H3G14550   2.189   0.327   7.035  0.3095 -0.4447  0.3285
  134OSM    C4F14551   2.356   0.405   7.161 -0.0468  0.0773 -0.7313
  134OSM    H4F14552   2.292   0.495   7.170 -1.3295 -0.9758  1.1229
  134OSM    H4G14553   2.462   0.437   7.148 -0.6842  2.6371 -0.2255
  134OSM    C5F14554   2.346   0.321   7.290 -0.3362 -0.4914  0.0918
  134OSM    H5F14555   2.400   0.225   7.271 -1.1662 -0.7544 -1.0816
  134OSM    H5G14556   2.239   0.304   7.316 -0.8487  1.5680 -0.4699
  134OSM    C6F14557   2.403   0.414   7.401  0.6942  0.0372  0.4406
  134OSM    H6F14558   2.338   0.502   7.382 -1.6949 -2.0471 -1.8691
  134OSM    H6G14559   2.507   0.451   7.391  0.8682 -0.6095 -0.2454
  134OSM    C7F14560   2.368   0.353   7.534 -1.0127  0.7807 -0.1532
  134OSM    H7F14561   2.407   0.249   7.542 -0.4491  1.0023  0.0444
  134OSM    H7G14562   2.258   0.340   7.528 -0.7126 -4.1920  0.7844
  134OSM    C8F14563   2.413   0.443   7.648  1.0758 -0.4563 -0.8213
  134OSM    H8F14564   2.382   0.546   7.624  0.4160 -0.4250  0.1191
  134OSM    H8G14565   2.524   0.449   7.657  1.0360  0.7522 -1.0600
  134OSM    C9F14566   2.352   0.386   7.775  0.4910  1.3795  0.5256
  134OSM    H9F14567   2.375   0.280   7.791  0.0238  1.2454  0.3244
  134OSM   C10F14568   2.288   0.464   7.867  0.6673 -0.4124  0.4874
  134OSM   H10F14569   2.256   0.425   7.965 -0.5246 -3.7253 -1.0882
  134OSM   C11F14570   2.263   0.606   7.856  0.1721 -0.1318  0.9583
  134OSM   H11F14571   2.172   0.628   7.796  2.5848  1.2966 -2.4923
  134OSM   H11G14572   2.335   0.661   7.791 -1.5352  0.8613 -0.1713
  134OSM   C12F14573   2.257   0.673   7.993  0.2962  0.2450 -0.3892
  134OSM   H12F14574   2.267   0.783   7.981  0.6018  0.6749  2.9663
  134OSM   H12G14575   2.337   0.656   8.068 -0.1404 -0.1609 -0.0145
  134OSM   C13F14576   2.114   0.658   8.056  0.2175  0.3696  0.1693
  134OSM   H13F14577   2.080   0.552   8.064 -1.4486  0.9177  0.6192
  134OSM   H13G14578   2.040   0.709   7.992  2.6000  1.3801 -1.9701
  134OSM   C14F14579   2.094   0.706   8.201  0.4703 -0.8928 -1.0321
  134OSM   H14F14580   1.987   0.705   8.233  0.3018  0.2967 -1.5106
  134OSM   H14G14581   2.129   0.811   8.205  3.4460 -1.7823 -1.7646
  134OSM   C15F14582   2.181   0.632   8.313 -0.2894 -0.2937  0.8262
  134OSM   H15F14583   2.137   0.669   8.408 -1.5846 -0.0585  0.1597
  134OSM   H15G14584   2.280   0.682   8.314  1.1001 -2.8355  3.1562
  134OSM   C16F14585   2.183   0.481   8.317 -0.4305  0.5404 -0.2684
  134OSM   H16F14586   2.248   0.445   8.235  0.8422  0.5529  0.6960
  134OSM   H16G14587   2.087   0.433   8.288  0.1345 -1.7723  1.4289
  134OSM   C17F14588   2.219   0.426   8.456 -0.4428  0.4620 -0.0387
  134OSM   H17F14589   2.140   0.457   8.528 -0.5450 -2.4759  1.3022
  134OSM   H17G14590   2.313   0.481   8.473 -0.1970  0.0560 -0.0600
  134OSM   C18F14591   2.235   0.267   8.462 -0.4912 -0.4017 -0.0232
  134OSM   H18F14592   2.272   0.226   8.559  0.0889 -1.4796 -0.6857
  134OSM   H18G14593   2.315   0.244   8.388  0.3375 -2.8916  1.4879
  134OSM   H18H14594   2.139   0.220   8.432 -0.6794  0.3945 -0.7123
  135OSM      N14595   1.710   0.620   6.264 -0.0491  0.2696 -1.0167
  135OSM    C1514596   1.685   0.664   6.407  0.1089 -0.3820 -0.2521
  135OSM   H15A14597   1.755   0.744   6.424 -0.5175  0.2797 -0.7308
  135OSM   H15B14598   1.695   0.588   6.482  0.1491 -0.8692 -0.7414
  135OSM   H15C14599   1.587   0.707   6.416 -0.1647 -0.0934 -3.3969
  135OSM    C1414600   1.858   0.597   6.254 -0.7115 -0.5505 -0.8287
  135OSM   H14A14601   1.913   0.688   6.273 -1.8978  0.1577 -0.6945
  135OSM   H14B14602   1.884   0.556   6.157  1.1900 -0.3992 -0.4240
  135OSM   H14C14603   1.893   0.522   6.323 -1.8407 -0.8301 -0.5558
  135OSM    C1314604   1.638   0.484   6.250  0.0905  0.1028 -0.1544
  135OSM   H13A14605   1.635   0.458   6.145 -1.0085  0.8990 -0.3476
  135OSM   H13B14606   1.532   0.495   6.268  0.2283 -0.0926  0.8268
  135OSM   H13C14607   1.688   0.407   6.307  0.9669  0.6819 -0.1209
  135OSM    C1214608   1.649   0.717   6.165  0.7480 -0.0226  0.0490
  135OSM   H12A14609   1.689   0.698   6.066 -1.2952  0.5935 -0.9385
  135OSM   H12B14610   1.689   0.815   6.187  2.1310 -0.5250 -0.0866
  135OSM    C1114611   1.494   0.724   6.166 -0.2412  0.0288  0.0080
  135OSM   H11A14612   1.451   0.627   6.134  1.0323 -0.8322  0.8409
  135OSM   H11B14613   1.467   0.795   6.085 -0.2608  1.1158  0.9288
  135OSM      P14614   1.434   0.906   6.342  0.3597  0.0866 -0.0844
  135OSM    O1314615   1.452   0.986   6.219 -0.2346 -0.5731 -0.4472
  135OSM    O1414616   1.313   0.937   6.414 -0.2811 -0.4248  0.5175
  135OSM    O1114617   1.559   0.913   6.433 -0.4154  0.0592 -0.2729
  135OSM    O1214618   1.441   0.764   6.291 -0.5604  0.2226  0.3496
  135OSM    C1S14619   1.634   1.034   6.454  0.2237  0.5872 -0.5736
  135OSM    H1S14620   1.587   1.120   6.403 -1.8550 -0.2077 -0.0908
  135OSM    H1T14621   1.736   1.016   6.413 -0.7690 -2.5014 -1.9963
  135OSM     NF14622   1.699   1.212   6.611 -0.9252 -0.3506  0.5506
  135OSM    HNF14623   1.797   1.213   6.628 -0.7032 -1.7432 -0.5363
  135OSM    C2S14624   1.648   1.071   6.607  0.3904 -0.0573  1.0215
  135OSM    H2S14625   1.546   1.069   6.651 -0.2684 -2.0201 -0.4308
  135OSM    C3S14626   1.733   0.968   6.682 -0.4203  0.1817  0.9378
  135OSM    H3S14627   1.830   0.962   6.628 -0.1215 -1.2285  1.5816
  135OSM     O314628   1.679   0.835   6.669 -0.2916  0.2893  0.2877
  135OSM    HO314629   1.644   0.839   6.580 -2.0709  0.5151  0.9600
  135OSM    C4S14630   1.768   1.002   6.826 -0.8564 -0.3022 -0.2179
  135OSM    H4S14631   1.842   1.083   6.835 -2.5394  1.0296  4.3708
  135OSM    C5S14632   1.704   0.964   6.936 -0.3354 -0.0052 -0.2224
  135OSM    H5S14633   1.628   0.885   6.925  1.1942 -1.4297 -0.9426
  135OSM    C6S14634   1.738   1.020   7.074 -0.5031 -0.1915  0.0298
  135OSM    H6S14635   1.702   0.951   7.155 -1.4638  1.4788  1.0831
  135OSM    H6T14636   1.676   1.109   7.099  1.3566  0.9553  0.7737
  135OSM    C7S14637   1.883   1.071   7.098  0.7501  0.3019  0.1337
  135OSM    H7S14638   1.902   1.160   7.035 -1.8980 -0.3705 -1.7977
  135OSM    H7T14639   1.962   0.999   7.069 -1.0396 -1.6013 -0.3156
  135OSM    C8S14640   1.905   1.115   7.240  0.1036  0.6555 -0.2097
  135OSM    H8S14641   1.823   1.177   7.281 -1.3615 -1.1513 -0.2846
  135OSM    H8T14642   2.001   1.171   7.247  0.9016 -0.6650 -0.2039
  135OSM    C9S14643   1.926   0.995   7.344 -0.1024 -0.3481 -0.1234
  135OSM    H9S14644   2.018   0.936   7.321  1.8227  3.0741 -2.0024
  135OSM    H9T14645   1.838   0.927   7.351  0.4527 -0.9895  0.8551
  135OSM   C10S14646   1.943   1.048   7.491  0.4482 -0.1249  0.3448
  135OSM   H10S14647   2.033   1.112   7.497  0.8266 -0.6904  0.8081
  135OSM   H10T14648   1.954   0.961   7.559 -1.0951 -1.2605 -0.7898
  135OSM   C11S14649   1.828   1.146   7.541  0.3982  0.4574 -0.3299
  135OSM   H11S14650   1.739   1.091   7.578  1.4688 -1.7805 -0.9297
  135OSM   H11T14651   1.807   1.220   7.461  0.4667  0.4391 -0.3647
  135OSM   C12S14652   1.876   1.222   7.675  0.0238  0.0107  0.0527
  135OSM   H12S14653   1.793   1.279   7.722 -1.5080 -1.3912 -0.8394
  135OSM   H12T14654   1.955   1.288   7.633  0.3155 -1.0501 -1.1516
  135OSM   C13S14655   1.928   1.128   7.777  0.2817 -0.3571  0.5169
  135OSM   H13S14656   2.015   1.065   7.749  3.2801  2.8187  1.9543
  135OSM   H13T14657   1.841   1.065   7.805 -2.0259  2.0536 -0.7542
  135OSM   C14S14658   1.978   1.195   7.908  0.3022  0.4618  0.0231
  135OSM   H14S14659   1.903   1.267   7.948  1.2215  1.6098 -0.2707
  135OSM   H14T14660   2.058   1.265   7.874  1.3606 -1.0478 -0.6956
  135OSM   C15S14661   2.023   1.105   8.028  0.1948  0.2591 -0.6162
  135OSM   H15S14662   2.093   1.153   8.100 -0.0074 -0.4700  0.0838
  135OSM   H15T14663   2.084   1.025   7.981  2.1360  1.2999  0.0403
  135OSM   C16S14664   1.925   1.032   8.103 -0.4592  0.5844 -0.3715
  135OSM   H16S14665   1.984   0.963   8.167 -2.9365 -0.4571  0.9611
  135OSM   H16T14666   1.865   0.966   8.037  1.6108  1.8252 -3.7754
  135OSM   C17S14667   1.846   1.107   8.208 -0.2182 -0.6026 -0.0790
  135OSM   H17S14668   1.779   1.183   8.163  1.3916  1.5904  1.0365
  135OSM   H17T14669   1.912   1.167   8.274  0.3766  1.3838 -2.3175
  135OSM   C18S14670   1.768   1.009   8.296 -0.1000 -0.3597 -0.3198
  135OSM   H18S14671   1.712   0.934   8.235  1.1404  0.1058 -2.1185
  135OSM   H18T14672   1.693   1.059   8.362 -1.4941 -0.3970 -1.7896
  135OSM   H18U14673   1.839   0.955   8.361 -1.0692 -0.2911  0.8239
  135OSM    C1F14674   1.633   1.328   6.578  0.2341 -0.1431  0.3546
  135OSM     OF14675   1.511   1.334   6.568  0.3608 -0.2844 -0.3890
  135OSM    C2F14676   1.729   1.445   6.550  0.3735  0.5783  0.7956
  135OSM    H2F14677   1.696   1.509   6.465  2.2591 -0.2515 -0.6516
  135OSM    H2G14678   1.834   1.416   6.529  0.4923  1.6606 -0.1883
  135OSM    C3F14679   1.726   1.538   6.673 -0.5822  0.2980 -0.4914
  135OSM    H3F14680   1.623   1.526   6.711 -0.8386 -3.1662 -1.9040
  135OSM    H3G14681   1.745   1.642   6.638 -0.6544 -0.1498 -1.9264
  135OSM    C4F14682   1.827   1.507   6.787 -0.5114  0.2709 -0.0449
  135OSM    H4F14683   1.934   1.508   6.756 -0.9647 -0.2616 -1.7349
  135OSM    H4G14684   1.808   1.402   6.817  0.7686  0.3659  1.2226
  135OSM    C5F14685   1.796   1.601   6.911  0.0777  0.3151  0.4093
  135OSM    H5F14686   1.701   1.580   6.964 -0.3170  0.0899 -0.3675
  135OSM    H5G14687   1.790   1.703   6.867 -0.1267  0.1245 -0.0036
  135OSM    C6F14688   1.905   1.611   7.014  0.0420 -0.1590 -0.6371
  135OSM    H6F14689   1.974   1.692   6.980 -1.0249  0.6981 -0.8162
  135OSM    H6G14690   1.972   1.524   7.033  2.1731  1.2673 -1.2164
  135OSM    C7F14691   1.842   1.658   7.154 -0.4496 -0.3187  0.7496
  135OSM    H7F14692   1.743   1.613   7.175  0.0192 -1.1608  1.1889
  135OSM    H7G14693   1.825   1.766   7.135  1.4181  0.0452  0.9293
  135OSM    C8F14694   1.944   1.652   7.263 -0.0070 -0.5375 -0.1938
  135OSM    H8F14695   1.962   1.756   7.296 -0.1602 -0.0622 -1.5726
  135OSM    H8G14696   2.033   1.618   7.206  0.1530 -0.5987  0.0899
  135OSM    C9F14697   1.908   1.547   7.374  0.0251  0.3369 -0.4726
  135OSM    H9F14698   1.910   1.447   7.330 -0.0258 -0.8677  2.0502
  135OSM   C10F14699   1.889   1.561   7.507 -1.1964 -0.4260 -0.0377
  135OSM   H10F14700   1.840   1.483   7.566 -0.3295 -1.0583 -0.1369
  135OSM   C11F14701   1.893   1.701   7.567 -0.3508 -0.7376 -0.2897
  135OSM   H11F14702   1.818   1.768   7.521  1.4312 -0.5981 -3.1639
  135OSM   H11G14703   1.988   1.752   7.542 -1.3411  1.2629 -0.1799
  135OSM   C12F14704   1.874   1.695   7.722 -0.3120  0.3266  0.5375
  135OSM   H12F14705   1.768   1.666   7.737 -1.2595  3.2016 -0.0534
  135OSM   H12G14706   1.879   1.802   7.752  0.4392  0.1711  1.0160
  135OSM   C13F14707   1.974   1.619   7.814  0.8963  0.4278 -0.5744
  135OSM   H13F14708   2.081   1.618   7.786  0.7153  0.2592 -1.2800
  135OSM   H13G14709   1.942   1.514   7.796  0.9182 -0.1453  2.2625
  135OSM   C14F14710   1.951   1.655   7.956  0.1374 -0.5519 -0.5303
  135OSM   H14F14711   1.843   1.634   7.972 -0.4796  2.5498  0.0247
  135OSM   H14G14712   1.973   1.764   7.964 -2.1025 -0.0283 -0.9277
  135OSM   C15F14713   2.041   1.579   8.053 -0.3951 -0.8190  0.3669
  135OSM   H15F14714   2.144   1.620   8.051 -0.3911 -0.8396 -1.5219
  135OSM   H15G14715   2.053   1.471   8.029  1.7507 -1.1179  2.4142
  135OSM   C16F14716   2.007   1.596   8.202  0.8170  0.1153 -0.2772
  135OSM   H16F14717   1.896   1.600   8.212  0.9521  0.6955  1.3509
  135OSM   H16G14718   2.034   1.696   8.244  0.4722 -0.7185  2.1112
  135OSM   C17F14719   2.069   1.487   8.294  0.0912 -0.3241 -0.8118
  135OSM   H17F14720   2.040   1.386   8.257 -0.6514 -0.5647  0.3646
  135OSM   H17G14721   2.029   1.500   8.397  1.4376  3.0278 -0.5920
  135OSM   C18F14722   2.217   1.503   8.317 -0.1351 -0.6331  0.7893
  135OSM   H18F14723   2.266   1.414   8.361  2.1477  0.5469  0.7953
  135OSM   H18G14724   2.240   1.595   8.375  1.5041 -1.3598  1.3227
  135OSM   H18H14725   2.260   1.525   8.217 -1.7424 -1.5193 -0.1475
  136OSM      N14726   6.151   6.431   6.109 -0.0815 -0.0959 -0.7240
  136OSM    C1514727   6.226   6.321   6.042 -0.3577  0.1232  0.2487
  136OSM   H15A14728   6.178   6.317   5.945 -0.8040  0.4418  0.4561
  136OSM   H15B14729   6.216   6.220   6.081  0.4324  0.1764  0.6058
  136OSM   H15C14730   6.331   6.331   6.020 -0.3304  0.2889  0.4586
  136OSM    C1414731   6.155   6.547   6.021  0.8527  0.2571 -0.1051
  136OSM   H14A14732   6.122   6.640   6.066  1.0921 -0.0843  0.8060
  136OSM   H14B14733   6.090   6.527   5.937 -0.9930  1.2325  1.0302
  136OSM   H14C14734   6.254   6.560   5.980  1.8633 -1.3398  1.6531
  136OSM    C1314735   6.010   6.383   6.133  0.0034  0.1688 -0.4314
  136OSM   H13A14736   5.953   6.444   6.201 -1.5617 -0.9946 -0.6655
  136OSM   H13B14737   6.016   6.281   6.168 -0.4823 -0.5148 -2.2286
  136OSM   H13C14738   5.945   6.374   6.047  0.9663  0.9407 -1.2760
  136OSM    C1214739   6.215   6.460   6.244  0.4685  0.0360  0.3044
  136OSM   H12A14740   6.318   6.488   6.225  0.1809 -0.4748 -2.3027
  136OSM   H12B14741   6.207   6.374   6.310 -0.3620  0.1582  0.3712
  136OSM    C1114742   6.154   6.586   6.315  0.2582 -0.4321  0.5633
  136OSM   H11A14743   6.198   6.571   6.416 -1.0532 -0.2618  1.1751
  136OSM   H11B14744   6.044   6.580   6.322  0.0853  0.7143 -0.5980
  136OSM      P14745   6.349   6.751   6.253 -0.2163  0.1513  0.0162
  136OSM    O1314746   6.431   6.633   6.204  0.1257  0.3259  0.5826
  136OSM    O1414747   6.363   6.877   6.179  0.4014  0.0395 -0.3170
  136OSM    O1114748   6.395   6.793   6.399 -0.1096  0.0422 -0.5424
  136OSM    O1214749   6.198   6.709   6.256 -0.4136  0.0971 -0.5268
  136OSM    C1S14750   6.326   6.888   6.473 -0.2189  0.0313  0.2530
  136OSM    H1S14751   6.247   6.838   6.533  0.5434 -0.8349  0.5434
  136OSM    H1T14752   6.273   6.962   6.409 -0.8110 -0.7923 -0.2352
  136OSM     NF14753   6.345   7.047   6.662  0.2664  0.0084 -0.8125
  136OSM    HNF14754   6.325   7.140   6.632  0.5250 -0.3583 -2.1733
  136OSM    C2S14755   6.422   6.963   6.571  0.3541  0.1711  0.0134
  136OSM    H2S14756   6.489   6.891   6.623  0.6471  0.5392  0.1534
  136OSM    C3S14757   6.525   7.035   6.484  0.0416 -0.5080  0.0932
  136OSM    H3S14758   6.460   7.098   6.419 -0.4506 -2.2738 -1.2083
  136OSM     O314759   6.596   6.950   6.396  0.3665  0.0158  0.2481
  136OSM    HO314760   6.535   6.877   6.381  0.5633 -0.1046  0.0282
  136OSM    C4S14761   6.628   7.114   6.563  0.0458 -0.3902 -0.6188
  136OSM    H4S14762   6.690   7.051   6.628  0.7581 -0.6738 -1.5537
  136OSM    C5S14763   6.658   7.244   6.551 -0.4470  0.1708  0.0959
  136OSM    H5S14764   6.610   7.311   6.478  0.9094  0.8813 -0.1850
  136OSM    C6S14765   6.766   7.314   6.628  0.7223  0.9434  0.1084
  136OSM    H6S14766   6.781   7.421   6.599 -0.2419  1.3952  1.1905
  136OSM    H6T14767   6.863   7.261   6.621 -0.0055 -0.5801  1.1125
  136OSM    C7S14768   6.730   7.343   6.773  0.1244 -0.6726 -0.5639
  136OSM    H7S14769   6.732   7.244   6.822 -0.2993  0.3264  1.5651
  136OSM    H7T14770   6.630   7.391   6.778  0.0617 -0.9232  1.0214
  136OSM    C8S14771   6.835   7.431   6.851  0.3519  0.0052 -0.4905
  136OSM    H8S14772   6.846   7.533   6.809 -0.3314  0.0997 -0.4522
  136OSM    H8T14773   6.927   7.368   6.846 -0.2243 -0.8164 -1.0155
  136OSM    C9S14774   6.796   7.437   7.003  0.3811 -0.0908  0.3294
  136OSM    H9S14775   6.786   7.331   7.033 -1.1955  0.7723  3.1582
  136OSM    H9T14776   6.696   7.484   7.004  0.9432  1.3435 -2.2310
  136OSM   C10S14777   6.910   7.494   7.087 -0.2243  0.5678 -0.2762
  136OSM   H10S14778   6.930   7.603   7.082 -1.6666  0.8335 -0.7454
  136OSM   H10T14779   6.998   7.428   7.068  0.0995  1.2314 -1.1858
  136OSM   C11S14780   6.879   7.468   7.234  0.4704  0.8932 -0.3637
  136OSM   H11S14781   6.840   7.365   7.236  1.4900  0.5048  1.1067
  136OSM   H11T14782   6.802   7.543   7.262 -0.0218  0.9317 -1.7409
  136OSM   C12S14783   6.999   7.489   7.331  0.1068 -0.4495 -0.2299
  136OSM   H12S14784   7.055   7.583   7.310 -1.3844  0.3901 -0.5479
  136OSM   H12T14785   7.074   7.410   7.309 -1.2367 -1.5339 -1.0433
  136OSM   C13S14786   6.949   7.479   7.474 -0.1905 -0.2907 -0.0700
  136OSM   H13S14787   6.944   7.375   7.514  3.0140  0.6881  3.4804
  136OSM   H13T14788   6.847   7.519   7.486  0.5216  1.4113  0.6195
  136OSM   C14S14789   7.051   7.551   7.567  0.7814 -0.3579 -0.4971
  136OSM   H14S14790   7.055   7.655   7.527 -0.8108 -0.1077 -0.0930
  136OSM   H14T14791   7.148   7.498   7.553  1.0122  0.0820 -0.5805
  136OSM   C15S14792   7.010   7.554   7.716 -0.2324 -0.2935  0.6687
  136OSM   H15S14793   6.997   7.449   7.747 -0.8474 -0.6264 -0.6441
  136OSM   H15T14794   6.918   7.616   7.707  1.2509  1.7727 -1.4439
  136OSM   C16S14795   7.105   7.622   7.811  0.2967  0.0279 -0.2488
  136OSM   H16S14796   7.127   7.720   7.765  2.3110  0.0794  0.7092
  136OSM   H16T14797   7.196   7.559   7.825 -0.2193 -0.6388  0.1867
  136OSM   C17S14798   7.032   7.634   7.950 -0.3643  0.2371  0.4553
  136OSM   H17S14799   6.985   7.537   7.975  2.3875 -0.6002  2.8513
  136OSM   H17T14800   6.955   7.714   7.935 -0.1340  0.3688 -0.0459
  136OSM   C18S14801   7.119   7.684   8.063 -0.7926  0.4250  0.1994
  136OSM   H18S14802   7.058   7.680   8.156 -0.2546 -0.2506  0.5322
  136OSM   H18T14803   7.162   7.784   8.037  0.5454 -0.2475 -0.3017
  136OSM   H18U14804   7.210   7.626   8.089  1.6475  3.2720 -1.2888
  136OSM    C1F14805   6.275   6.992   6.763  0.3881 -0.5273 -0.3236
  136OSM     OF14806   6.282   6.875   6.790 -0.1577  0.3731 -0.0926
  136OSM    C2F14807   6.193   7.087   6.843  0.2570 -0.3107 -0.2403
  136OSM    H2F14808   6.134   7.152   6.775 -0.6102 -0.2804  0.5168
  136OSM    H2G14809   6.266   7.159   6.886 -0.0544  0.0207 -0.2568
  136OSM    C3F14810   6.126   7.028   6.965  0.4267 -0.7114  0.0010
  136OSM    H3F14811   6.205   6.964   7.008  0.5755 -1.1271 -0.8839
  136OSM    H3G14812   6.034   6.971   6.940 -0.5986  0.2897  1.3237
  136OSM    C4F14813   6.078   7.131   7.066 -0.5888 -0.1794  0.2272
  136OSM    H4F14814   5.983   7.178   7.031 -1.2137 -1.0789  0.6748
  136OSM    H4G14815   6.150   7.215   7.074  1.2777 -1.6339 -0.5511
  136OSM    C5F14816   6.048   7.053   7.195 -0.5414  0.2053 -0.4866
  136OSM    H5F14817   6.143   7.011   7.233 -0.9636 -0.7904 -0.5108
  136OSM    H5G14818   5.976   6.971   7.175  1.1936 -1.5610  0.2149
  136OSM    C6F14819   5.994   7.143   7.307  0.2019 -0.3896 -0.5354
  136OSM    H6F14820   5.910   7.202   7.265  0.7831  0.8597  0.0097
  136OSM    H6G14821   6.067   7.220   7.340  1.2375 -0.3389 -2.7532
  136OSM    C7F14822   5.934   7.065   7.423  0.2208  0.2610  0.0576
  136OSM    H7F14823   5.838   7.019   7.391 -0.7783  3.5031 -2.0203
  136OSM    H7G14824   5.922   7.136   7.508 -0.0752  1.3686 -0.8907
  136OSM    C8F14825   6.029   6.961   7.480 -0.4612 -0.2651  0.9071
  136OSM    H8F14826   6.113   7.028   7.505 -0.7599  0.8978 -1.0203
  136OSM    H8G14827   6.067   6.877   7.418 -0.1082  0.4383  0.1461
  136OSM    C9F14828   5.977   6.909   7.609  0.1508  0.0188  0.1684
  136OSM    H9F14829   5.899   6.835   7.588 -2.4282  2.6591 -0.2632
  136OSM   C10F14830   5.997   6.955   7.737 -0.2971 -0.1063  0.5191
  136OSM   H10F14831   5.941   6.902   7.815 -1.0541 -0.4215 -0.2185
  136OSM   C11F14832   6.092   7.058   7.780  0.1906 -0.6126  0.9495
  136OSM   H11F14833   6.032   7.143   7.819  1.6575  2.9491 -3.5560
  136OSM   H11G14834   6.150   7.111   7.701 -2.7241  0.1496 -0.8252
  136OSM   C12F14835   6.176   7.018   7.899 -0.0397  0.3042 -0.0562
  136OSM   H12F14836   6.109   6.988   7.982 -1.8538  1.7304 -0.9441
  136OSM   H12G14837   6.235   7.102   7.941 -1.5150  1.1164  0.4820
  136OSM   C13F14838   6.280   6.910   7.880  0.4633 -0.6512  0.1539
  136OSM   H13F14839   6.328   6.941   7.785 -1.4711  0.3487 -0.5593
  136OSM   H13G14840   6.227   6.813   7.869 -1.5559  0.3883  0.2669
  136OSM   C14F14841   6.386   6.905   7.994  0.0233 -0.3287 -0.1540
  136OSM   H14F14842   6.430   7.007   7.999 -0.4785 -0.1094 -0.1291
  136OSM   H14G14843   6.472   6.839   7.966 -0.8743 -2.4422  1.7807
  136OSM   C15F14844   6.338   6.859   8.134  0.2980 -0.3522 -0.1508
  136OSM   H15F14845   6.271   6.769   8.133 -1.7361  1.0721  0.4267
  136OSM   H15G14846   6.269   6.943   8.160  0.0660 -0.3730 -0.6797
  136OSM   C16F14847   6.450   6.839   8.234  0.1034 -0.1327  0.1104
  136OSM   H16F14848   6.525   6.920   8.224 -0.1695 -0.0011 -1.0873
  136OSM   H16G14849   6.505   6.746   8.206  1.1758  0.3283  0.6415
  136OSM   C17F14850   6.411   6.831   8.374 -0.3965  0.1672 -0.3458
  136OSM   H17F14851   6.342   6.911   8.409 -0.1705 -0.1728  0.9418
  136OSM   H17G14852   6.504   6.850   8.433  0.1572 -0.8941 -0.8323
  136OSM   C18F14853   6.361   6.687   8.405 -0.2842  0.1995 -0.4291
  136OSM   H18F14854   6.278   6.659   8.338 -1.5523 -2.9210  2.1840
  136OSM   H18G14855   6.327   6.686   8.511  1.5713  0.5699  0.2156
  136OSM   H18H14856   6.440   6.610   8.393 -1.2029 -1.7139  3.8124
  137OSM      N14857   4.283   0.390   6.486 -0.0419  0.0946 -0.1761
  137OSM    C1514858   4.333   0.449   6.609 -0.1027 -0.1849 -0.7251
  137OSM   H15A14859   4.334   0.557   6.617  0.4714 -0.1856 -0.7081
  137OSM   H15B14860   4.437   0.424   6.623 -0.1519  0.0745  0.1181
  137OSM   H15C14861   4.277   0.424   6.698  1.6557  3.3234  1.5704
  137OSM    C1414862   4.144   0.432   6.466 -0.4867  0.0001  0.3393
  137OSM   H14A14863   4.078   0.377   6.531  1.2349 -0.8661  1.4348
  137OSM   H14B14864   4.115   0.412   6.364 -3.2809  4.4880 -0.0380
  137OSM   H14C14865   4.136   0.539   6.482  0.8100 -0.1460  2.2362
  137OSM    C1314866   4.366   0.450   6.379 -0.4967 -0.6964  0.2980
  137OSM   H13A14867   4.339   0.405   6.285 -0.1972 -1.4053  0.5405
  137OSM   H13B14868   4.462   0.400   6.385  0.1989 -0.0085 -3.0907
  137OSM   H13C14869   4.382   0.556   6.379 -0.7268 -0.6604  0.0725
  137OSM    C1214870   4.301   0.239   6.491 -0.1606  0.8741  0.0165
  137OSM   H12A14871   4.406   0.215   6.486 -0.0592  1.4792 -1.1015
  137OSM   H12B14872   4.270   0.200   6.395  1.1423 -1.1732  0.3482
  137OSM    C1114873   4.233   0.163   6.604 -0.3667  0.2701  0.3952
  137OSM   H11A14874   4.278   0.200   6.698 -1.9088  2.6066  0.2968
  137OSM   H11B14875   4.240   0.052   6.594  0.9261  0.2871  0.9551
  137OSM      P14876   3.991   0.131   6.493 -0.1876  0.1823  0.0850
  137OSM    O1314877   3.883   0.233   6.458 -0.0853  0.5616 -0.3382
  137OSM    O1414878   4.063   0.073   6.375  0.0229  0.1401  0.0830
  137OSM    O1114879   3.934   0.006   6.565  0.3075  0.0581  0.3389
  137OSM    O1214880   4.091   0.203   6.599 -0.2648 -0.4074 -0.0813
  137OSM    C1S14881   3.934  -0.010   6.707  0.2687  0.1115  0.0673
  137OSM    H1S14882   4.023   0.038   6.754 -0.7134  1.6903  0.4233
  137OSM    H1T14883   3.931  -0.120   6.719  1.0229  0.0158 -0.5652
  137OSM     NF14884   3.834   0.032   6.913 -0.3647  0.4302 -0.5435
  137OSM    HNF14885   3.817  -0.053   6.963 -0.6758  0.2530 -0.9444
  137OSM    C2S14886   3.807   0.038   6.776 -0.2727  0.1256 -0.0247
  137OSM    H2S14887   3.795   0.145   6.749  3.1289  0.5324 -0.4094
  137OSM    C3S14888   3.682  -0.036   6.727 -0.0397  0.1464  0.5141
  137OSM    H3S14889   3.706  -0.144   6.738  2.7302  0.8195  2.0718
  137OSM     O314890   3.654  -0.019   6.588 -0.0518 -0.0467 -0.4377
  137OSM    HO314891   3.734   0.024   6.556  1.3844  0.2669  3.1152
  137OSM    C4S14892   3.567  -0.007   6.808  0.6950 -1.2925  0.2392
  137OSM    H4S14893   3.550  -0.082   6.887 -1.5098 -2.5789 -1.3435
  137OSM    C5S14894   3.488   0.097   6.797 -0.0182  0.4090 -0.0234
  137OSM    H5S14895   3.506   0.168   6.715  1.3841 -0.4332 -0.4688
  137OSM    C6S14896   3.369   0.114   6.885 -0.4626 -0.7138 -0.1504
  137OSM    H6S14897   3.278   0.078   6.832  0.1461  0.0715 -1.7882
  137OSM    H6T14898   3.361   0.225   6.893  0.1917 -0.6127 -0.7766
  137OSM    C7S14899   3.381   0.067   7.030 -0.7389  0.1127  0.3018
  137OSM    H7S14900   3.421  -0.036   7.042  0.2227  0.7339  3.0551
  137OSM    H7T14901   3.279   0.064   7.075 -0.9325 -0.0746 -0.1428
  137OSM    C8S14902   3.469   0.168   7.107  0.0611 -0.3972 -0.3622
  137OSM    H8S14903   3.434   0.272   7.092  2.1676  0.0913 -2.4522
  137OSM    H8T14904   3.569   0.176   7.060 -0.6629  1.5978 -1.7034
  137OSM    C9S14905   3.473   0.130   7.256 -0.4276  0.0706  0.6909
  137OSM    H9S14906   3.493   0.021   7.266  1.7548  0.5090  1.6750
  137OSM    H9T14907   3.376   0.153   7.305  0.0874  2.7745  0.6058
  137OSM   C10S14908   3.592   0.200   7.322  0.4664 -0.1598 -0.8278
  137OSM   H10S14909   3.568   0.308   7.322  0.4286  0.0210  3.4272
  137OSM   H10T14910   3.683   0.203   7.259  2.3936 -1.5830  1.6791
  137OSM   C11S14911   3.637   0.151   7.461 -0.3415 -0.0705  0.0559
  137OSM   H11S14912   3.739   0.191   7.482 -0.6911  0.5369  0.6065
  137OSM   H11T14913   3.660   0.042   7.451  2.4390  0.5395 -1.4126
  137OSM   C12S14914   3.537   0.180   7.563  0.5361  0.4265  0.7868
  137OSM   H12S14915   3.433   0.155   7.534  1.8302 -2.2049 -2.2375
  137OSM   H12T14916   3.538   0.289   7.583  0.5322  1.0231 -2.0763
  137OSM   C13S14917   3.562   0.093   7.692 -0.2876 -0.1456  0.7878
  137OSM   H13S14918   3.670   0.087   7.719 -0.4789  1.4462  2.0274
  137OSM   H13T14919   3.538  -0.013   7.671  0.0626 -0.0369 -0.2385
  137OSM   C14S14920   3.475   0.129   7.814  0.0654  0.1460 -0.2255
  137OSM   H14S14921   3.371   0.119   7.776 -0.0869 -0.2271  0.2828
  137OSM   H14T14922   3.485   0.236   7.843  1.5206  0.4330 -1.6374
  137OSM   C15S14923   3.486   0.032   7.928  0.5832  0.6115  0.1435
  137OSM   H15S14924   3.593   0.011   7.949  0.7188  0.2477 -0.8780
  137OSM   H15T14925   3.431  -0.063   7.908  1.4545  0.6244 -2.5999
  137OSM   C16S14926   3.426   0.082   8.057  0.2603 -0.4049  0.5623
  137OSM   H16S14927   3.324   0.116   8.029  0.1574 -1.6503 -0.6539
  137OSM   H16T14928   3.485   0.172   8.086 -0.2891  1.0017 -2.3019
  137OSM   C17S14929   3.412  -0.014   8.173  0.7614  0.4814 -0.2142
  137OSM   H17S14930   3.509  -0.051   8.213  0.9247 -0.0391 -1.0493
  137OSM   H17T14931   3.360  -0.105   8.135  1.0861  0.5619 -0.8807
  137OSM   C18S14932   3.320   0.043   8.281  0.0576  0.5103  0.5144
  137OSM   H18S14933   3.300  -0.037   8.355 -0.4880 -1.6457 -1.8280
  137OSM   H18T14934   3.226   0.069   8.228  1.7915  0.0041 -3.1360
  137OSM   H18U14935   3.371   0.128   8.332 -0.6300  1.8018 -0.8737
  137OSM    C1F14936   3.901   0.128   6.980  0.1195  0.2490  0.1636
  137OSM     OF14937   3.918   0.247   6.939  0.0857 -0.1514 -0.4881
  137OSM    C2F14938   3.935   0.082   7.118 -0.8640  0.0960 -0.5080
  137OSM    H2F14939   3.998  -0.007   7.096 -0.5792  0.4871 -1.3016
  137OSM    H2G14940   3.842   0.051   7.171 -0.8661 -0.7401 -0.9870
  137OSM    C3F14941   4.015   0.189   7.194  0.2392 -0.3132 -0.6285
  137OSM    H3F14942   3.948   0.269   7.231 -2.2089 -1.5150 -2.2173
  137OSM    H3G14943   4.094   0.233   7.130  3.0744 -1.8540  1.5249
  137OSM    C4F14944   4.080   0.135   7.326 -0.2894 -0.2485  1.2377
  137OSM    H4F14945   4.149   0.051   7.303 -0.3437  0.1024 -0.2932
  137OSM    H4G14946   4.005   0.088   7.393 -0.1253  1.9476  3.1000
  137OSM    C5F14947   4.170   0.230   7.404  0.6560  0.9964 -0.5208
  137OSM    H5F14948   4.102   0.303   7.454  1.0349  2.1101 -1.5905
  137OSM    H5G14949   4.231   0.273   7.322 -0.8934  1.9524 -1.2207
  137OSM    C6F14950   4.260   0.163   7.507 -0.2496 -0.6327 -0.3607
  137OSM    H6F14951   4.311   0.235   7.574 -2.3837  0.2403  0.3889
  137OSM    H6G14952   4.337   0.098   7.460  0.2682 -0.8401  0.7404
  137OSM    C7F14953   4.180   0.062   7.595 -0.4491 -0.1921  0.2499
  137OSM    H7F14954   4.262   0.016   7.654  2.4668  1.0801 -2.5187
  137OSM    H7G14955   4.137  -0.014   7.527  0.1757  0.6587 -1.1452
  137OSM    C8F14956   4.069   0.121   7.678  0.2027 -0.0027 -0.4470
  137OSM    H8F14957   4.026   0.050   7.752  0.1931  1.7588  1.3343
  137OSM    H8G14958   3.988   0.149   7.607 -0.1069  0.8721  0.2236
  137OSM    C9F14959   4.112   0.256   7.744 -0.5376  0.0525  0.1631
  137OSM    H9F14960   4.128   0.341   7.675  0.0049  0.3080  0.5977
  137OSM   C10F14961   4.126   0.273   7.870  0.4465 -0.5870 -0.2514
  137OSM   H10F14962   4.158   0.368   7.914  0.2261 -0.8697  0.5290
  137OSM   C11F14963   4.100   0.176   7.983 -0.0455  0.0594 -0.1185
  137OSM   H11F14964   4.181   0.191   8.058  0.4449  1.3168 -0.8678
  137OSM   H11G14965   4.124   0.076   7.941  3.6376  0.1155  1.4081
  137OSM   C12F14966   3.963   0.189   8.052  0.0451  0.6851  0.1176
  137OSM   H12F14967   3.888   0.149   7.981 -1.0238  1.1465  0.9540
  137OSM   H12G14968   3.940   0.293   8.082  0.1185  0.7514 -0.0612
  137OSM   C13F14969   3.955   0.108   8.184  0.0883 -0.3040 -0.0114
  137OSM   H13F14970   4.035   0.124   8.259 -2.7774 -1.0751  3.5066
  137OSM   H13G14971   3.939   0.000   8.160 -2.7792 -0.0865  0.5782
  137OSM   C14F14972   3.827   0.145   8.257  0.8781 -0.1655  0.9763
  137OSM   H14F14973   3.750   0.104   8.187  0.3784 -0.1520  1.5087
  137OSM   H14G14974   3.828   0.256   8.262  0.7263 -0.0700 -0.5029
  137OSM   C15F14975   3.815   0.085   8.395  0.6330  0.0754  0.0985
  137OSM   H15F14976   3.884   0.130   8.469  0.6973  1.4146 -0.7422
  137OSM   H15G14977   3.856  -0.017   8.383 -0.0106  0.0959 -3.1531
  137OSM   C16F14978   3.673   0.068   8.454 -0.3569 -0.1877 -0.1922
  137OSM   H16F14979   3.614   0.004   8.384 -0.0235 -1.1669  0.4107
  137OSM   H16G14980   3.625   0.168   8.454  1.1486  0.5703  1.0809
  137OSM   C17F14981   3.666   0.008   8.598 -0.0052  0.4592  0.7630
  137OSM   H17F14982   3.564   0.004   8.644 -0.0121 -3.9067  0.7483
  137OSM   H17G14983   3.729   0.080   8.656  0.5715  1.4193 -0.9848
  137OSM   C18F14984   3.730  -0.128   8.612  0.2363  0.5595  0.0789
  137OSM   H18F14985   3.831  -0.136   8.566  0.8635 -1.4840  1.6942
  137OSM   H18G14986   3.655  -0.193   8.563  1.9875 -1.0932 -0.5222
  137OSM   H18H14987   3.746  -0.136   8.721 -0.6792  0.0173  0.1824
  138OSM      N14988   3.486   2.000   6.030  0.1875  0.1465  0.7909
  138OSM    C1514989   3.607   2.011   5.946 -0.6864  0.1436 -0.0467
  138OSM   H15A14990   3.701   1.999   5.997  1.2205 -2.0400 -3.6550
  138OSM   H15B14991   3.617   2.103   5.891 -0.3887 -0.0242 -0.2803
  138OSM   H15C14992   3.610   1.927   5.877  2.1006 -0.8267  1.1133
  138OSM    C1414993   3.363   1.988   5.939 -0.7129 -0.2164  0.2828
  138OSM   H14A14994   3.366   1.903   5.872  0.8202 -0.9341  1.2097
  138OSM   H14B14995   3.368   2.074   5.873 -0.8043  0.1917  0.8051
  138OSM   H14C14996   3.271   2.001   5.993 -0.3889  1.1599  0.5606
  138OSM    C1314997   3.495   1.868   6.096  0.1948  0.6420 -0.4683
  138OSM   H13A14998   3.511   1.784   6.031 -2.1308 -0.1841 -0.0814
  138OSM   H13B14999   3.396   1.853   6.138 -0.9683  0.3429 -3.1207
  138OSM   H13C15000   3.568   1.854   6.174  1.1694  0.7018 -1.3603
  138OSM    C1215001   3.479   2.108   6.129 -0.2164  0.8005  0.7172
  138OSM   H12A15002   3.572   2.115   6.183 -0.2910  0.2829  0.9128
  138OSM   H12B15003   3.400   2.086   6.200 -1.5112 -3.2032 -1.6955
  138OSM    C1115004   3.444   2.248   6.075 -0.0726 -0.1145  1.4206
  138OSM   H11A15005   3.515   2.271   5.993  0.1192 -0.5528  1.4594
  138OSM   H11B15006   3.468   2.324   6.152  1.6001 -0.5327  1.3424
  138OSM      P15007   3.179   2.279   6.088 -0.2307  0.1189 -0.1421
  138OSM    O1315008   3.161   2.421   6.124  0.6190  0.1726  0.2741
  138OSM    O1415009   3.068   2.228   6.005  0.1057  0.2002 -0.4522
  138OSM    O1115010   3.196   2.183   6.215 -0.0122 -0.5805 -0.4550
  138OSM    O1215011   3.311   2.257   6.016 -0.9413  0.1100 -0.9175
  138OSM    C1S15012   3.188   2.233   6.350 -0.6672 -0.0430 -0.6209
  138OSM    H1S15013   3.184   2.344   6.350  0.4156  0.0082 -0.1447
  138OSM    H1T15014   3.282   2.201   6.400 -0.3683 -2.1105 -2.3658
  138OSM     NF15015   3.058   2.202   6.563 -0.3248 -0.3592  0.0848
  138OSM    HNF15016   3.107   2.139   6.623  1.2181  1.4925  0.9252
  138OSM    C2S15017   3.071   2.161   6.425  0.3003 -0.2852  0.4840
  138OSM    H2S15018   2.980   2.194   6.370  0.0692 -0.9569  0.4505
  138OSM    C3S15019   3.089   2.005   6.415  0.2367  0.2844 -0.3574
  138OSM    H3S15020   3.183   1.989   6.473 -0.3020  1.9621  1.0845
  138OSM     O315021   3.112   1.948   6.280 -0.2865  0.0212  0.0558
  138OSM    HO315022   3.156   2.025   6.242 -0.9511  0.4829  0.2121
  138OSM    C4S15023   2.976   1.925   6.478  0.0438 -0.0251 -0.2999
  138OSM    H4S15024   2.874   1.949   6.443 -0.3125 -0.2478  0.5720
  138OSM    C5S15025   2.983   1.831   6.579 -0.3149  0.2076 -0.1527
  138OSM    H5S15026   3.081   1.802   6.620 -0.4136  1.3815  0.9720
  138OSM    C6S15027   2.861   1.768   6.634 -0.6576 -0.1508 -0.0438
  138OSM    H6S15028   2.867   1.657   6.638 -3.1501 -0.3179  0.7502
  138OSM    H6T15029   2.765   1.807   6.593 -2.1245 -0.8615  2.4816
  138OSM    C7S15030   2.857   1.819   6.776  0.0995 -0.0808 -0.5454
  138OSM    H7S15031   2.946   1.799   6.838 -0.7635 -3.0305 -0.1103
  138OSM    H7T15032   2.775   1.763   6.826 -0.1687  0.3964 -0.4354
  138OSM    C8S15033   2.837   1.968   6.788 -0.4957 -0.2757  0.2321
  138OSM    H8S15034   2.780   2.011   6.703 -0.0887  0.7155  0.4503
  138OSM    H8T15035   2.934   2.021   6.781 -0.5689  0.1666  1.9489
  138OSM    C9S15036   2.777   2.012   6.918  0.1847 -0.3553 -0.7469
  138OSM    H9S15037   2.667   1.996   6.912 -0.3061  2.7316 -2.3389
  138OSM    H9T15038   2.803   2.120   6.911  0.4935 -0.4510 -1.0410
  138OSM   C10S15039   2.845   1.960   7.048 -0.1854  0.2198 -0.0823
  138OSM   H10S15040   2.952   1.986   7.028  0.2907 -1.5254  0.0277
  138OSM   H10T15041   2.850   1.849   7.053  4.6861  0.2484  1.0074
  138OSM   C11S15042   2.786   2.016   7.182  0.5951 -0.0871  0.1090
  138OSM   H11S15043   2.681   1.982   7.200  0.4862  0.2635  0.1423
  138OSM   H11T15044   2.771   2.124   7.163 -0.6629 -0.0208  1.2951
  138OSM   C12S15045   2.881   1.988   7.299 -0.6077 -0.7307 -0.1818
  138OSM   H12S15046   2.981   2.035   7.288 -0.5561 -0.7212  0.2955
  138OSM   H12T15047   2.902   1.879   7.307  3.0338 -0.3565 -2.4215
  138OSM   C13S15048   2.831   2.043   7.434  0.4281  0.5430 -0.9014
  138OSM   H13S15049   2.741   1.984   7.465  1.4867 -0.9509 -0.5448
  138OSM   H13T15050   2.804   2.150   7.428  1.4511  0.9392  0.7305
  138OSM   C14S15051   2.944   2.034   7.537 -0.5701  0.0554  0.4231
  138OSM   H14S15052   3.016   2.115   7.513 -1.6548  0.3059 -2.2672
  138OSM   H14T15053   3.003   1.940   7.534  0.0814  0.4798 -0.3340
  138OSM   C15S15054   2.897   2.069   7.683  0.1192 -1.0830  0.5752
  138OSM   H15S15055   2.813   2.000   7.706  0.2960 -1.1757  0.9363
  138OSM   H15T15056   2.852   2.171   7.681  0.9876 -0.6779  1.3792
  138OSM   C16S15057   3.017   2.070   7.785  0.0960 -0.1018 -0.1915
  138OSM   H16S15058   3.084   2.152   7.752  0.8447 -0.6646 -0.1095
  138OSM   H16T15059   3.075   1.975   7.773  1.3052  0.4170  1.3101
  138OSM   C17S15060   2.970   2.114   7.922  0.3172  0.4674 -0.1013
  138OSM   H17S15061   2.874   2.170   7.915  1.1768  1.9584 -0.2830
  138OSM   H17T15062   3.039   2.193   7.958 -1.1607  0.8816  2.0816
  138OSM   C18S15063   2.960   2.015   8.034 -0.0649 -0.6474 -0.5325
  138OSM   H18S15064   3.061   2.011   8.080 -0.1637  1.0266 -0.0940
  138OSM   H18T15065   2.935   1.912   8.002  1.3680 -1.5598  1.1368
  138OSM   H18U15066   2.880   2.049   8.103 -0.5826 -1.2191 -0.8498
  138OSM    C1F15067   3.002   2.313   6.603 -0.4753 -0.2820 -0.7955
  138OSM     OF15068   2.935   2.383   6.527  0.9845 -0.6269 -0.3261
  138OSM    C2F15069   3.012   2.344   6.744 -0.1037  0.3319  0.0080
  138OSM    H2F15070   3.120   2.354   6.768 -0.7801  0.9700  3.2490
  138OSM    H2G15071   2.977   2.256   6.802 -1.2914 -0.5329 -1.9197
  138OSM    C3F15072   2.957   2.487   6.770  0.0881  0.2385  0.5037
  138OSM    H3F15073   2.848   2.495   6.749  0.4975  2.2973 -1.1772
  138OSM    H3G15074   3.019   2.558   6.711  3.6145 -2.5129  0.5527
  138OSM    C4F15075   2.982   2.527   6.916  0.7565  0.2861 -0.1714
  138OSM    H4F15076   2.972   2.637   6.928  0.3045  0.1272  1.1127
  138OSM    H4G15077   3.087   2.507   6.946 -0.2679 -2.4831  2.0028
  138OSM    C5F15078   2.890   2.456   7.019 -0.0949 -0.1321 -0.6177
  138OSM    H5F15079   2.909   2.347   7.015  0.7801 -0.0118 -0.0562
  138OSM    H5G15080   2.784   2.487   7.006  0.1311  0.5799 -0.8307
  138OSM    C6F15081   2.927   2.508   7.165 -0.5841  0.3376  0.6033
  138OSM    H6F15082   2.914   2.618   7.175  4.8610  1.4955 -1.5306
  138OSM    H6G15083   3.035   2.485   7.181 -0.2691  0.8772 -0.6179
  138OSM    C7F15084   2.856   2.435   7.279  1.0024 -0.1210  0.1189
  138OSM    H7F15085   2.835   2.328   7.255  0.3335 -0.1477  0.8065
  138OSM    H7G15086   2.755   2.478   7.292  1.3806  0.8616 -0.1555
  138OSM    C8F15087   2.931   2.447   7.415  0.1838 -0.6001 -0.4996
  138OSM    H8F15088   3.033   2.403   7.405 -0.8143 -2.6822 -2.5493
  138OSM    H8G15089   2.865   2.396   7.489 -0.4418  0.4816 -0.2908
  138OSM    C9F15090   2.931   2.592   7.464  0.4362 -0.1599 -0.4179
  138OSM    H9F15091   2.996   2.668   7.418  2.3592 -1.1580  0.5340
  138OSM   C10F15092   2.886   2.636   7.585 -0.3291  0.0196  0.2186
  138OSM   H10F15093   2.888   2.745   7.604 -1.1218 -0.2187  1.7506
  138OSM   C11F15094   2.824   2.568   7.701 -0.1665 -0.3841  0.7198
  138OSM   H11F15095   2.812   2.464   7.666  0.4147  0.3537 -1.8535
  138OSM   H11G15096   2.728   2.622   7.718 -1.2792 -2.0193 -0.0570
  138OSM   C12F15097   2.907   2.580   7.829  0.9893 -0.2830 -0.0849
  138OSM   H12F15098   2.846   2.544   7.914 -0.5906 -1.3429 -1.6020
  138OSM   H12G15099   2.929   2.685   7.858 -0.6766 -1.2584  6.1554
  138OSM   C13F15100   3.041   2.511   7.820 -0.1935 -0.6612  0.1412
  138OSM   H13F15101   3.106   2.544   7.736  0.9523 -1.1905  0.7868
  138OSM   H13G15102   3.019   2.403   7.802  0.8281 -1.0541  1.0726
  138OSM   C14F15103   3.117   2.523   7.956 -0.4759 -0.0047  0.1057
  138OSM   H14F15104   3.132   2.632   7.971 -0.3541  0.2540 -1.6509
  138OSM   H14G15105   3.216   2.474   7.952 -0.8371 -0.9235  1.7861
  138OSM   C15F15106   3.049   2.460   8.080 -0.4212 -0.2207 -0.5144
  138OSM   H15F15107   2.991   2.370   8.050  0.1203 -2.1590  3.5128
  138OSM   H15G15108   2.966   2.523   8.117 -0.6750 -0.6772 -0.2975
  138OSM   C16F15109   3.139   2.412   8.197  0.4912  0.0958  0.1964
  138OSM   H16F15110   3.075   2.426   8.287  0.3489 -0.7395  0.2379
  138OSM   H16G15111   3.224   2.482   8.211  2.8757 -2.8937  1.7366
  138OSM   C17F15112   3.188   2.269   8.172 -0.8000 -0.1498 -0.3886
  138OSM   H17F15113   3.243   2.278   8.076  1.0072  0.6981  0.6725
  138OSM   H17G15114   3.100   2.202   8.162 -1.1339  0.2355 -0.0832
  138OSM   C18F15115   3.271   2.218   8.290 -0.3147  0.7837 -0.1727
  138OSM   H18F15116   3.375   2.257   8.282  0.3909 -1.0389 -0.1998
  138OSM   H18G15117   3.280   2.108   8.301 -0.8166  0.7918  0.3640
  138OSM   H18H15118   3.233   2.263   8.385  1.3806 -0.5377  1.2126
  139OSM      N15119   0.761   3.833   6.027  0.2137  0.5965  0.8502
  139OSM    C1515120   0.843   3.846   5.902 -0.2552 -1.3092  0.5555
  139OSM   H15A15121   0.935   3.791   5.891  1.0288  0.4522  1.7523
  139OSM   H15B15122   0.893   3.942   5.898  0.6457 -1.8136 -1.6784
  139OSM   H15C15123   0.796   3.835   5.806  1.5882  1.0003 -0.7151
  139OSM    C1415124   0.679   3.953   6.050 -0.0973  0.3723  0.1220
  139OSM   H14A15125   0.614   3.950   6.137  1.1737  2.0296  1.2035
  139OSM   H14B15126   0.608   3.959   5.969 -0.0416  2.1148  0.1682
  139OSM   H14C15127   0.736   4.044   6.056  1.3285 -0.4933  0.1851
  139OSM    C1315128   0.665   3.719   6.005  0.3157  0.0834  0.6235
  139OSM   H13A15129   0.602   3.701   6.091  2.3055 -0.9003  1.9543
  139OSM   H13B15130   0.723   3.628   5.999  1.4244  0.8745 -1.0203
  139OSM   H13C15131   0.600   3.720   5.919  0.5471  0.4453  0.4537
  139OSM    C1215132   0.840   3.808   6.152  0.1840  0.2444 -0.2700
  139OSM   H12A15133   0.840   3.701   6.167  0.2638  0.1752 -0.7571
  139OSM   H12B15134   0.789   3.860   6.232 -2.4057 -0.3105 -1.4799
  139OSM    C1115135   0.991   3.851   6.158  1.0705 -0.0965 -0.1154
  139OSM   H11A15136   1.035   3.845   6.260  2.1935 -1.3511 -0.6462
  139OSM   H11B15137   0.992   3.960   6.139  1.4702 -0.3590 -1.7822
  139OSM      P15138   1.095   3.625   6.066 -0.0922  0.1100 -0.2477
  139OSM    O1315139   0.979   3.548   6.022 -0.0395 -0.2460  0.2208
  139OSM    O1415140   1.224   3.584   6.008  0.5388 -0.6495 -0.1000
  139OSM    O1115141   1.097   3.620   6.225  0.0993  0.6104  0.0454
  139OSM    O1215142   1.073   3.783   6.061  0.0938 -0.1689  1.0004
  139OSM    C1S15143   1.214   3.674   6.290  0.3772 -0.9900  0.3546
  139OSM    H1S15144   1.237   3.770   6.240  0.6741 -0.9177  0.6245
  139OSM    H1T15145   1.302   3.607   6.281  1.1179  0.1290 -1.3439
  139OSM     NF15146   1.298   3.790   6.490 -0.0026 -0.5755 -0.1279
  139OSM    HNF15147   1.356   3.753   6.561  1.2547  0.9915 -0.2696
  139OSM    C2S15148   1.192   3.706   6.439 -0.0313 -0.4080 -0.3202
  139OSM    H2S15149   1.101   3.767   6.455  0.4671 -0.0327  1.3927
  139OSM    C3S15150   1.179   3.576   6.519  0.0630  0.2229 -0.1601
  139OSM    H3S15151   1.270   3.514   6.504 -0.6507 -0.4126 -2.2009
  139OSM     O315152   1.079   3.491   6.466 -0.0586  0.6964 -0.3894
  139OSM    HO315153   1.049   3.543   6.391 -1.1896  0.8311  0.1361
  139OSM    C4S15154   1.156   3.604   6.664 -0.3712 -1.1327  0.0845
  139OSM    H4S15155   1.240   3.577   6.730  0.7664  1.7739 -0.0398
  139OSM    C5S15156   1.044   3.656   6.714  0.4933  0.3615 -0.2311
  139OSM    H5S15157   0.961   3.683   6.647 -2.2239  3.0223  3.7031
  139OSM    C6S15158   1.014   3.700   6.861 -0.0893 -0.3616  0.3919
  139OSM    H6S15159   0.934   3.637   6.907  1.0296 -1.4567  0.8873
  139OSM    H6T15160   0.973   3.803   6.869 -3.4894 -1.7368  3.7090
  139OSM    C7S15161   1.139   3.699   6.959 -0.1824  1.1164 -0.2180
  139OSM    H7S15162   1.209   3.767   6.906 -0.2135 -0.0303 -1.8156
  139OSM    H7T15163   1.183   3.598   6.970 -2.6069 -0.1930 -1.7796
  139OSM    C8S15164   1.103   3.748   7.100 -0.6669 -0.8912  0.3524
  139OSM    H8S15165   1.020   3.687   7.142 -2.1124  1.5124  1.1508
  139OSM    H8T15166   1.063   3.851   7.103  0.8579 -0.1969 -1.3389
  139OSM    C9S15167   1.219   3.738   7.194 -0.4127  0.9820  0.6247
  139OSM    H9S15168   1.309   3.794   7.160 -0.4528  1.0776  0.6775
  139OSM    H9T15169   1.262   3.635   7.191 -0.8864  0.7876 -2.0593
  139OSM   C10S15170   1.198   3.787   7.334  0.3415 -0.2123  0.1704
  139OSM   H10S15171   1.117   3.733   7.389 -0.0821  1.9815  1.8337
  139OSM   H10T15172   1.168   3.891   7.309 -0.5919 -1.1456 -3.0191
  139OSM   C11S15173   1.329   3.785   7.409  0.1686 -0.1753 -0.0509
  139OSM   H11S15174   1.396   3.845   7.344 -2.5233  0.7398 -2.2122
  139OSM   H11T15175   1.372   3.683   7.422 -0.3293 -0.2391  1.2606
  139OSM   C12S15176   1.302   3.849   7.543 -0.0447 -0.8107 -0.6227
  139OSM   H12S15177   1.223   3.926   7.544 -0.4679 -1.2498  0.5142
  139OSM   H12T15178   1.392   3.900   7.582  0.7911 -1.6315 -1.4110
  139OSM   C13S15179   1.266   3.742   7.644 -0.5967  0.4501 -0.1044
  139OSM   H13S15180   1.357   3.690   7.680 -1.7215 -1.4990  0.0137
  139OSM   H13T15181   1.203   3.666   7.593 -1.8191  2.4634 -1.7642
  139OSM   C14S15182   1.192   3.803   7.767  0.7823  0.2947  0.7186
  139OSM   H14S15183   1.100   3.847   7.724  0.6885  0.9228  1.5467
  139OSM   H14T15184   1.263   3.873   7.815  2.2012 -1.7488  1.7888
  139OSM   C15S15185   1.139   3.712   7.879 -0.4434 -0.8761  0.2015
  139OSM   H15S15186   1.214   3.630   7.889  0.5295 -0.1509 -0.9328
  139OSM   H15T15187   1.042   3.664   7.852 -2.3983  2.9944 -0.3811
  139OSM   C16S15188   1.128   3.796   8.005  0.6647 -0.2828  0.0900
  139OSM   H16S15189   1.072   3.886   7.973  1.6540  0.2542 -0.1453
  139OSM   H16T15190   1.226   3.837   8.035  1.9603 -2.1072 -1.4218
  139OSM   C17S15191   1.067   3.721   8.123  0.2672 -1.2024  0.5966
  139OSM   H17S15192   1.140   3.653   8.171 -0.4851 -2.3137  0.2107
  139OSM   H17T15193   0.970   3.680   8.087 -1.2833  2.0668  0.7140
  139OSM   C18S15194   1.038   3.811   8.239 -0.0271 -0.3265  0.6369
  139OSM   H18S15195   1.138   3.829   8.286  0.0884  1.1055 -0.1119
  139OSM   H18T15196   0.970   3.760   8.311 -2.7459  0.1879 -1.4316
  139OSM   H18U15197   0.993   3.907   8.205  1.5490  0.2333  0.0414
  139OSM    C1F15198   1.323   3.920   6.448 -0.3136  0.5540  0.0975
  139OSM     OF15199   1.246   3.968   6.367  0.0697  0.7869  0.9301
  139OSM    C2F15200   1.437   3.986   6.508  0.4365 -1.0273 -0.2416
  139OSM    H2F15201   1.484   4.045   6.426 -0.4702  1.3100  0.8178
  139OSM    H2G15202   1.512   3.911   6.541  2.1437  1.0421  0.8707
  139OSM    C3F15203   1.395   4.092   6.614  0.0034 -0.2149 -0.0277
  139OSM    H3F15204   1.320   4.159   6.566 -1.6637 -2.0224 -0.0563
  139OSM    H3G15205   1.487   4.152   6.634 -0.1704 -0.1355  0.5256
  139OSM    C4F15206   1.341   4.030   6.742  0.6254 -0.1621 -0.3876
  139OSM    H4F15207   1.408   3.947   6.776 -0.5222  0.0318  2.6525
  139OSM    H4G15208   1.243   3.980   6.728  0.9629 -1.0597  0.3277
  139OSM    C5F15209   1.333   4.128   6.853 -0.0685  0.0749  0.1303
  139OSM    H5F15210   1.291   4.219   6.806  0.3743  0.1312 -0.1713
  139OSM    H5G15211   1.435   4.152   6.892 -0.2744 -0.1565  0.8141
  139OSM    C6F15212   1.248   4.108   6.979  0.5105  0.1298  0.0353
  139OSM    H6F15213   1.271   4.022   7.046 -0.6552  0.1797  0.5247
  139OSM    H6G15214   1.144   4.088   6.943  0.5059  1.5014 -0.7601
  139OSM    C7F15215   1.238   4.232   7.063  0.4999 -0.5091 -0.4474
  139OSM    H7F15216   1.170   4.207   7.148 -0.0387  1.2219 -0.3258
  139OSM    H7G15217   1.190   4.312   7.002 -1.1503 -0.5237  0.7581
  139OSM    C8F15218   1.366   4.289   7.122  0.3632 -0.1973  0.5722
  139OSM    H8F15219   1.346   4.369   7.196  0.7068 -0.4167  0.9066
  139OSM    H8G15220   1.428   4.350   7.052  1.4759 -1.2165  0.6345
  139OSM    C9F15221   1.463   4.193   7.181  0.4636  0.2845  0.0156
  139OSM    H9F15222   1.525   4.126   7.120 -0.3854 -1.4979  1.0138
  139OSM   C10F15223   1.490   4.193   7.320  0.3355 -0.1696  0.8177
  139OSM   H10F15224   1.562   4.119   7.359  0.1540 -0.8124 -0.0295
  139OSM   C11F15225   1.435   4.284   7.425  0.6308 -1.1856 -0.5930
  139OSM   H11F15226   1.369   4.366   7.389 -1.4155 -1.9963  1.0987
  139OSM   H11G15227   1.525   4.326   7.475 -0.0414  0.8515 -0.9810
  139OSM   C12F15228   1.355   4.193   7.523  0.4298 -0.5175 -0.0756
  139OSM   H12F15229   1.413   4.111   7.571 -1.3172 -1.6020  0.2583
  139OSM   H12G15230   1.268   4.153   7.466 -1.6099  0.1847  2.3718
  139OSM   C13F15231   1.317   4.277   7.639 -0.0320 -0.7558  0.3939
  139OSM   H13F15232   1.230   4.342   7.615  0.0656 -1.1172 -1.0156
  139OSM   H13G15233   1.403   4.343   7.663 -0.3563 -0.1377 -0.1009
  139OSM   C14F15234   1.273   4.199   7.763  0.2073  0.0210  0.3824
  139OSM   H14F15235   1.339   4.112   7.785 -0.2627 -0.5525 -0.4181
  139OSM   H14G15236   1.166   4.174   7.750  0.1144  0.0433  1.0773
  139OSM   C15F15237   1.284   4.295   7.883  0.0345  0.2315 -0.5564
  139OSM   H15F15238   1.282   4.399   7.845  0.1138 -0.1564 -1.6389
  139OSM   H15G15239   1.390   4.297   7.917  2.1177 -1.0607 -5.9842
  139OSM   C16F15240   1.195   4.260   8.005 -0.4168 -0.5874 -0.1417
  139OSM   H16F15241   1.179   4.150   8.002  0.0041 -0.6608  0.1757
  139OSM   H16G15242   1.100   4.316   7.990  0.0988  0.0367 -1.2425
  139OSM   C17F15243   1.236   4.311   8.143 -0.1997  0.2471  0.5503
  139OSM   H17F15244   1.267   4.418   8.142  0.5006  0.0474  0.5495
  139OSM   H17G15245   1.319   4.250   8.184  2.2395  2.2499 -1.1410
  139OSM   C18F15246   1.121   4.304   8.246  0.0624 -0.0891  0.3358
  139OSM   H18F15247   1.025   4.352   8.216 -0.4966  0.1752  2.3963
  139OSM   H18G15248   1.140   4.354   8.344  0.9216  1.0584 -0.3785
  139OSM   H18H15249   1.093   4.200   8.270  0.2631  0.2552  2.1949
  140OSM      N15250   2.820   5.088   6.093 -0.4110  0.1341  0.2448
  140OSM    C1515251   2.709   5.172   6.033 -0.1225 -0.0570 -0.3157
  140OSM   H15A15252   2.753   5.243   5.965 -1.5335  0.5519 -0.6264
  140OSM   H15B15253   2.650   5.226   6.106  2.3777  0.0611  1.7671
  140OSM   H15C15254   2.645   5.111   5.970  0.2838 -1.8998  0.9843
  140OSM    C1415255   2.887   5.007   5.989  0.8030 -0.0342 -1.1412
  140OSM   H14A15256   2.981   4.967   6.024 -1.1203 -1.9447  2.4421
  140OSM   H14B15257   2.911   5.073   5.906  0.1571  1.1330 -0.4221
  140OSM   H14C15258   2.823   4.928   5.951 -2.0047  1.3453  0.4490
  140OSM    C1315259   2.918   5.176   6.154  0.5796  0.1774  0.1968
  140OSM   H13A15260   2.983   5.114   6.214 -1.5092 -1.6944  0.6220
  140OSM   H13B15261   2.880   5.247   6.225  1.4989  3.1402 -2.0445
  140OSM   H13C15262   2.982   5.226   6.082  1.3161  0.5595  1.0876
  140OSM    C1215263   2.751   4.993   6.193 -0.9630 -0.9588 -0.0422
  140OSM   H12A15264   2.680   4.927   6.146 -0.7922 -3.3420  2.7738
  140OSM   H12B15265   2.704   5.065   6.259  2.5015  1.2417  0.2683
  140OSM    C1115266   2.839   4.897   6.280 -0.5965 -0.6753  0.1070
  140OSM   H11A15267   2.894   4.821   6.220 -0.0243 -0.2632  0.1050
  140OSM   H11B15268   2.769   4.835   6.339  0.5887 -2.4231 -0.2611
  140OSM      P15269   2.897   5.041   6.495 -0.4003  0.1142 -0.0903
  140OSM    O1315270   2.999   5.146   6.524  0.3549 -0.0773  0.0151
  140OSM    O1415271   2.758   5.082   6.472  0.5062 -0.1270 -0.2667
  140OSM    O1115272   2.901   4.937   6.614 -0.1555  0.2773  0.1211
  140OSM    O1215273   2.940   4.959   6.364 -0.3442 -0.5269 -0.1798
  140OSM    C1S15274   3.004   4.836   6.627  0.0748  0.2304 -0.7453
  140OSM    H1S15275   3.096   4.851   6.568 -0.5614  2.1108 -1.3395
  140OSM    H1T15276   2.972   4.739   6.583  0.5773  0.2135 -1.0722
  140OSM     NF15277   3.158   4.744   6.792  0.7783 -0.0822  0.8582
  140OSM    HNF15278   3.152   4.645   6.807  0.1735 -0.6501 -2.3456
  140OSM    C2S15279   3.032   4.815   6.782 -0.3111 -0.1002 -0.2731
  140OSM    H2S15280   3.036   4.913   6.834 -1.4413  0.5625 -1.3824
  140OSM    C3S15281   2.913   4.738   6.845 -0.3613 -0.5929 -0.5172
  140OSM    H3S15282   2.890   4.643   6.792  1.5390 -2.8843  2.4400
  140OSM     O315283   2.788   4.808   6.830 -0.2786  0.0840 -0.0452
  140OSM    HO315284   2.805   4.873   6.761  0.6693 -0.1108  0.0025
  140OSM    C4S15285   2.945   4.707   6.993 -0.4675 -0.1504  0.4206
  140OSM    H4S15286   2.991   4.607   6.999  0.3370  0.0809 -1.3554
  140OSM    C5S15287   2.912   4.778   7.101 -0.2276 -0.0744 -0.3414
  140OSM    H5S15288   2.852   4.869   7.084  0.7600  0.6645  0.0055
  140OSM    C6S15289   2.947   4.748   7.251 -0.5831 -0.2108  0.4076
  140OSM    H6S15290   2.856   4.713   7.304 -0.4558  0.8875  1.4038
  140OSM    H6T15291   2.976   4.844   7.299  0.9945  0.5270 -1.8571
  140OSM    C7S15292   3.068   4.661   7.285  0.2006 -0.3942 -0.2682
  140OSM    H7S15293   3.164   4.695   7.242  0.2391 -0.3501 -0.1474
  140OSM    H7T15294   3.040   4.565   7.236  0.8725 -0.7001 -0.0712
  140OSM    C8S15295   3.085   4.631   7.439  0.4335  0.6045  0.6049
  140OSM    H8S15296   2.992   4.626   7.499  0.2515 -0.8048  0.2505
  140OSM    H8T15297   3.151   4.710   7.482  1.9609 -0.5168  0.4266
  140OSM    C9S15298   3.154   4.492   7.454  0.3178  0.3080 -0.3190
  140OSM    H9S15299   3.262   4.502   7.430  0.5968  0.5340  0.9859
  140OSM    H9T15300   3.097   4.420   7.391  3.3073 -0.2314 -2.6710
  140OSM   C10S15301   3.161   4.447   7.599 -0.2718  0.8206  0.2804
  140OSM   H10S15302   3.226   4.357   7.606  2.1533  2.3392 -1.1136
  140OSM   H10T15303   3.057   4.424   7.630  0.4760 -3.9991 -0.0202
  140OSM   C11S15304   3.223   4.537   7.699 -0.4288 -0.6688  0.7583
  140OSM   H11S15305   3.164   4.630   7.711  0.5759  0.3111 -1.4082
  140OSM   H11T15306   3.318   4.564   7.648 -1.7923  0.6070 -1.2306
  140OSM   C12S15307   3.243   4.469   7.833 -0.3365  0.6611  0.1942
  140OSM   H12S15308   3.291   4.370   7.820 -1.4855 -0.0372  1.0179
  140OSM   H12T15309   3.139   4.448   7.868 -0.2141 -0.3863 -0.0400
  140OSM   C13S15310   3.320   4.558   7.929 -0.2889 -0.0880 -0.8544
  140OSM   H13S15311   3.286   4.664   7.921 -0.3542 -0.1064 -0.8197
  140OSM   H13T15312   3.419   4.570   7.879 -0.4452 -0.2251 -1.1983
  140OSM   C14S15313   3.344   4.506   8.070  0.0474 -0.0918  0.6270
  140OSM   H14S15314   3.385   4.403   8.067  1.2505  0.3581  0.9832
  140OSM   H14T15315   3.255   4.496   8.136  1.2058 -2.1063  2.0207
  140OSM   C15S15316   3.431   4.603   8.146  0.4762  0.2791 -0.5507
  140OSM   H15S15317   3.416   4.703   8.101  3.4750  0.8357 -0.5252
  140OSM   H15T15318   3.533   4.564   8.123 -0.4529 -2.5591 -0.2015
  140OSM   C16S15319   3.417   4.600   8.301 -0.0697  0.4916  0.0242
  140OSM   H16S15320   3.417   4.495   8.339 -0.9304  0.3629 -0.3053
  140OSM   H16T15321   3.313   4.631   8.323  0.1465  1.8372 -0.7553
  140OSM   C17S15322   3.507   4.700   8.383 -0.4018  0.5476  0.1869
  140OSM   H17S15323   3.485   4.695   8.491  1.2960 -0.0421  0.5265
  140OSM   H17T15324   3.487   4.804   8.349 -4.1172  0.6617  2.1609
  140OSM   C18S15325   3.662   4.657   8.386  0.4630  0.3085  0.7113
  140OSM   H18S15326   3.683   4.550   8.407 -0.8438  0.0944  1.0000
  140OSM   H18T15327   3.721   4.715   8.459  0.7511 -0.4857  1.1155
  140OSM   H18U15328   3.694   4.684   8.283 -2.1880 -0.3419 -0.3622
  140OSM    C1F15329   3.269   4.799   6.768 -0.1850 -0.3159 -0.1310
  140OSM     OF15330   3.268   4.913   6.733 -0.4223 -0.7565  0.6035
  140OSM    C2F15331   3.390   4.713   6.769 -0.2072 -0.5774 -0.1645
  140OSM    H2F15332   3.421   4.684   6.666 -0.3084 -2.6980  0.3531
  140OSM    H2G15333   3.357   4.618   6.817 -0.5667 -0.6159 -0.4780
  140OSM    C3F15334   3.510   4.765   6.846  0.4392 -0.2056 -0.4544
  140OSM    H3F15335   3.474   4.783   6.950 -1.7588 -2.7658 -0.6636
  140OSM    H3G15336   3.553   4.846   6.783  0.3209 -1.4142 -2.1491
  140OSM    C4F15337   3.632   4.669   6.856  0.1988 -0.2643 -0.3028
  140OSM    H4F15338   3.654   4.631   6.754  1.3280  1.2027 -0.6569
  140OSM    H4G15339   3.586   4.595   6.924 -2.8204  1.1407 -0.6597
  140OSM    C5F15340   3.751   4.730   6.913 -0.8547  0.5523 -0.3457
  140OSM    H5F15341   3.729   4.775   7.012  0.0326  2.1395 -0.8172
  140OSM    H5G15342   3.781   4.818   6.852  4.1240  0.7498  1.8263
  140OSM    C6F15343   3.868   4.628   6.909  0.3535  0.1851  0.2004
  140OSM    H6F15344   3.960   4.682   6.940  1.8679 -1.7861 -0.6476
  140OSM    H6G15345   3.884   4.591   6.805  2.6676 -1.9956  1.2116
  140OSM    C7F15346   3.848   4.505   7.007 -0.8185  0.9491 -0.6373
  140OSM    H7F15347   3.761   4.443   6.976 -0.3600 -0.5568  0.9349
  140OSM    H7G15348   3.823   4.548   7.106 -1.0080 -2.6168  1.0111
  140OSM    C8F15349   3.978   4.426   7.035 -0.2879  0.4620  0.5219
  140OSM    H8F15350   3.995   4.353   6.953 -1.8285  0.9932 -0.3155
  140OSM    H8G15351   3.974   4.357   7.122  2.0428 -0.4453 -0.0344
  140OSM    C9F15352   4.105   4.501   7.048  0.0543  0.4151  0.0899
  140OSM    H9F15353   4.156   4.513   6.951 -0.4754  2.6648  0.0356
  140OSM   C10F15354   4.148   4.561   7.161  0.4114 -0.7500 -0.3694
  140OSM   H10F15355   4.234   4.628   7.156 -0.6250  0.5897 -0.7374
  140OSM   C11F15356   4.085   4.556   7.303  0.8648 -0.6341  0.9868
  140OSM   H11F15357   3.977   4.529   7.302  0.3336  1.2919 -0.8921
  140OSM   H11G15358   4.096   4.662   7.335 -0.0898  0.5452 -2.2078
  140OSM   C12F15359   4.168   4.463   7.392 -0.2502 -0.0253  0.0866
  140OSM   H12F15360   4.278   4.463   7.378 -0.3179 -0.4634 -0.4981
  140OSM   H12G15361   4.142   4.358   7.369 -1.5115  0.5646 -1.4086
  140OSM   C13F15362   4.133   4.494   7.537 -0.7679  0.4076  0.2555
  140OSM   H13F15363   4.032   4.453   7.560 -1.9325  1.8012 -1.9991
  140OSM   H13G15364   4.144   4.599   7.570  0.6095  0.0611  0.9966
  140OSM   C14F15365   4.239   4.415   7.624 -0.2610 -0.2895 -0.3683
  140OSM   H14F15366   4.342   4.442   7.590 -0.7154 -0.0962 -1.6298
  140OSM   H14G15367   4.213   4.307   7.621 -1.8757  0.0766 -0.2761
  140OSM   C15F15368   4.231   4.446   7.772  0.3522 -0.4939  0.4113
  140OSM   H15F15369   4.127   4.433   7.809 -0.2506 -0.8479 -1.2776
  140OSM   H15G15370   4.257   4.552   7.788 -0.8251  0.2945 -2.3095
  140OSM   C16F15371   4.330   4.357   7.847 -0.0089  0.2186 -0.1636
  140OSM   H16F15372   4.425   4.347   7.790  0.3154 -1.4602  0.6225
  140OSM   H16G15373   4.287   4.254   7.847 -0.3291  0.3484 -0.6506
  140OSM   C17F15374   4.359   4.394   7.991 -0.1774 -0.1385 -0.0218
  140OSM   H17F15375   4.265   4.405   8.049 -1.6979 -3.7348 -1.5120
  140OSM   H17G15376   4.410   4.493   7.986 -1.4009  0.6585  2.0698
  140OSM   C18F15377   4.450   4.289   8.058  0.3794  0.0319 -0.4033
  140OSM   H18F15378   4.408   4.187   8.043 -0.2734  0.4864 -1.9288
  140OSM   H18G15379   4.453   4.320   8.165 -2.1213 -0.5330 -0.1085
  140OSM   H18H15380   4.556   4.293   8.025  1.1081  1.7573  1.8692
  141OSM      N15381   3.261   6.295   6.004  0.4558  0.1926  0.0293
  141OSM    C1515382   3.339   6.170   6.027  0.2489  0.1327  0.0940
  141OSM   H15A15383   3.321   6.095   5.951  3.2017 -0.0519 -0.5539
  141OSM   H15B15384   3.300   6.123   6.116 -0.1062  0.1793 -0.0394
  141OSM   H15C15385   3.446   6.183   6.041  0.5186 -2.7499  1.3125
  141OSM    C1415386   3.347   6.409   5.944  0.2063 -0.1886 -0.4038
  141OSM   H14A15387   3.288   6.496   5.917  2.0825  0.7898 -1.5563
  141OSM   H14B15388   3.401   6.367   5.861 -0.2457  0.3085 -0.9591
  141OSM   H14C15389   3.417   6.431   6.023  1.4241 -1.9301 -0.9359
  141OSM    C1315390   3.151   6.256   5.908 -0.1698 -0.4702 -0.1489
  141OSM   H13A15391   3.188   6.216   5.815  3.8689  1.0685  0.5912
  141OSM   H13B15392   3.085   6.340   5.891 -2.1662 -1.7405  0.9699
  141OSM   H13C15393   3.084   6.187   5.957 -2.2201  1.2207 -0.4325
  141OSM    C1215394   3.202   6.358   6.127 -0.5042 -0.1161  0.2269
  141OSM   H12A15395   3.160   6.450   6.090  2.1163  0.9221 -0.3677
  141OSM   H12B15396   3.273   6.383   6.204 -0.7056  0.8160  0.1261
  141OSM    C1115397   3.093   6.275   6.197  1.0462  0.0978  0.1110
  141OSM   H11A15398   3.081   6.316   6.299 -2.7618 -3.7907  1.4814
  141OSM   H11B15399   3.129   6.171   6.205  3.2287  0.6904 -1.0782
  141OSM      P15400   2.828   6.334   6.169 -0.3992  0.0855 -0.0101
  141OSM    O1315401   2.855   6.473   6.206  0.2447 -0.3750 -0.1092
  141OSM    O1415402   2.730   6.312   6.060 -0.2157  0.0323 -0.1376
  141OSM    O1115403   2.807   6.236   6.292  0.3879 -0.9240  0.0710
  141OSM    O1215404   2.969   6.274   6.117 -0.0551  0.7068 -0.1681
  141OSM    C1S15405   2.867   6.245   6.417  0.3869 -0.7442  0.1629
  141OSM    H1S15406   2.943   6.324   6.434 -0.2736 -0.3267  1.2721
  141OSM    H1T15407   2.916   6.147   6.438 -2.2443 -1.7804  2.1301
  141OSM     NF15408   2.831   6.305   6.665 -0.4176 -0.3621 -0.4009
  141OSM    HNF15409   2.814   6.245   6.743  0.0733  2.0876  1.7368
  141OSM    C2S15410   2.767   6.269   6.537 -0.3823 -0.6700 -0.0059
  141OSM    H2S15411   2.698   6.351   6.510  0.0959  0.1967  1.2572
  141OSM    C3S15412   2.675   6.147   6.550 -0.4052 -0.2335 -0.5799
  141OSM    H3S15413   2.729   6.061   6.596  0.0286  0.4508  0.2085
  141OSM     O315414   2.636   6.093   6.426  0.6215 -0.1142  0.2334
  141OSM    HO315415   2.683   6.143   6.359  0.6714  0.5626  0.7585
  141OSM    C4S15416   2.567   6.175   6.644  0.6313  0.2292 -0.2617
  141OSM    H4S15417   2.586   6.156   6.751  0.7506  0.6164 -0.2144
  141OSM    C5S15418   2.444   6.221   6.615 -0.5649 -0.9651 -0.2302
  141OSM    H5S15419   2.419   6.244   6.511 -0.6370 -1.2819 -0.2827
  141OSM    C6S15420   2.332   6.240   6.714  0.0864  0.3576 -0.3081
  141OSM    H6S15421   2.240   6.192   6.675  0.3681 -1.4516  1.1198
  141OSM    H6T15422   2.310   6.348   6.729 -0.3458  0.4121 -1.2717
  141OSM    C7S15423   2.350   6.192   6.856 -0.6550 -0.5293  0.3348
  141OSM    H7S15424   2.433   6.249   6.903 -1.2353 -1.6093  2.8156
  141OSM    H7T15425   2.371   6.083   6.867 -0.7366 -0.3001  3.7436
  141OSM    C8S15426   2.234   6.226   6.950 -0.0217 -0.2484 -0.0081
  141OSM    H8S15427   2.140   6.191   6.902 -0.6204  0.9757  0.2307
  141OSM    H8T15428   2.216   6.335   6.959 -0.8766 -0.3270 -0.5954
  141OSM    C9S15429   2.247   6.144   7.083  0.3873 -0.4787  0.2606
  141OSM    H9S15430   2.277   6.038   7.070 -0.2459 -1.1203  3.3215
  141OSM    H9T15431   2.154   6.128   7.141 -1.2255  1.8068 -1.5069
  141OSM   C10S15432   2.335   6.213   7.187  0.4023  0.5030  0.4223
  141OSM   H10S15433   2.296   6.314   7.212  1.1308  1.0685 -0.6098
  141OSM   H10T15434   2.435   6.226   7.139  1.6124  0.0262  2.7005
  141OSM   C11S15435   2.361   6.139   7.321 -0.7718  0.4835  0.9283
  141OSM   H11S15436   2.469   6.126   7.345 -0.3335  0.0976 -1.0677
  141OSM   H11T15437   2.326   6.034   7.319 -0.7957  0.4922  0.8797
  141OSM   C12S15438   2.288   6.206   7.434  0.1552 -0.5594 -0.6927
  141OSM   H12S15439   2.181   6.196   7.405  0.2803  0.1551 -1.4398
  141OSM   H12T15440   2.311   6.314   7.446  1.2011 -0.1625 -4.7710
  141OSM   C13S15441   2.307   6.123   7.556  0.0254 -0.3221  0.2369
  141OSM   H13S15442   2.412   6.096   7.578 -0.1786  0.0674  1.8886
  141OSM   H13T15443   2.245   6.031   7.557  0.0222 -0.3686  2.4551
  141OSM   C14S15444   2.265   6.190   7.692 -0.4661  0.0646 -0.7502
  141OSM   H14S15445   2.154   6.191   7.682 -0.4273 -0.3239 -1.2811
  141OSM   H14T15446   2.307   6.292   7.700 -0.1343 -0.1630  0.7059
  141OSM   C15S15447   2.299   6.101   7.814  0.0410  0.1182  0.4445
  141OSM   H15S15448   2.409   6.094   7.817 -0.1093 -3.3269  2.8346
  141OSM   H15T15449   2.250   6.004   7.789 -0.6286  0.9560 -1.7776
  141OSM   C16S15450   2.249   6.162   7.939  0.4391 -0.0020  0.2512
  141OSM   H16S15451   2.152   6.217   7.932  0.7578  0.6321  0.7193
  141OSM   H16T15452   2.312   6.248   7.971  1.2998 -0.0203 -1.2886
  141OSM   C17S15453   2.245   6.065   8.058  0.7158  0.4504 -0.2064
  141OSM   H17S15454   2.229   6.122   8.152  0.2514  0.4834 -0.3059
  141OSM   H17T15455   2.349   6.029   8.076  0.5671  0.8214  1.5371
  141OSM   C18S15456   2.147   5.951   8.044  0.6108  0.0790 -0.5056
  141OSM   H18S15457   2.190   5.870   7.981 -2.3633 -1.3268 -0.8891
  141OSM   H18T15458   2.051   5.984   7.998  1.3970  0.0205 -2.2946
  141OSM   H18U15459   2.120   5.919   8.147  1.8598 -2.5795 -0.9109
  141OSM    C1F15460   2.900   6.420   6.697  0.0625  0.2068 -0.6569
  141OSM     OF15461   2.900   6.510   6.617 -0.3411 -0.9068  0.8318
  141OSM    C2F15462   2.976   6.428   6.825 -0.3877 -0.3724 -0.6957
  141OSM    H2F15463   3.071   6.373   6.809  0.7085 -0.0833  3.4575
  141OSM    H2G15464   2.930   6.383   6.916 -0.2762  1.5560  0.3609
  141OSM    C3F15465   3.007   6.572   6.873 -0.1651 -0.1483  0.0917
  141OSM    H3F15466   2.913   6.625   6.899  2.1965  4.9214 -0.6305
  141OSM    H3G15467   3.054   6.634   6.794 -1.9781 -1.3647 -2.0767
  141OSM    C4F15468   3.105   6.579   6.998 -0.6816  0.3674  1.0543
  141OSM    H4F15469   3.148   6.682   6.997  1.1045 -0.3001  2.2767
  141OSM    H4G15470   3.196   6.517   6.983 -2.7193 -2.1898 -2.0268
  141OSM    C5F15471   3.032   6.538   7.123  0.8085  0.0552  0.0809
  141OSM    H5F15472   3.017   6.429   7.113  0.8801  0.0193  0.3694
  141OSM    H5G15473   2.935   6.584   7.153  0.1551  0.0173 -1.8474
  141OSM    C6F15474   3.117   6.541   7.252  0.4919 -0.2193  0.3265
  141OSM    H6F15475   3.142   6.646   7.279  0.2638 -0.8463  3.2525
  141OSM    H6G15476   3.209   6.491   7.215  0.7268  1.1724 -1.0798
  141OSM    C7F15477   3.043   6.480   7.379  0.3919 -0.3975 -0.2125
  141OSM    H7F15478   2.987   6.396   7.332 -2.8604  1.6200 -0.2997
  141OSM    H7G15479   2.959   6.538   7.424 -0.9876 -1.9828 -0.6607
  141OSM    C8F15480   3.128   6.415   7.486 -0.3863  0.2374 -0.1086
  141OSM    H8F15481   3.173   6.321   7.448 -1.2999 -0.7033  1.0682
  141OSM    H8G15482   3.055   6.370   7.557 -2.1753  2.7393 -0.2456
  141OSM    C9F15483   3.231   6.508   7.535  0.4752 -0.2701  0.1899
  141OSM    H9F15484   3.311   6.535   7.465  0.8386  0.8253  1.0052
  141OSM   C10F15485   3.222   6.577   7.650 -0.2795  0.4848 -0.0753
  141OSM   H10F15486   3.304   6.639   7.687 -0.4310 -0.2814  1.6075
  141OSM   C11F15487   3.111   6.563   7.754 -0.6826  0.8395  0.6335
  141OSM   H11F15488   3.053   6.470   7.735 -1.7667  1.7535 -0.6887
  141OSM   H11G15489   3.045   6.652   7.747 -0.4918  0.8723 -1.2984
  141OSM   C12F15490   3.168   6.539   7.895  0.4640 -0.1083  0.2485
  141OSM   H12F15491   3.249   6.612   7.918  1.5518 -1.3511  0.4743
  141OSM   H12G15492   3.198   6.432   7.894  2.0900  0.2066  3.1013
  141OSM   C13F15493   3.064   6.554   8.015 -0.6014 -0.2284 -0.3245
  141OSM   H13F15494   3.126   6.558   8.108 -2.7503  0.8968  1.1498
  141OSM   H13G15495   2.981   6.483   8.032  1.3254 -1.9683  2.8784
  141OSM   C14F15496   2.989   6.686   8.020  0.3671 -0.1619  0.1360
  141OSM   H14F15497   2.898   6.682   7.957  0.2212  0.7734  0.2777
  141OSM   H14G15498   3.044   6.773   7.980 -1.3280 -0.3447 -2.8846
  141OSM   C15F15499   2.928   6.721   8.158 -0.1595  0.1686  0.7509
  141OSM   H15F15500   2.883   6.822   8.156 -1.0736 -0.2433 -0.4459
  141OSM   H15G15501   3.018   6.727   8.223 -0.8364 -1.0276  1.8363
  141OSM   C16F15502   2.821   6.620   8.197 -0.9592 -0.0419 -0.7560
  141OSM   H16F15503   2.866   6.519   8.196  0.6411  0.6007  0.8038
  141OSM   H16G15504   2.749   6.621   8.112  0.0714 -1.5099 -1.6984
  141OSM   C17F15505   2.751   6.666   8.329 -0.2272 -0.2587  0.1738
  141OSM   H17F15506   2.736   6.776   8.324  1.5772 -0.0182 -0.7461
  141OSM   H17G15507   2.833   6.657   8.403 -0.7228 -1.8374  0.5671
  141OSM   C18F15508   2.626   6.600   8.379 -0.5450 -0.5746  0.7513
  141OSM   H18F15509   2.544   6.627   8.308 -0.4317 -0.2017  0.7584
  141OSM   H18G15510   2.602   6.640   8.480  0.5059  2.2035 -0.0105
  141OSM   H18H15511   2.641   6.490   8.378 -0.8432 -0.6160  0.6497
  142OSM      N15512   3.068   1.406   5.937 -0.1601  0.1479  0.2102
  142OSM    C1515513   3.199   1.465   5.890  0.4843 -0.4595 -0.1291
  142OSM   H15A15514   3.262   1.396   5.837  0.0305 -1.4518  0.5985
  142OSM   H15B15515   3.255   1.504   5.974 -1.2956  0.1324  0.8424
  142OSM   H15C15516   3.179   1.552   5.829  2.2228  1.3990  1.7640
  142OSM    C1415517   3.000   1.354   5.813 -0.1479 -0.2280 -0.1920
  142OSM   H14A15518   2.920   1.287   5.840 -0.1928 -1.4201 -2.8727
  142OSM   H14B15519   3.070   1.297   5.753 -0.6045 -0.2815 -0.6886
  142OSM   H14C15520   2.963   1.429   5.745 -0.2015  0.3309  0.4541
  142OSM    C1315521   3.111   1.294   6.018  0.6999 -0.2237 -0.1239
  142OSM   H13A15522   3.190   1.234   5.975 -0.0328 -1.2929 -0.0020
  142OSM   H13B15523   3.026   1.233   6.045  1.9287 -1.9297  0.0572
  142OSM   H13C15524   3.152   1.331   6.111 -0.2767 -0.7674  0.5423
  142OSM    C1215525   2.980   1.500   6.016  0.3044  1.0070  0.0317
  142OSM   H12A15526   2.963   1.590   5.958  1.1738  1.0828 -0.1238
  142OSM   H12B15527   3.036   1.523   6.105 -0.4992 -1.7879  1.3622
  142OSM    C1115528   2.846   1.442   6.066  0.8818 -0.1619  0.2456
  142OSM   H11A15529   2.798   1.399   5.976 -0.3815  1.3744  0.1450
  142OSM   H11B15530   2.786   1.528   6.102  2.4892 -0.0887  3.0291
  142OSM      P15531   2.794   1.203   6.159  0.1336 -0.2448  0.4053
  142OSM    O1315532   2.655   1.229   6.192  0.0241 -0.1609 -0.2684
  142OSM    O1415533   2.821   1.147   6.027  0.4327 -0.5113  0.6601
  142OSM    O1115534   2.852   1.102   6.268 -0.0386 -0.2089 -0.1365
  142OSM    O1215535   2.867   1.345   6.171  0.2295  0.0840  0.2953
  142OSM    C1S15536   2.910   1.148   6.389 -0.0987 -0.1683 -0.0158
  142OSM    H1S15537   2.914   1.259   6.392  0.2642 -0.1583 -0.6391
  142OSM    H1T15538   3.017   1.117   6.386 -0.1184 -0.1774 -1.0233
  142OSM     NF15539   2.931   1.150   6.639 -0.3682 -0.2765 -0.4920
  142OSM    HNF15540   2.991   1.071   6.652 -1.5479 -1.1829 -0.4448
  142OSM    C2S15541   2.843   1.112   6.525  0.5724 -0.1087 -0.1753
  142OSM    H2S15542   2.744   1.161   6.535  0.0483 -1.3788  1.1761
  142OSM    C3S15543   2.811   0.957   6.510  0.3940 -0.0471  0.5744
  142OSM    H3S15544   2.909   0.904   6.501  0.4027 -0.1210  1.0995
  142OSM     O315545   2.736   0.912   6.401  0.1580 -0.1231 -0.4314
  142OSM    HO315546   2.732   0.988   6.343 -1.2643  0.3985  0.2858
  142OSM    C4S15547   2.741   0.908   6.628 -0.2421 -0.0181 -0.5844
  142OSM    H4S15548   2.652   0.965   6.659  0.0347 -0.1148  0.4201
  142OSM    C5S15549   2.792   0.815   6.717  1.0796  0.1566  0.1823
  142OSM    H5S15550   2.888   0.766   6.694  0.7063  0.3620 -2.0473
  142OSM    C6S15551   2.713   0.774   6.841 -0.2866  0.5894  0.2472
  142OSM    H6S15552   2.667   0.675   6.819 -1.1767  1.2646 -1.1288
  142OSM    H6T15553   2.623   0.837   6.859  0.0493  1.0906  0.1847
  142OSM    C7S15554   2.809   0.754   6.962 -0.1777 -0.3260 -0.5034
  142OSM    H7S15555   2.873   0.845   6.968  0.3344 -0.7523  0.9559
  142OSM    H7T15556   2.877   0.667   6.953  1.9029  1.1649 -0.0589
  142OSM    C8S15557   2.725   0.741   7.092 -0.9014  0.2845 -0.4085
  142OSM    H8S15558   2.659   0.652   7.089  0.2144 -0.8305  2.9210
  142OSM    H8T15559   2.665   0.833   7.106 -0.5226  0.1742  2.7666
  142OSM    C9S15560   2.807   0.718   7.222  0.0297  0.4911  0.0511
  142OSM    H9S15561   2.881   0.801   7.228 -1.0126  1.3569  1.6119
  142OSM    H9T15562   2.873   0.629   7.222 -0.8711 -0.2013 -0.4175
  142OSM   C10S15563   2.719   0.705   7.341  0.8060  0.1017 -0.2092
  142OSM   H10S15564   2.657   0.616   7.317 -0.6375  0.9618  0.1594
  142OSM   H10T15565   2.656   0.797   7.341  0.1605 -0.3047 -1.5300
  142OSM   C11S15566   2.794   0.699   7.477 -0.3201 -0.1293  0.5259
  142OSM   H11S15567   2.870   0.779   7.486  0.1772 -0.5113 -0.2056
  142OSM   H11T15568   2.839   0.598   7.484 -0.6140 -0.1792  1.9915
  142OSM   C12S15569   2.685   0.708   7.585  0.4125  0.6616 -0.0687
  142OSM   H12S15570   2.617   0.622   7.564  0.1987  0.9647 -0.6292
  142OSM   H12T15571   2.616   0.795   7.586  0.7217  0.8999  0.2613
  142OSM   C13S15572   2.747   0.698   7.720 -0.0108  0.4094  0.0011
  142OSM   H13S15573   2.802   0.793   7.734  0.9247  0.1345 -1.4921
  142OSM   H13T15574   2.824   0.618   7.727 -1.6054 -1.4482 -2.1363
  142OSM   C14S15575   2.660   0.678   7.840  0.4816  0.4326  0.5709
  142OSM   H14S15576   2.607   0.582   7.822  0.3617  0.5537  0.2708
  142OSM   H14T15577   2.582   0.756   7.846  0.7305  1.0055 -2.2819
  142OSM   C15S15578   2.739   0.668   7.974 -0.1590  0.4345 -0.0255
  142OSM   H15S15579   2.807   0.753   7.997  1.1285 -0.6044  0.1252
  142OSM   H15T15580   2.811   0.585   7.959 -0.4821  0.3019 -0.8724
  142OSM   C16S15581   2.645   0.639   8.087  0.5541  0.7606 -0.3939
  142OSM   H16S15582   2.586   0.558   8.037 -1.3227  0.2630  2.4101
  142OSM   H16T15583   2.575   0.724   8.105  1.4294  0.7582  4.0451
  142OSM   C17S15584   2.714   0.604   8.218 -0.2142 -0.4652 -0.0529
  142OSM   H17S15585   2.739   0.706   8.254  1.2647 -0.7899 -0.0889
  142OSM   H17T15586   2.806   0.547   8.194 -1.6440 -3.1366  0.4837
  142OSM   C18S15587   2.622   0.534   8.308  0.7105 -0.5193  0.2149
  142OSM   H18S15588   2.585   0.437   8.269 -1.2668 -0.2253  1.2368
  142OSM   H18T15589   2.536   0.598   8.335  1.8033  1.5633 -0.9682
  142OSM   H18U15590   2.678   0.525   8.404 -0.7861  1.6277  1.3621
  142OSM    C1F15591   2.949   1.278   6.664  0.3398 -0.2672  0.1237
  142OSM     OF15592   2.876   1.358   6.609  0.2654  0.6235  0.2273
  142OSM    C2F15593   3.063   1.321   6.757  0.5063  0.2402 -0.8696
  142OSM    H2F15594   3.142   1.351   6.685 -1.1603  1.8697 -2.0789
  142OSM    H2G15595   3.108   1.235   6.812  0.7306 -0.0529 -1.5019
  142OSM    C3F15596   3.035   1.451   6.846  0.1264  0.7539  0.7099
  142OSM    H3F15597   2.961   1.516   6.794 -0.0441  1.1542  1.4416
  142OSM    H3G15598   3.136   1.495   6.854  0.7808 -0.3340 -0.8953
  142OSM    C4F15599   2.985   1.430   6.988  0.4193  0.0789  0.2197
  142OSM    H4F15600   3.061   1.411   7.067 -1.4333 -1.0479  1.8509
  142OSM    H4G15601   2.913   1.345   6.991  1.2951 -0.6743  2.0644
  142OSM    C5F15602   2.911   1.559   7.038  0.4561 -0.8141  0.3308
  142OSM    H5F15603   2.811   1.554   6.992  1.7095 -0.1415 -2.6704
  142OSM    H5G15604   2.968   1.646   6.999 -0.4769 -0.1286  0.4855
  142OSM    C6F15605   2.892   1.564   7.195  0.3600  0.1927 -0.4412
  142OSM    H6F15606   2.845   1.471   7.232  1.7441  0.5369  2.4054
  142OSM    H6G15607   2.819   1.642   7.227  1.2133  0.4505  0.9282
  142OSM    C7F15608   3.024   1.592   7.270  0.0870 -0.3969  0.1449
  142OSM    H7F15609   3.063   1.689   7.235  1.2608 -1.1882 -0.8508
  142OSM    H7G15610   3.097   1.510   7.250  0.1742 -0.6084  1.2681
  142OSM    C8F15611   2.997   1.588   7.417  0.7569 -0.1787  0.1143
  142OSM    H8F15612   2.950   1.494   7.453 -0.1595 -0.3621 -1.4727
  142OSM    H8G15613   2.932   1.671   7.455  1.1610 -0.4187  1.3832
  142OSM    C9F15614   3.123   1.610   7.488  0.3141 -0.4312 -0.0045
  142OSM    H9F15615   3.214   1.602   7.427 -0.8204  0.1382 -1.8475
  142OSM   C10F15616   3.135   1.641   7.615 -0.2838  0.2500 -0.6986
  142OSM   H10F15617   3.236   1.647   7.659 -0.2292 -1.6285 -0.5048
  142OSM   C11F15618   3.026   1.654   7.724  0.4453 -1.0904  1.1089
  142OSM   H11F15619   2.958   1.567   7.720  0.3441 -0.9601 -0.6242
  142OSM   H11G15620   2.958   1.738   7.695  0.7415 -0.9103  0.9297
  142OSM   C12F15621   3.087   1.689   7.862  0.6436 -0.7787  0.3649
  142OSM   H12F15622   2.998   1.719   7.921 -0.9619  0.9855 -2.7331
  142OSM   H12G15623   3.162   1.771   7.866  0.7258 -0.8097 -0.2922
  142OSM   C13F15624   3.141   1.569   7.927  0.1209  0.0695  0.0270
  142OSM   H13F15625   3.231   1.541   7.867  0.2802  3.4575 -1.5783
  142OSM   H13G15626   3.077   1.478   7.918 -1.3817  0.8235  2.3144
  142OSM   C14F15627   3.159   1.585   8.079 -0.7944 -0.2371  0.6322
  142OSM   H14F15628   3.195   1.487   8.118  2.1479  0.2868 -0.5373
  142OSM   H14G15629   3.061   1.609   8.126 -0.6601 -1.4866  1.6148
  142OSM   C15F15630   3.256   1.697   8.119 -0.2512  0.2192  0.0314
  142OSM   H15F15631   3.212   1.782   8.063  2.5332  1.3586 -0.6181
  142OSM   H15G15632   3.362   1.676   8.092 -0.1394 -0.1141  0.6965
  142OSM   C16F15633   3.253   1.713   8.275  0.3570  0.2827  0.3038
  142OSM   H16F15634   3.150   1.701   8.315  0.0027  0.0093 -0.6523
  142OSM   H16G15635   3.289   1.817   8.288  0.0633  0.6015 -1.2233
  142OSM   C17F15636   3.348   1.611   8.337 -0.3529  0.3612  0.1135
  142OSM   H17F15637   3.448   1.630   8.292  0.1662 -0.6097  0.8276
  142OSM   H17G15638   3.324   1.504   8.316  4.9900 -1.0338 -0.5767
  142OSM   C18F15639   3.356   1.619   8.489 -0.4715  0.7107  0.7485
  142OSM   H18F15640   3.266   1.568   8.530  0.1310  0.3386  1.6333
  142OSM   H18G15641   3.357   1.727   8.519  0.9064  1.3963 -1.5665
  142OSM   H18H15642   3.459   1.581   8.505 -0.7479 -1.0739 -1.2862
  143OSM      N15643   5.050   4.083   6.102  0.1698  0.0087 -0.4387
  143OSM    C1515644   5.169   4.144   6.166  0.5607 -0.3773  0.3159
  143OSM   H15A15645   5.229   4.066   6.210  2.6122  1.9656  1.8945
  143OSM   H15B15646   5.134   4.209   6.245  2.7578  0.4735  0.6521
  143OSM   H15C15647   5.230   4.203   6.099  0.0947  0.5869  0.7205
  143OSM    C1415648   4.955   4.186   6.069  0.1522  0.7304 -0.5971
  143OSM   H14A15649   4.934   4.244   6.158 -1.6162  1.0338 -1.1809
  143OSM   H14B15650   4.864   4.139   6.035  0.2316 -0.6081  0.9142
  143OSM   H14C15651   4.986   4.248   5.987  0.7302  1.6044  0.2684
  143OSM    C1315652   5.096   4.036   5.969  0.2688  0.5130  0.3958
  143OSM   H13A15653   5.136   4.122   5.917  3.0675 -0.2913  1.0561
  143OSM   H13B15654   5.014   3.991   5.914  0.6459  1.4559 -0.9953
  143OSM   H13C15655   5.179   3.968   5.974  1.7095  2.2299  1.0326
  143OSM    C1215656   5.009   3.967   6.195  0.0343 -0.3329 -0.2807
  143OSM   H12A15657   4.924   3.920   6.148  1.2911  1.0105 -4.3847
  143OSM   H12B15658   4.981   4.014   6.288 -1.2506  0.3724 -0.9965
  143OSM    C1115659   5.110   3.846   6.224  0.6067  0.1108  0.0941
  143OSM   H11A15660   5.105   3.771   6.142  3.8401 -0.4136  0.2333
  143OSM   H11B15661   5.065   3.799   6.314 -0.8077 -0.0919 -0.6854
  143OSM      P15662   5.338   3.751   6.274 -0.3340  0.2907 -0.3525
  143OSM    O1315663   5.358   3.677   6.145 -0.5077 -0.1569  0.5581
  143OSM    O1415664   5.460   3.791   6.342  0.9098 -0.0188 -0.1533
  143OSM    O1115665   5.255   3.662   6.369 -0.5027 -0.8036  0.0677
  143OSM    O1215666   5.246   3.880   6.252  0.3507 -0.5241  0.3909
  143OSM    C1S15667   5.324   3.584   6.471  0.4829  0.5583  0.4815
  143OSM    H1S15668   5.372   3.645   6.550  1.9116  0.2647 -0.1219
  143OSM    H1T15669   5.396   3.514   6.422 -2.2117 -0.3945 -2.5415
  143OSM     NF15670   5.265   3.456   6.667  0.6080 -0.0110  0.3694
  143OSM    HNF15671   5.275   3.357   6.669  1.7048  0.0594 -0.2929
  143OSM    C2S15672   5.208   3.508   6.547 -0.9800  0.7900  0.2819
  143OSM    H2S15673   5.128   3.581   6.572 -1.0798  0.4656  0.9307
  143OSM    C3S15674   5.136   3.404   6.453  0.0798  0.1356  0.2798
  143OSM    H3S15675   5.206   3.318   6.443 -2.0749 -2.0126  2.2865
  143OSM     O315676   5.083   3.449   6.328  0.7403 -0.1738 -0.5792
  143OSM    HO315677   5.118   3.537   6.308  0.7810 -0.0742 -0.0874
  143OSM    C4S15678   5.019   3.360   6.530  0.3473 -0.3069 -0.5650
  143OSM    H4S15679   5.040   3.278   6.601  0.9501 -0.7029 -1.1880
  143OSM    C5S15680   4.891   3.412   6.541 -0.5055  0.3822  0.6122
  143OSM    H5S15681   4.853   3.491   6.474 -0.6366  0.0803  0.3303
  143OSM    C6S15682   4.779   3.357   6.628  0.2265  0.5707  0.6167
  143OSM    H6S15683   4.800   3.253   6.660 -1.9228 -0.3038 -0.6042
  143OSM    H6T15684   4.685   3.342   6.570 -0.2339  0.4588  1.3802
  143OSM    C7S15685   4.751   3.428   6.762 -0.0356  0.1982  0.1132
  143OSM    H7S15686   4.680   3.375   6.830 -0.5987  0.6730 -0.0962
  143OSM    H7T15687   4.712   3.530   6.741  0.3361  0.4496  0.6138
  143OSM    C8S15688   4.873   3.466   6.848 -0.0050 -0.5784  0.0708
  143OSM    H8S15689   4.942   3.533   6.793 -0.5821  0.4273  0.5418
  143OSM    H8T15690   4.935   3.378   6.875 -0.2254 -0.9820 -0.7218
  143OSM    C9S15691   4.829   3.536   6.981 -0.3082 -0.8854  0.0884
  143OSM    H9S15692   4.751   3.466   7.019 -1.7435  0.0312 -1.0469
  143OSM    H9T15693   4.779   3.630   6.947 -1.4943 -0.2423  3.2441
  143OSM   C10S15694   4.937   3.556   7.093 -0.0244 -0.3184  0.0982
  143OSM   H10S15695   5.015   3.631   7.066  2.3156 -2.2498  1.1483
  143OSM   H10T15696   4.988   3.459   7.111  0.1886  0.3456  3.9022
  143OSM   C11S15697   4.875   3.621   7.216 -0.6545  0.5546  0.3438
  143OSM   H11S15698   4.781   3.567   7.239 -1.9757  1.3228 -2.6715
  143OSM   H11T15699   4.853   3.730   7.207  1.4728  1.1707  1.7744
  143OSM   C12S15700   4.962   3.599   7.342  0.1786  0.2456  0.0533
  143OSM   H12S15701   5.064   3.636   7.317  0.7792 -0.1171  1.7997
  143OSM   H12T15702   4.968   3.489   7.361  0.4814  0.1688 -0.4578
  143OSM   C13S15703   4.908   3.674   7.467 -0.1773  0.1420  0.1302
  143OSM   H13S15704   4.805   3.632   7.470 -0.6439  1.1078 -1.2860
  143OSM   H13T15705   4.899   3.780   7.436  0.7121 -0.5541 -2.8473
  143OSM   C14S15706   4.999   3.663   7.590 -0.3428  0.0263 -0.0289
  143OSM   H14S15707   5.106   3.672   7.562  0.0779  2.0364  1.9589
  143OSM   H14T15708   4.983   3.556   7.617 -1.4511 -0.4990 -2.4581
  143OSM   C15S15709   4.959   3.758   7.697  0.0704 -0.0453  0.7055
  143OSM   H15S15710   4.848   3.750   7.707  0.0016 -1.2284 -0.7262
  143OSM   H15T15711   4.978   3.862   7.660 -0.5077 -0.3194 -0.4342
  143OSM   C16S15712   5.031   3.732   7.829 -0.4352 -0.5988 -0.1679
  143OSM   H16S15713   5.141   3.717   7.825 -0.3825 -0.0629 -1.2974
  143OSM   H16T15714   4.990   3.636   7.865 -1.2420 -0.9136 -1.8352
  143OSM   C17S15715   5.001   3.835   7.945 -0.1206 -0.0946  0.4184
  143OSM   H17S15716   4.896   3.871   7.935 -0.0623  0.3617  1.2787
  143OSM   H17T15717   5.075   3.917   7.929  2.9383 -2.6842  0.3481
  143OSM   C18S15718   5.037   3.770   8.080  0.0819 -0.0434  0.0026
  143OSM   H18S15719   5.133   3.714   8.073 -0.4926 -1.2844  1.3899
  143OSM   H18T15720   4.953   3.702   8.107  0.8123 -1.7550 -1.7976
  143OSM   H18U15721   5.041   3.845   8.162  0.1100  0.3410 -0.3494
  143OSM    C1F15722   5.291   3.511   6.783 -0.9363 -0.1053 -0.3684
  143OSM     OF15723   5.311   3.635   6.799  0.1729  0.5747  0.7675
  143OSM    C2F15724   5.296   3.425   6.902 -0.5533  0.2598  0.7389
  143OSM    H2F15725   5.347   3.327   6.890 -0.0909  0.5547  0.3271
  143OSM    H2G15726   5.192   3.391   6.925  0.2559 -1.0376  2.8276
  143OSM    C3F15727   5.361   3.492   7.019  0.7739  0.6207 -0.2825
  143OSM    H3F15728   5.320   3.593   7.039 -0.5498 -0.1477  1.0106
  143OSM    H3G15729   5.466   3.524   6.999  0.8909  0.9618  0.8113
  143OSM    C4F15730   5.358   3.411   7.148 -0.4669 -0.5816 -0.0149
  143OSM    H4F15731   5.405   3.310   7.138 -0.6050 -0.6353 -0.1183
  143OSM    H4G15732   5.251   3.397   7.174 -0.6866 -1.6304 -1.3404
  143OSM    C5F15733   5.426   3.486   7.269 -1.0350  0.0632 -0.1448
  143OSM    H5F15734   5.399   3.593   7.277  1.8494  0.8860 -0.5146
  143OSM    H5G15735   5.535   3.480   7.252 -0.9629  0.9246  0.0060
  143OSM    C6F15736   5.386   3.406   7.397 -0.1646  0.1582 -0.3280
  143OSM    H6F15737   5.402   3.296   7.389 -0.5874 -0.1598  2.4005
  143OSM    H6G15738   5.282   3.434   7.423  0.0100 -0.3731  1.0005
  143OSM    C7F15739   5.473   3.450   7.516 -0.7371 -0.6513  0.5740
  143OSM    H7F15740   5.491   3.560   7.526 -0.9885 -0.4824 -0.6602
  143OSM    H7G15741   5.574   3.414   7.484 -0.7901  0.1563 -0.5737
  143OSM    C8F15742   5.434   3.377   7.648 -0.3061 -0.3101  0.0464
  143OSM    H8F15743   5.518   3.364   7.719  1.2003 -1.4352 -1.8404
  143OSM    H8G15744   5.420   3.268   7.633  3.1554 -1.2951  2.5698
  143OSM    C9F15745   5.313   3.446   7.711  0.2055 -0.3324 -0.0848
  143OSM    H9F15746   5.269   3.532   7.658 -1.2092 -2.4134 -2.5113
  143OSM   C10F15747   5.272   3.412   7.836  0.0353 -0.3521  0.4510
  143OSM   H10F15748   5.176   3.459   7.862  0.2745  1.1589 -1.1963
  143OSM   C11F15749   5.330   3.297   7.918 -0.4641 -0.1052  0.3410
  143OSM   H11F15750   5.416   3.250   7.868 -0.3828  1.4156 -1.0065
  143OSM   H11G15751   5.257   3.215   7.936  0.5576 -1.2246 -0.5256
  143OSM   C12F15752   5.381   3.343   8.051 -0.8876  0.1805 -0.1086
  143OSM   H12F15753   5.451   3.429   8.042 -1.5886  0.8460  0.6493
  143OSM   H12G15754   5.443   3.261   8.092 -0.4053  1.5090  1.9835
  143OSM   C13F15755   5.279   3.391   8.161  0.2916 -0.8343  0.0080
  143OSM   H13F15756   5.214   3.468   8.114 -0.7325 -3.0508 -2.4503
  143OSM   H13G15757   5.325   3.414   8.259 -0.2338  0.2550  0.0144
  143OSM   C14F15758   5.173   3.271   8.186 -0.1128 -0.7917 -0.2372
  143OSM   H14F15759   5.242   3.185   8.195 -1.0394 -1.5720 -0.3960
  143OSM   H14G15760   5.108   3.265   8.096 -0.7188 -2.0013  0.2518
  143OSM   C15F15761   5.083   3.308   8.314 -0.6504  0.8332  0.2366
  143OSM   H15F15762   5.161   3.346   8.383 -1.2755  0.4033  1.1949
  143OSM   H15G15763   5.041   3.224   8.373 -0.0907  1.5751  1.7411
  143OSM   C16F15764   4.984   3.415   8.284 -0.4821  0.1459  0.0296
  143OSM   H16F15765   5.031   3.503   8.236  0.3571  0.9447  2.2075
  143OSM   H16G15766   4.957   3.460   8.382 -0.5657 -1.8344  0.9878
  143OSM   C17F15767   4.856   3.350   8.223 -0.1426 -0.9522  0.4357
  143OSM   H17F15768   4.806   3.306   8.312 -0.9030  0.4388  0.7230
  143OSM   H17G15769   4.879   3.280   8.140 -0.0036  0.1206 -0.4412
  143OSM   C18F15770   4.758   3.457   8.156 -0.2860  0.4674 -0.1954
  143OSM   H18F15771   4.665   3.395   8.156 -0.8301  1.2622  0.7495
  143OSM   H18G15772   4.793   3.494   8.057  0.3907  0.8566  0.1826
  143OSM   H18H15773   4.741   3.536   8.232 -0.4451 -2.3794  2.9731
  144OSM      N15774   3.131   4.151   6.148  0.0488 -0.7356 -0.9590
  144OSM    C1515775   3.076   4.028   6.085 -0.3095 -0.2484  0.5267
  144OSM   H15A15776   3.008   4.056   6.005  1.0218 -0.2498 -0.6386
  144OSM   H15B15777   3.030   3.963   6.157  2.3119 -3.2581 -0.3042
  144OSM   H15C15778   3.156   3.967   6.047  0.0790  0.6655 -0.1671
  144OSM    C1415779   3.242   4.102   6.241 -0.1451 -0.0388 -0.2491
  144OSM   H14A15780   3.215   4.013   6.297  2.0815 -0.5337  0.1285
  144OSM   H14B15781   3.275   4.190   6.295 -2.5426  2.3202 -2.3799
  144OSM   H14C15782   3.328   4.062   6.188  0.2015  0.1595  0.1564
  144OSM    C1315783   3.191   4.243   6.050  0.3750  0.2044  0.2142
  144OSM   H13A15784   3.113   4.271   5.980 -1.3542  1.1361  2.3686
  144OSM   H13B15785   3.265   4.185   5.998  0.1652 -0.6490  0.8525
  144OSM   H13C15786   3.241   4.323   6.102  0.3745  0.3364  0.0121
  144OSM    C1215787   3.024   4.226   6.226  0.3943  0.7865 -0.6865
  144OSM   H12A15788   2.938   4.246   6.165 -1.1487 -0.2143  1.0649
  144OSM   H12B15789   3.066   4.316   6.267  0.4062 -0.3803  2.1090
  144OSM    C1115790   2.953   4.148   6.345 -0.4118 -0.5367 -0.3430
  144OSM   H11A15791   2.885   4.223   6.389  2.1617  2.0964 -0.5965
  144OSM   H11B15792   3.020   4.127   6.432  0.8420  2.0689 -0.5911
  144OSM      P15793   2.731   4.026   6.302 -0.2229 -0.1110  0.5878
  144OSM    O1315794   2.668   4.155   6.246 -0.1719  0.1813  0.5970
  144OSM    O1415795   2.688   3.899   6.241 -1.0358  0.4317 -0.1953
  144OSM    O1115796   2.698   4.034   6.456 -0.4740  0.2155 -0.2965
  144OSM    O1215797   2.890   4.033   6.297  0.6693  0.6261 -0.6440
  144OSM    C1S15798   2.714   3.921   6.536 -0.0952 -0.3847  0.4920
  144OSM    H1S15799   2.774   3.840   6.491  2.9993  1.7355  0.4476
  144OSM    H1T15800   2.618   3.884   6.577 -1.2216  0.7100 -1.0431
  144OSM     NF15801   2.824   3.828   6.750  0.0776  0.7296  0.1762
  144OSM    HNF15802   2.755   3.813   6.821  0.3049  0.4567  0.3448
  144OSM    C2S15803   2.815   3.947   6.660  0.2925  0.0272  0.3558
  144OSM    H2S15804   2.921   3.955   6.631  0.9174  0.8774  2.6792
  144OSM    C3S15805   2.782   4.077   6.734 -0.1527 -0.1209 -0.5465
  144OSM    H3S15806   2.674   4.079   6.759 -0.4233 -1.5754 -1.4795
  144OSM     O315807   2.794   4.188   6.649  0.1290 -0.0802 -0.3687
  144OSM    HO315808   2.767   4.157   6.562 -0.4039 -0.7525  0.0209
  144OSM    C4S15809   2.861   4.082   6.864 -0.2360  0.4894 -0.2985
  144OSM    H4S15810   2.813   4.042   6.954 -0.2762 -1.2844 -1.0749
  144OSM    C5S15811   2.987   4.127   6.886  0.5921  0.5213 -0.2165
  144OSM    H5S15812   3.046   4.159   6.799 -2.8092 -0.1234 -2.9873
  144OSM    C6S15813   3.052   4.126   7.025 -0.1721 -0.7888 -0.1075
  144OSM    H6S15814   3.043   4.230   7.062 -1.7179 -0.3778 -1.5358
  144OSM    H6T15815   3.161   4.114   7.010  0.3175  3.0072 -0.4167
  144OSM    C7S15816   2.998   4.025   7.132  0.6699  0.7685  0.4040
  144OSM    H7S15817   3.017   3.923   7.092 -0.5135  0.5045  0.4794
  144OSM    H7T15818   2.888   4.035   7.143  0.4903  1.0905 -1.3871
  144OSM    C8S15819   3.056   4.036   7.271 -0.6228  1.0000  0.1580
  144OSM    H8S15820   3.114   4.131   7.267 -1.3060  1.4417  0.6277
  144OSM    H8T15821   3.126   3.951   7.286  1.2628  2.5795  0.7452
  144OSM    C9S15822   2.963   4.053   7.388 -0.5600 -0.5461  0.2803
  144OSM    H9S15823   2.896   3.964   7.389 -1.0017 -0.3390 -2.5248
  144OSM    H9T15824   2.901   4.143   7.373  0.1435  0.0741  0.9975
  144OSM   C10S15825   3.039   4.078   7.516  0.5621  0.8153  0.1307
  144OSM   H10S15826   3.080   4.180   7.500 -1.2439  1.4686 -0.5916
  144OSM   H10T15827   3.112   3.996   7.535  0.1041  0.5837  0.9079
  144OSM   C11S15828   2.941   4.100   7.639  0.1685  0.2599  0.7750
  144OSM   H11S15829   2.875   4.014   7.664 -0.1007 -0.3994 -1.9147
  144OSM   H11T15830   2.866   4.177   7.613  0.7826  1.1000  1.4552
  144OSM   C12S15831   3.003   4.152   7.766 -0.5207  0.4881 -0.4948
  144OSM   H12S15832   3.065   4.241   7.743 -0.2470  0.2065 -0.8659
  144OSM   H12T15833   3.082   4.081   7.796  0.1084  1.3922  0.0253
  144OSM   C13S15834   2.910   4.181   7.879 -0.3348  0.1684  0.7960
  144OSM   H13S15835   2.844   4.096   7.905 -0.0675 -0.6199 -0.9549
  144OSM   H13T15836   2.838   4.259   7.849 -1.0389 -1.0052 -0.6721
  144OSM   C14S15837   2.983   4.225   8.002 -0.8645  0.1333 -0.0159
  144OSM   H14S15838   3.077   4.279   7.977 -0.0864  0.6500  3.5608
  144OSM   H14T15839   3.020   4.140   8.063 -0.7093  0.4236  0.3004
  144OSM   C15S15840   2.894   4.305   8.097 -0.2303  0.2109 -0.2039
  144OSM   H15S15841   2.804   4.244   8.121 -0.0823  0.6880  1.7303
  144OSM   H15T15842   2.865   4.399   8.047 -0.4330  1.0759  1.4855
  144OSM   C16S15843   2.964   4.355   8.222  0.2461 -0.3959  0.3664
  144OSM   H16S15844   3.038   4.427   8.183 -2.3033  1.5703 -1.1943
  144OSM   H16T15845   3.016   4.269   8.269  0.9408 -1.7358 -2.5960
  144OSM   C17S15846   2.870   4.422   8.322 -0.1568  0.3764  0.4043
  144OSM   H17S15847   2.915   4.436   8.422  1.1925  2.4568 -0.4296
  144OSM   H17T15848   2.781   4.358   8.340  0.5318 -1.0588 -1.1102
  144OSM   C18S15849   2.819   4.554   8.271  0.5868 -0.0881  0.1346
  144OSM   H18S15850   2.907   4.609   8.232  0.5527  0.7951  1.2592
  144OSM   H18T15851   2.768   4.612   8.351  1.1098 -1.1934  1.3165
  144OSM   H18U15852   2.747   4.526   8.191 -0.2102 -1.6751  1.3300
  144OSM    C1F15853   2.879   3.707   6.703 -0.2300 -0.2820  0.2051
  144OSM     OF15854   2.947   3.704   6.604  0.0611 -0.1991 -0.1321
  144OSM    C2F15855   2.828   3.582   6.770  0.1104  0.2357 -0.4971
  144OSM    H2F15856   2.814   3.513   6.684 -0.5608 -0.0905 -0.1366
  144OSM    H2G15857   2.730   3.597   6.820  0.3601 -0.7080  0.3033
  144OSM    C3F15858   2.929   3.504   6.865  0.0656 -0.0707  0.3109
  144OSM    H3F15859   3.018   3.467   6.810 -2.5898 -2.7331 -2.6654
  144OSM    H3G15860   2.882   3.417   6.917 -1.3666 -0.5597 -1.6812
  144OSM    C4F15861   2.976   3.598   6.982 -0.5705 -0.2484 -0.2785
  144OSM    H4F15862   2.994   3.696   6.933  0.6260 -1.2658 -1.9896
  144OSM    H4G15863   3.071   3.552   7.016  1.0148  2.3601 -0.9470
  144OSM    C5F15864   2.880   3.611   7.099  0.7867  0.6369 -0.3368
  144OSM    H5F15865   2.778   3.643   7.069  0.9573  0.8138 -0.7357
  144OSM    H5G15866   2.924   3.692   7.162  0.3529 -0.8883  2.0591
  144OSM    C6F15867   2.881   3.487   7.187 -0.4117 -0.1494  0.1650
  144OSM    H6F15868   2.981   3.468   7.231 -1.2419  2.1436  3.4109
  144OSM    H6G15869   2.847   3.400   7.126  0.1568 -0.3664  0.1591
  144OSM    C7F15870   2.778   3.492   7.304  0.0635  0.4267 -1.0224
  144OSM    H7F15871   2.771   3.395   7.358 -4.1131  1.5561  0.8813
  144OSM    H7G15872   2.673   3.505   7.270  0.1552  2.2166 -0.6994
  144OSM    C8F15873   2.794   3.608   7.403 -0.2848  0.1632 -0.4861
  144OSM    H8F15874   2.714   3.592   7.478 -0.7560  1.1722 -0.7527
  144OSM    H8G15875   2.765   3.698   7.343 -0.7613  0.3491  0.0237
  144OSM    C9F15876   2.935   3.609   7.457 -0.2753 -0.1127  0.2913
  144OSM    H9F15877   3.019   3.634   7.391 -1.3215  1.5595 -0.4864
  144OSM   C10F15878   2.968   3.592   7.586  0.0400  0.1570 -0.2582
  144OSM   H10F15879   3.070   3.588   7.625 -0.5178  0.1937  1.2710
  144OSM   C11F15880   2.868   3.561   7.695 -0.5344  0.3678  0.1688
  144OSM   H11F15881   2.825   3.459   7.684 -0.7952  0.4523  0.4098
  144OSM   H11G15882   2.787   3.636   7.703 -1.6865 -0.8257 -0.0032
  144OSM   C12F15883   2.936   3.584   7.835  0.0713 -0.4546 -0.4894
  144OSM   H12F15884   3.043   3.553   7.835  0.5707  1.1910  0.4736
  144OSM   H12G15885   2.870   3.548   7.916 -0.3435  0.7666 -0.2722
  144OSM   C13F15886   2.944   3.741   7.869 -0.8624 -0.1395 -0.3370
  144OSM   H13F15887   2.855   3.799   7.837 -1.8567 -1.6671 -0.4321
  144OSM   H13G15888   3.037   3.787   7.830 -0.4768  0.2476  0.9716
  144OSM   C14F15889   2.967   3.756   8.024  0.1970 -0.4585  0.0984
  144OSM   H14F15890   3.012   3.852   8.059  0.9693 -0.0856 -1.8018
  144OSM   H14G15891   3.035   3.675   8.057  0.2822 -0.0302  1.0141
  144OSM   C15F15892   2.840   3.738   8.112 -0.2063  0.4406 -0.6559
  144OSM   H15F15893   2.885   3.745   8.213  1.5900  0.3378 -1.3975
  144OSM   H15G15894   2.786   3.641   8.103 -0.0344  0.1925  0.7428
  144OSM   C16F15895   2.726   3.830   8.087  0.2766 -0.8436 -0.0676
  144OSM   H16F15896   2.676   3.824   7.988 -0.8215 -1.5437  0.5038
  144OSM   H16G15897   2.772   3.931   8.092  1.0779 -1.1855 -0.4408
  144OSM   C17F15898   2.632   3.835   8.204  0.3208  0.7305  0.3350
  144OSM   H17F15899   2.548   3.903   8.179 -0.0234  0.9971  2.0620
  144OSM   H17G15900   2.687   3.875   8.292  1.0015  1.3303 -0.3503
  144OSM   C18F15901   2.573   3.698   8.244  0.1306  0.1815  0.5831
  144OSM   H18F15902   2.520   3.657   8.155  3.1965  1.8434 -2.2563
  144OSM   H18G15903   2.506   3.717   8.330  0.7175 -2.8861  1.8485
  144OSM   H18H15904   2.658   3.632   8.273  1.9446  0.9812 -2.4245
  145SAPE     N15905   1.078   4.358  10.584  0.2804  0.2996 -0.1031
  145SAPE   HN115906   1.118   4.268  10.550  0.2005  1.1481 -2.6302
  145SAPE   HN215907   0.977   4.358  10.606  0.5935  1.0625  1.5218
  145SAPE   HN315908   1.065   4.415  10.498 -0.8299 -0.4056 -0.4183
  145SAPE   C1215909   1.168   4.435  10.677  0.3890 -0.1898  0.1670
  145SAPE  H12A15910   1.252   4.486  10.624 -0.1810  1.0409  0.4019
  145SAPE  H12B15911   1.213   4.375  10.759  0.9140 -0.5001 -0.3434
  145SAPE   C1115912   1.084   4.551  10.743 -0.4937  0.1405 -0.1219
  145SAPE  H11A15913   1.138   4.589  10.833 -1.9769  1.7912  0.1156
  145SAPE  H11B15914   0.996   4.500  10.788  1.5375 -3.0529  0.5890
  145SAPE     P15915   1.140   4.772  10.616 -0.0362 -0.2285  0.1191
  145SAPE   O1315916   1.052   4.886  10.633  0.1242 -0.0822 -0.3933
  145SAPE   O1415917   1.269   4.770  10.692  0.3264 -0.7094  0.3903
  145SAPE   O1215918   1.055   4.640  10.642  0.0294 -0.3361  0.1790
  145SAPE   O1115919   1.178   4.766  10.456  0.5475  0.7501 -0.0596
  145SAPE    C115920   1.271   4.868  10.408  0.7367 -0.4033 -0.3439
  145SAPE    HA15921   1.233   4.969  10.433  1.4565 -0.3549  0.6098
  145SAPE    HB15922   1.370   4.850  10.456  0.2623  0.8690  1.1904
  145SAPE    C215923   1.281   4.882  10.252  0.3116  0.0949 -0.4028
  145SAPE    HS15924   1.354   4.960  10.221 -0.2217  1.4842  1.6455
  145SAPE   O2115925   1.145   4.912  10.203 -0.0446 -0.9587  0.2996
  145SAPE   C2115926   1.133   5.001  10.102  0.1248  0.4971 -0.5306
  145SAPE   O2215927   1.224   5.054  10.037  0.0208 -0.2884  0.1199
  145SAPE   C2215928   0.987   5.033  10.080  0.1915  0.1922 -0.2795
  145SAPE   H2R15929   0.924   5.004  10.167 -1.1364 -0.0406 -1.2947
  145SAPE   H2S15930   0.988   5.144  10.078  1.5488  0.2528  1.3217
  145SAPE    C315931   1.318   4.749  10.176 -1.0281 -0.0371 -0.5492
  145SAPE    HX15932   1.250   4.666  10.206  1.8721 -2.0366  1.0177
  145SAPE    HY15933   1.419   4.726  10.218 -1.5900 -0.4768  0.6143
  145SAPE   O3115934   1.323   4.774  10.035 -0.3393  0.1212 -0.1130
  145SAPE   C3115935   1.439   4.808   9.979  0.5688  0.1386 -0.7683
  145SAPE   O3215936   1.544   4.817  10.040 -0.5651  0.3118 -0.0872
  145SAPE   C3215937   1.412   4.845   9.832 -0.0056 -0.6571  1.0550
  145SAPE   H2X15938   1.366   4.945   9.824  3.8908  1.2603 -0.2199
  145SAPE   H2Y15939   1.339   4.768   9.799 -0.4366 -0.5736  1.7908
  145SAPE   C2315940   0.927   4.975   9.948 -0.0548 -0.5291 -0.1482
  145SAPE   H3R15941   0.986   5.003   9.858  1.1007 -1.6453  0.2248
  145SAPE   H3S15942   0.819   4.997   9.935 -0.5249 -1.9580  1.0229
  145SAPE   C2415943   0.931   4.823   9.958 -0.1379  0.4530  0.2985
  145SAPE   H4R15944   0.881   4.788  10.051 -0.7412  0.9104  0.1471
  145SAPE   H4S15945   1.034   4.783   9.947 -0.9115 -1.2735 -0.9680
  145SAPE   C2515946   0.862   4.765   9.837 -0.0230 -0.4679 -0.5035
  145SAPE   H5R15947   0.889   4.802   9.738 -2.7051  2.2972 -0.3785
  145SAPE   C2615948   0.757   4.677   9.851  0.9640  0.2313 -0.0725
  145SAPE   H6R15949   0.702   4.650   9.760  0.1927  1.4288  0.0130
  145SAPE   C2715950   0.706   4.612   9.975 -0.3427 -0.4400  0.8562
  145SAPE   H7R15951   0.637   4.687  10.021 -0.3870 -0.0207  0.1068
  145SAPE   H7S15952   0.786   4.585  10.047  0.9358  3.6347  1.1681
  145SAPE   C2815953   0.630   4.482   9.940  0.1238  0.4263  0.1733
  145SAPE   H8R15954   0.695   4.394   9.927 -1.0296 -0.4397  0.1089
  145SAPE   C2915955   0.505   4.469   9.893 -0.0127  0.0068 -0.4288
  145SAPE   H9R15956   0.472   4.365   9.878  1.7666 -0.6042 -0.3521
  145SAPE  C21015957   0.411   4.589   9.871  0.0890  0.1132  0.6298
  145SAPE  H10R15958   0.450   4.639   9.780 -1.2004  0.8034  0.4314
  145SAPE  H10S15959   0.432   4.669   9.946 -1.0869 -1.0944  2.3174
  145SAPE  C21115960   0.262   4.559   9.866  0.2352 -0.1355 -0.2471
  145SAPE  H11R15961   0.211   4.577   9.961  0.6219 -0.6218  0.0609
  145SAPE  C21215962   0.209   4.476   9.774 -0.0457  0.4194  0.2781
  145SAPE  H12R15963   0.101   4.457   9.783 -0.3594  2.6761  2.4249
  145SAPE  C21315964   0.268   4.411   9.652  0.3193  0.6628 -0.0180
  145SAPE  H13R15965   0.372   4.442   9.629 -0.2768  0.7212 -3.0394
  145SAPE  H13S15966   0.221   4.445   9.558 -1.0726  0.5259  0.6005
  145SAPE  C21415967   0.258   4.260   9.663  0.6302 -0.4084 -0.3486
  145SAPE  H14R15968   0.252   4.227   9.768 -0.8190  0.7236 -0.0396
  145SAPE  C21515969   0.287   4.162   9.568  0.0771 -0.0201 -0.3288
  145SAPE  H15R15970   0.249   4.060   9.585  1.5710 -0.3534  1.2985
  145SAPE  C21615971   0.332   4.203   9.432  0.7230 -0.7051  0.5732
  145SAPE  H16R15972   0.405   4.286   9.442 -1.0797  1.2965 -1.6336
  145SAPE  H16S15973   0.250   4.244   9.369  1.4442  0.8884  0.6154
  145SAPE  C21715974   0.390   4.075   9.364  0.8567 -0.0979  0.3375
  145SAPE  H17R15975   0.312   4.000   9.343  3.3793 -2.8911  0.2847
  145SAPE  H17S15976   0.460   4.039   9.443  3.1716  1.2009 -0.9797
  145SAPE  C21815977   0.472   4.107   9.235 -0.3070 -0.3676  0.2982
  145SAPE  H18R15978   0.545   4.184   9.268 -1.4132  1.1462 -0.6863
  145SAPE  H18S15979   0.399   4.149   9.163  0.4602 -2.2081 -1.6560
  145SAPE  C21915980   0.547   3.997   9.173  0.2314  0.0893  0.4492
  145SAPE  H19R15981   0.614   4.042   9.097 -1.5497 -0.7547 -1.7403
  145SAPE  H19S15982   0.490   3.918   9.119  1.8424 -0.8196  0.0068
  145SAPE  C22015983   0.637   3.924   9.279 -0.2021  0.4036  0.6269
  145SAPE  H20R15984   0.687   3.990   9.353  2.8249 -0.7482 -0.2596
  145SAPE  H20S15985   0.719   3.881   9.218  1.9168  2.6300  1.7525
  145SAPE  H20T15986   0.579   3.840   9.324  0.4990 -1.3582 -1.5706
  145SAPE   C3315987   1.545   4.831   9.752 -1.3005 -0.3545 -0.2572
  145SAPE   H3X15988   1.586   4.728   9.753  0.4882  0.3183 -0.3742
  145SAPE   H3Y15989   1.625   4.893   9.798 -0.1044 -2.3475  0.4576
  145SAPE   C3415990   1.532   4.848   9.595 -0.3001 -0.1699  0.2840
  145SAPE   H4X15991   1.487   4.949   9.578  2.3690  1.3956  1.7607
  145SAPE   H4Y15992   1.464   4.770   9.555  0.2520 -0.1244 -0.7738
  145SAPE   C3515993   1.664   4.851   9.514  0.8781  0.4190  0.8240
  145SAPE   H5X15994   1.709   4.750   9.524 -0.8369 -0.3678  0.9039
  145SAPE   H5Y15995   1.740   4.917   9.562 -0.4510  2.0830  0.7514
  145SAPE   C3615996   1.638   4.908   9.373  0.5706  0.0255  0.2378
  145SAPE   H6X15997   1.731   4.911   9.313  0.5729  1.9256  0.2729
  145SAPE   H6Y15998   1.595   5.010   9.385  0.5892  0.3453 -1.9962
  145SAPE   C3715999   1.533   4.823   9.298  0.4634 -0.3827 -0.2671
  145SAPE   H7X16000   1.439   4.810   9.356 -0.3011  1.5814 -0.9705
  145SAPE   H7Y16001   1.563   4.717   9.289  1.1431 -0.4380  2.1657
  145SAPE   C3816002   1.498   4.889   9.166 -0.0350  0.2071  0.8645
  145SAPE   H8X16003   1.586   4.918   9.105  0.2503  1.0290  1.6418
  145SAPE   H8Y16004   1.447   4.986   9.182 -2.2558 -0.7759  0.0748
  145SAPE   C3916005   1.407   4.800   9.077 -0.0934  0.0771  0.4124
  145SAPE   H9X16006   1.306   4.789   9.124  0.2592  1.4285  1.5497
  145SAPE   H9Y16007   1.460   4.703   9.080 -0.9484 -0.4847 -1.2392
  145SAPE  C31016008   1.400   4.852   8.935  0.3685  0.3469 -0.1128
  145SAPE  H10X16009   1.501   4.871   8.891  0.2858 -1.4111 -1.1652
  145SAPE  H10Y16010   1.340   4.945   8.929  0.6309  0.6109  1.0977
  145SAPE  C31116011   1.340   4.742   8.847 -0.2304  0.6479 -0.4506
  145SAPE  H11X16012   1.239   4.706   8.877 -0.0810  1.2937  0.9318
  145SAPE  H11Y16013   1.405   4.653   8.837  0.7146  0.8505  2.7368
  145SAPE  C31216014   1.317   4.802   8.706 -0.1352  0.4212 -0.0691
  145SAPE  H12X16015   1.417   4.829   8.665  1.4879 -3.0530  1.1882
  145SAPE  H12Y16016   1.262   4.897   8.722  1.4896  1.5364 -0.7973
  145SAPE  C31316017   1.241   4.718   8.605 -0.1062 -0.0134  0.2409
  145SAPE  H13X16018   1.296   4.621   8.598  0.5287  0.1972  1.7703
  145SAPE  H13Y16019   1.233   4.770   8.508  1.4174 -1.7105 -0.8718
  145SAPE  C31416020   1.092   4.684   8.637 -0.2367 -0.4510 -0.4073
  145SAPE  H14X16021   1.047   4.784   8.650  2.7347  1.2466 -2.1728
  145SAPE  H14Y16022   1.099   4.632   8.736  2.9513  0.1904 -0.1833
  145SAPE  C31516023   1.021   4.589   8.542 -0.6640 -0.5907 -0.4898
  145SAPE  H15X16024   1.085   4.503   8.514  0.2802 -0.0292 -0.0871
  145SAPE  H15Y16025   1.008   4.645   8.447 -0.0418 -0.1315 -0.3142
  145SAPE  C31616026   0.878   4.542   8.590  0.7030  0.4787  0.4980
  145SAPE  H16X16027   0.826   4.638   8.611  0.9460  0.5196  0.9145
  145SAPE  H16Y16028   0.875   4.492   8.689 -2.5142  1.2089  0.8949
  145SAPE  C31716029   0.807   4.463   8.482 -0.2999 -0.7018 -0.3655
  145SAPE  H17X16030   0.867   4.386   8.430  0.8576  0.1506 -0.3330
  145SAPE  H17Y16031   0.781   4.533   8.400 -1.3972  1.6058  1.8215
  145SAPE  C31816032   0.668   4.419   8.524  0.4579  0.3887 -0.5771
  145SAPE  H18X16033   0.636   4.341   8.451  0.1215 -1.0210  0.9944
  145SAPE  H18Y16034   0.593   4.499   8.539  0.2301  0.8582 -3.5821
  145SAPE  H18Z16035   0.673   4.369   8.623 -0.6642 -1.1091 -1.2355
  146SAPE     N16036   6.399   5.576  10.927 -0.4986  0.4522  0.7733
  146SAPE   HN116037   6.416   5.516  11.010 -0.6920 -0.8409 -0.1015
  146SAPE   HN216038   6.467   5.654  10.939 -0.4737  0.4588  0.5850
  146SAPE   HN316039   6.307   5.624  10.924  0.3196  2.0583 -2.2760
  146SAPE   C1216040   6.423   5.505  10.797 -0.1535 -0.3906  0.6046
  146SAPE  H12A16041   6.355   5.418  10.789  0.0172 -0.6236  1.5587
  146SAPE  H12B16042   6.526   5.464  10.802 -0.6432 -1.6002  1.0093
  146SAPE   C1116043   6.406   5.612  10.687  0.1075 -0.2960  0.7639
  146SAPE  H11A16044   6.300   5.638  10.665  0.1674  0.0918  0.9361
  146SAPE  H11B16045   6.445   5.569  10.592  0.9110  0.2226  0.8510
  146SAPE     P16046   6.433   5.867  10.674 -0.3041 -0.3620 -0.0084
  146SAPE   O1316047   6.323   5.901  10.774  0.2572  0.6262 -0.3251
  146SAPE   O1416048   6.540   5.965  10.662  0.4699  0.0220 -0.1419
  146SAPE   O1216049   6.488   5.730  10.709 -0.0363  0.3305 -0.0010
  146SAPE   O1116050   6.368   5.840  10.530  0.2062  0.1911  0.0659
  146SAPE    C116051   6.449   5.845  10.423 -0.0347  0.0331  0.8374
  146SAPE    HA16052   6.559   5.852  10.437  0.0144  0.2195  0.3905
  146SAPE    HB16053   6.434   5.760  10.353  0.2613  1.4107 -0.9990
  146SAPE    C216054   6.417   5.961  10.318  0.2497  0.1302  0.0290
  146SAPE    HS16055   6.452   6.060  10.356  1.1785 -1.3815  3.5800
  146SAPE   O2116056   6.279   5.962  10.292  0.6807 -0.0278 -0.1909
  146SAPE   C2116057   6.209   6.055  10.350  0.1534 -0.7508 -0.2016
  146SAPE   O2216058   6.256   6.156  10.404 -0.3048  0.6447 -0.0680
  146SAPE   C2216059   6.060   6.026  10.323 -0.2539  0.2663 -0.0034
  146SAPE   H2R16060   6.038   6.072  10.224 -1.0257 -0.7021 -0.2871
  146SAPE   H2S16061   6.042   5.917  10.316  0.8392  0.0745 -0.0901
  146SAPE    C316062   6.488   5.927  10.182  0.4078 -0.1563 -0.9461
  146SAPE    HX16063   6.475   6.009  10.109  1.4390  0.5653 -0.3478
  146SAPE    HY16064   6.444   5.834  10.138  1.1697 -1.1018  0.2252
  146SAPE   O3116065   6.636   5.904  10.196  0.4309  0.3183  0.6112
  146SAPE   C3116066   6.714   6.007  10.210  0.3508  0.0182  0.3331
  146SAPE   O3216067   6.679   6.118  10.226  0.1259 -0.4512  0.0620
  146SAPE   C3216068   6.864   5.967  10.201  0.4061 -0.0537  0.4066
  146SAPE   H2X16069   6.869   5.862  10.166 -0.7188 -1.0368  2.9157
  146SAPE   H2Y16070   6.909   5.963  10.303  1.2627  1.6102  0.1342
  146SAPE   C2316071   5.967   6.081  10.429  0.4794  0.6441 -0.3006
  146SAPE   H3R16072   5.998   6.053  10.532 -1.8455  0.7000  0.4780
  146SAPE   H3S16073   5.868   6.032  10.433  1.2366 -0.8769  0.2918
  146SAPE   C2416074   5.945   6.230  10.424  0.4770  0.1497  0.7559
  146SAPE   H4R16075   6.045   6.279  10.420 -0.1574  1.4697 -2.5449
  146SAPE   H4S16076   5.896   6.257  10.520  0.1613  2.4973  0.0140
  146SAPE   C2516077   5.867   6.288  10.310 -0.2450  0.9466  0.4317
  146SAPE   H5R16078   5.806   6.210  10.264 -0.6353 -0.1642  2.6962
  146SAPE   C2616079   5.869   6.420  10.283  0.0271 -0.2115  0.2903
  146SAPE   H6R16080   5.830   6.467  10.191  0.0993 -0.7134 -0.0022
  146SAPE   C2716081   5.939   6.526  10.349  0.0476 -0.2802 -0.7399
  146SAPE   H7R16082   6.024   6.560  10.286  0.7958 -1.4581 -0.3888
  146SAPE   H7S16083   6.005   6.486  10.429  1.0439  0.2783 -1.2564
  146SAPE   C2816084   5.853   6.641  10.400 -0.4048  0.4313 -0.2481
  146SAPE   H8R16085   5.827   6.629  10.506  2.1213 -0.1263  0.3711
  146SAPE   C2916086   5.823   6.750  10.331 -0.0529 -0.5159  0.0377
  146SAPE   H9R16087   5.762   6.820  10.390  0.7988 -0.4906  0.9127
  146SAPE  C21016088   5.859   6.791  10.192  0.5600  0.1944 -0.2405
  146SAPE  H10R16089   5.935   6.722  10.151 -0.2630 -1.6120  1.1482
  146SAPE  H10S16090   5.921   6.883  10.181 -1.0247  1.3212 -0.0460
  146SAPE  C21116091   5.742   6.804  10.101  0.3144 -0.7296 -0.3318
  146SAPE  H11R16092   5.663   6.869  10.140 -2.2131 -3.5495 -0.3633
  146SAPE  C21216093   5.711   6.731   9.993 -0.7424 -0.7185 -0.5521
  146SAPE  H12R16094   5.616   6.750   9.941 -0.6362 -0.0699 -0.5156
  146SAPE  C21316095   5.793   6.624   9.930 -0.0908 -0.7898 -0.3062
  146SAPE  H13R16096   5.884   6.621   9.994 -2.5753  1.1027  3.6883
  146SAPE  H13S16097   5.832   6.661   9.832 -0.4001 -1.4199 -0.6754
  146SAPE  C21416098   5.741   6.487   9.919  0.3110  1.2524 -0.3303
  146SAPE  H14R16099   5.698   6.442  10.010 -2.1371  2.9101 -0.5741
  146SAPE  C21516100   5.750   6.405   9.809 -0.3415  0.2657  0.0591
  146SAPE  H15R16101   5.705   6.306   9.822 -1.4646  0.8992  1.3524
  146SAPE  C21616102   5.802   6.445   9.670 -0.2204 -0.2843 -0.3049
  146SAPE  H16R16103   5.905   6.403   9.664 -0.7924 -1.7699 -0.2323
  146SAPE  H16S16104   5.815   6.555   9.665  0.6629 -0.3145  0.9075
  146SAPE  C21716105   5.727   6.406   9.543  0.2284 -0.2975  0.4030
  146SAPE  H17R16106   5.618   6.424   9.556 -0.4260 -3.0886 -0.6255
  146SAPE  H17S16107   5.733   6.296   9.535 -0.3570 -0.3936  1.1266
  146SAPE  C21816108   5.768   6.486   9.414 -0.5347  0.3573 -0.3995
  146SAPE  H18R16109   5.706   6.435   9.337  1.3591 -1.2809 -0.9328
  146SAPE  H18S16110   5.875   6.463   9.393 -0.4785  1.0833 -0.9414
  146SAPE  C21916111   5.736   6.638   9.416 -0.0784  0.3378 -0.0708
  146SAPE  H19R16112   5.809   6.693   9.480  0.3384 -0.4719  0.1637
  146SAPE  H19S16113   5.637   6.659   9.461 -0.6132 -2.2653  0.0722
  146SAPE  C22016114   5.734   6.712   9.279 -0.3018  0.1910  0.2161
  146SAPE  H20R16115   5.663   6.666   9.207 -0.4413 -1.0544  1.1282
  146SAPE  H20S16116   5.837   6.702   9.238 -0.4206 -0.1444 -0.0021
  146SAPE  H20T16117   5.706   6.817   9.303 -0.8998 -0.3559  2.1158
  146SAPE   C3316118   6.959   6.059  10.123  0.1032 -0.1804 -0.1519
  146SAPE   H3X16119   6.971   6.143  10.194 -0.3358  0.6468 -1.0344
  146SAPE   H3Y16120   6.907   6.093  10.031  0.5305 -0.1751 -0.3953
  146SAPE   C3416121   7.102   5.994  10.109  0.2956  0.1132  0.5047
  146SAPE   H4X16122   7.151   5.953  10.200 -1.8595  0.9674  2.1673
  146SAPE   H4Y16123   7.159   6.074  10.057 -2.8262  1.4516 -1.1044
  146SAPE   C3516124   7.106   5.881  10.003  0.5425  0.4117  0.8776
  146SAPE   H5X16125   7.068   5.916   9.905  0.0803 -1.1277  0.4958
  146SAPE   H5Y16126   7.027   5.807  10.025  0.0892 -0.0540 -1.9849
  146SAPE   C3616127   7.247   5.832   9.995  0.1064 -0.1201 -0.2367
  146SAPE   H6X16128   7.289   5.793  10.090  0.6574 -0.0385 -0.4375
  146SAPE   H6Y16129   7.300   5.927   9.971 -1.6929  0.6109 -1.4949
  146SAPE   C3716130   7.276   5.728   9.889 -0.0929  0.0869 -0.1763
  146SAPE   H7X16131   7.235   5.629   9.916  0.5997 -0.8301 -2.2632
  146SAPE   H7Y16132   7.384   5.702   9.883 -0.1889 -0.0518 -1.6607
  146SAPE   C3816133   7.224   5.757   9.747 -0.3896 -0.3628  0.2759
  146SAPE   H8X16134   7.233   5.866   9.730 -0.4962 -0.5982 -1.5262
  146SAPE   H8Y16135   7.115   5.735   9.750 -0.3528 -0.8120 -0.8916
  146SAPE   C3916136   7.304   5.688   9.634 -0.0528  0.6178 -0.6020
  146SAPE   H9X16137   7.278   5.581   9.614 -1.4359  1.1445 -1.8094
  146SAPE   H9Y16138   7.412   5.688   9.658 -0.1762 -2.7633  0.5961
  146SAPE  C31016139   7.290   5.744   9.492  0.1701 -0.0919 -0.2592
  146SAPE  H10X16140   7.350   5.680   9.424  0.9780 -0.0759  0.4257
  146SAPE  H10Y16141   7.326   5.849   9.481  0.6338 -0.0387  1.4753
  146SAPE  C31116142   7.141   5.742   9.449  0.5787  0.1572 -0.3695
  146SAPE  H11X16143   7.090   5.836   9.480 -0.8087 -0.8688  0.5756
  146SAPE  H11Y16144   7.082   5.674   9.515  1.9413  0.4640  1.2408
  146SAPE  C31216145   7.108   5.704   9.300  0.2372  0.9244 -0.1026
  146SAPE  H12X16146   7.003   5.715   9.265  0.9425 -1.2915 -3.3931
  146SAPE  H12Y16147   7.127   5.595   9.292  1.5356  1.1724 -0.7010
  146SAPE  C31316148   7.190   5.793   9.204 -0.0199  0.2417  1.1958
  146SAPE  H13X16149   7.295   5.757   9.206 -0.0864 -0.3091 -1.4607
  146SAPE  H13Y16150   7.188   5.900   9.235  0.7215  1.5312 -2.6844
  146SAPE  C31416151   7.138   5.781   9.057  0.6489 -0.5544 -0.0718
  146SAPE  H14X16152   7.172   5.866   8.994  1.2511  0.7907  1.9258
  146SAPE  H14Y16153   7.030   5.798   9.073  0.4260 -1.6967 -0.3024
  146SAPE  C31516154   7.159   5.642   8.992 -0.0707  0.1348  0.2994
  146SAPE  H15X16155   7.092   5.635   8.904 -0.2687  1.7092  0.2922
  146SAPE  H15Y16156   7.138   5.563   9.067 -1.7189  1.3787  1.2159
  146SAPE  C31616157   7.304   5.630   8.942 -0.0054 -0.6459 -0.6454
  146SAPE  H16X16158   7.368   5.633   9.033 -1.9800 -1.5168  0.8387
  146SAPE  H16Y16159   7.340   5.718   8.884  4.2251 -2.4335 -1.1301
  146SAPE  C31716160   7.328   5.501   8.858  0.2703 -0.1869 -0.6183
  146SAPE  H17X16161   7.252   5.503   8.777 -0.6928  3.0975  0.2317
  146SAPE  H17Y16162   7.308   5.420   8.931  1.2467 -1.2237 -1.4762
  146SAPE  C31816163   7.475   5.481   8.822 -1.0016  0.6183  0.7456
  146SAPE  H18X16164   7.496   5.383   8.774  1.8032  1.3177  0.3500
  146SAPE  H18Y16165   7.543   5.487   8.910  1.5721 -1.3750 -0.9333
  146SAPE  H18Z16166   7.510   5.562   8.754 -0.7613  1.3124  1.6730
  147SAPE     N16167   3.157   2.272  10.733 -0.2562 -0.1492  0.0032
  147SAPE   HN116168   3.220   2.196  10.699 -0.2504  0.3150 -1.0513
  147SAPE   HN216169   3.209   2.333  10.799  1.3513  0.0391 -1.4052
  147SAPE   HN316170   3.086   2.234  10.799 -1.7093  3.2351  0.5869
  147SAPE   C1216171   3.100   2.351  10.621 -0.3279 -0.5033  0.0246
  147SAPE  H12A16172   3.011   2.296  10.585 -0.3313 -0.8108  0.4883
  147SAPE  H12B16173   3.172   2.358  10.536 -0.8353 -0.6375 -0.4231
  147SAPE   C1116174   3.065   2.499  10.668 -0.4571  0.4493  0.5424
  147SAPE  H11A16175   3.050   2.570  10.584  0.8668  0.8546  0.6208
  147SAPE  H11B16176   3.156   2.539  10.717 -0.1309  0.3723  0.0093
  147SAPE     P16177   2.813   2.533  10.730 -0.6727  0.1919  0.2864
  147SAPE   O1316178   2.723   2.440  10.794 -0.3729 -0.2690 -0.2731
  147SAPE   O1416179   2.796   2.679  10.752  0.3601 -0.1582 -0.1273
  147SAPE   O1216180   2.961   2.497  10.771  0.5442 -0.8639  0.2126
  147SAPE   O1116181   2.814   2.511  10.572 -0.2005  1.0940  0.5566
  147SAPE    C116182   2.769   2.615  10.488  0.0394 -0.4829 -0.6355
  147SAPE    HA16183   2.670   2.650  10.525  1.1209  2.1063 -0.0254
  147SAPE    HB16184   2.830   2.707  10.487 -1.1255  0.3123 -0.8853
  147SAPE    C216185   2.757   2.575  10.344  0.1677  0.5467 -0.1573
  147SAPE    HS16186   2.728   2.663  10.281  3.2937  1.8545  0.0600
  147SAPE   O2116187   2.675   2.455  10.331 -0.0378  0.3904  0.4066
  147SAPE   C2116188   2.549   2.492  10.323 -0.2869  0.1912  0.8532
  147SAPE   O2216189   2.506   2.611  10.329 -0.0960 -0.0120  0.0446
  147SAPE   C2216190   2.449   2.374  10.339 -0.2367 -0.2952 -0.5060
  147SAPE   H2R16191   2.502   2.284  10.303  0.5505  0.5955 -1.6693
  147SAPE   H2S16192   2.411   2.369  10.443 -2.2838  1.6635 -1.0805
  147SAPE    C316193   2.901   2.540  10.295  0.2549  0.1433  0.0148
  147SAPE    HX16194   2.895   2.514  10.187  1.2566  0.9563 -0.2510
  147SAPE    HY16195   2.937   2.443  10.337 -2.8795 -1.8044 -1.4139
  147SAPE   O3116196   2.998   2.639  10.322 -0.2875 -0.0310 -0.3311
  147SAPE   C3116197   2.992   2.760  10.248  0.7533  0.4243 -0.2316
  147SAPE   O3216198   2.903   2.779  10.170 -0.1579 -0.3124  0.5993
  147SAPE   C3216199   3.100   2.854  10.299  0.3490 -0.2661  0.4993
  147SAPE   H2X16200   3.195   2.796  10.294 -0.1319 -1.0341  0.0190
  147SAPE   H2Y16201   3.061   2.888  10.397 -3.0259 -1.2233 -0.3823
  147SAPE   C2316202   2.338   2.384  10.239 -0.4016  0.0344  0.0804
  147SAPE   H3R16203   2.272   2.470  10.260  1.1332  1.1676  0.4500
  147SAPE   H3S16204   2.278   2.292  10.257  2.5506 -2.4552 -1.7060
  147SAPE   C2416205   2.383   2.376  10.090  0.5070  0.0704 -0.0846
  147SAPE   H4R16206   2.298   2.329  10.036  1.0436 -1.0217 -0.0173
  147SAPE   H4S16207   2.466   2.302  10.076 -1.8078 -3.3968  2.6402
  147SAPE   C2516208   2.410   2.511  10.029  0.2209  0.2891  0.3047
  147SAPE   H5R16209   2.324   2.579  10.020  1.5336  1.9116 -0.4200
  147SAPE   C2616210   2.525   2.556   9.978 -0.1814 -0.3925  0.0596
  147SAPE   H6R16211   2.542   2.653   9.930  2.4601  0.1399  1.8657
  147SAPE   C2716212   2.647   2.472   9.972  0.3479  0.0686  0.4837
  147SAPE   H7R16213   2.623   2.364   9.958 -3.0952  0.9983 -2.3496
  147SAPE   H7S16214   2.699   2.481  10.069 -1.3795  0.5726  1.3983
  147SAPE   C2816215   2.730   2.523   9.857  0.0510 -0.1758  0.0221
  147SAPE   H8R16216   2.784   2.616   9.879  0.5929 -0.3609 -0.5112
  147SAPE   C2916217   2.737   2.474   9.735  0.1944 -0.9588  1.2279
  147SAPE   H9R16218   2.816   2.517   9.673 -1.0017 -1.8071 -1.0052
  147SAPE  C21016219   2.666   2.364   9.667  0.1246  0.8613 -0.5303
  147SAPE  H10R16220   2.655   2.282   9.741 -0.8014  1.2288 -0.2341
  147SAPE  H10S16221   2.709   2.330   9.571 -3.2928  0.0329 -1.9142
  147SAPE  C21116222   2.521   2.403   9.650 -0.9585  0.1898 -0.1768
  147SAPE  H11R16223   2.467   2.434   9.741 -0.7747 -0.9998  0.3465
  147SAPE  C21216224   2.473   2.430   9.525 -0.2615 -0.2504 -0.0547
  147SAPE  H12R16225   2.366   2.454   9.515 -0.2665 -0.3638 -0.2795
  147SAPE  C21316226   2.543   2.435   9.393 -0.4015 -0.1456  0.3874
  147SAPE  H13R16227   2.537   2.337   9.341  0.9937 -0.8350  1.4526
  147SAPE  H13S16228   2.652   2.449   9.411  0.2266 -4.5106  1.1685
  147SAPE  C21416229   2.486   2.551   9.311  0.3929 -0.1634  0.7747
  147SAPE  H14R16230   2.390   2.589   9.349 -0.1182 -0.3239 -0.3282
  147SAPE  C21516231   2.528   2.588   9.193 -0.5551  0.1746 -0.0464
  147SAPE  H15R16232   2.489   2.677   9.143  1.5809  2.5714  2.2425
  147SAPE  C21616233   2.640   2.519   9.114 -0.4656 -0.2337  0.8410
  147SAPE  H16R16234   2.659   2.413   9.139  1.9369 -0.5918 -1.9078
  147SAPE  H16S16235   2.738   2.570   9.124 -0.0337 -0.0263 -2.9872
  147SAPE  C21716236   2.616   2.505   8.956 -0.2493  0.2350  0.3343
  147SAPE  H17R16237   2.516   2.461   8.935 -0.5113  0.7717  0.4468
  147SAPE  H17S16238   2.687   2.426   8.922  0.5259  1.0367  0.0682
  147SAPE  C21816239   2.651   2.632   8.874  0.2028  0.4314 -0.3905
  147SAPE  H18R16240   2.751   2.674   8.898  0.0784  0.4739  0.0582
  147SAPE  H18S16241   2.572   2.708   8.894  0.1878  0.9478 -2.1993
  147SAPE  C21916242   2.648   2.623   8.719 -0.6516 -0.3630  0.6876
  147SAPE  H19R16243   2.670   2.726   8.683 -0.2644 -0.5261  0.4514
  147SAPE  H19S16244   2.557   2.583   8.669 -1.3872 -0.8355  2.3395
  147SAPE  C22016245   2.766   2.539   8.676  0.3004 -0.2851 -0.6777
  147SAPE  H20R16246   2.761   2.524   8.566  0.9961 -0.2768 -0.7141
  147SAPE  H20S16247   2.776   2.438   8.721  0.0279 -0.0866 -0.1573
  147SAPE  H20T16248   2.858   2.598   8.695 -0.4600  0.7964 -0.2957
  147SAPE   C3316249   3.120   2.970  10.202 -0.1605  0.4270  0.4600
  147SAPE   H3X16250   3.192   3.047  10.237  1.3831 -0.1498 -1.2816
  147SAPE   H3Y16251   3.025   3.013  10.163 -0.0881 -0.6346 -0.9679
  147SAPE   C3416252   3.186   2.926  10.072  0.6776 -0.5103  0.1396
  147SAPE   H4X16253   3.123   2.847  10.028 -2.9275  0.3936  3.1255
  147SAPE   H4Y16254   3.286   2.882  10.090 -0.0321 -1.9521  0.6545
  147SAPE   C3516255   3.207   3.037   9.973  0.3714  0.2329 -0.4895
  147SAPE   H5X16256   3.266   3.125  10.006 -0.8022  0.6613  0.5636
  147SAPE   H5Y16257   3.111   3.088   9.950  0.9633  1.1910 -0.9188
  147SAPE   C3616258   3.252   2.985   9.838  0.1046 -0.2234  0.0571
  147SAPE   H6X16259   3.208   3.046   9.757 -2.8837  0.1810  1.8351
  147SAPE   H6Y16260   3.207   2.885   9.818  3.2276 -2.1204  1.6928
  147SAPE   C3716261   3.400   2.958   9.821 -0.3493  0.3434 -0.1773
  147SAPE   H7X16262   3.431   2.882   9.897  0.6432  1.6401  0.7514
  147SAPE   H7Y16263   3.448   3.055   9.845 -0.5248  0.4020 -0.0652
  147SAPE   C3816264   3.444   2.899   9.686 -0.7053  0.4715 -0.1002
  147SAPE   H8X16265   3.386   2.811   9.650  2.2734 -0.0533 -4.4171
  147SAPE   H8Y16266   3.547   2.859   9.696 -0.7484  0.1280 -0.9204
  147SAPE   C3916267   3.433   3.007   9.575  0.5417  0.0866 -0.7117
  147SAPE   H9X16268   3.493   3.098   9.599 -0.7841  0.8523 -0.1960
  147SAPE   H9Y16269   3.326   3.032   9.558  0.1397 -3.1271 -4.3563
  147SAPE  C31016270   3.479   2.966   9.432 -0.3914 -0.3715 -0.0407
  147SAPE  H10X16271   3.446   2.861   9.415 -0.8512 -0.4930  1.4945
  147SAPE  H10Y16272   3.590   2.969   9.425 -0.4581  0.2341 -1.1025
  147SAPE  C31116273   3.429   3.067   9.319 -0.3917 -0.3661 -0.2145
  147SAPE  H11X16274   3.435   3.173   9.351  1.6806 -0.2394 -0.8497
  147SAPE  H11Y16275   3.319   3.053   9.328 -0.1399 -2.5980 -0.1625
  147SAPE  C31216276   3.477   3.033   9.176  0.6987  0.4649 -0.5690
  147SAPE  H12X16277   3.454   2.926   9.160 -2.0188  0.7313  0.8668
  147SAPE  H12Y16278   3.587   3.047   9.185  0.5832  0.8262  0.4736
  147SAPE  C31316279   3.416   3.121   9.067 -0.4036  0.6434  0.7425
  147SAPE  H13X16280   3.405   3.229   9.094  0.3135  0.8860  0.1040
  147SAPE  H13Y16281   3.308   3.099   9.051 -0.5137  1.8027 -0.2289
  147SAPE  C31416282   3.489   3.115   8.933 -0.0888  0.1243  0.2274
  147SAPE  H14X16283   3.458   3.019   8.887 -0.0394 -0.6847  1.8320
  147SAPE  H14Y16284   3.599   3.098   8.942 -0.0386 -0.9219 -1.6848
  147SAPE  C31516285   3.469   3.237   8.841  0.3344  0.3191 -0.0125
  147SAPE  H15X16286   3.566   3.291   8.834  0.0895  0.7135 -0.3651
  147SAPE  H15Y16287   3.395   3.300   8.894  0.7137  1.9639 -1.3507
  147SAPE  C31616288   3.404   3.192   8.706  0.2192 -0.0073  0.2694
  147SAPE  H16X16289   3.335   3.274   8.678 -1.9337 -1.8838 -0.1948
  147SAPE  H16Y16290   3.343   3.101   8.723  1.4142 -0.8425  0.2351
  147SAPE  C31716291   3.507   3.166   8.598 -0.4975 -0.1370  0.7129
  147SAPE  H17X16292   3.602   3.124   8.639 -0.4215  0.8136  1.5609
  147SAPE  H17Y16293   3.539   3.263   8.554  0.5590 -0.2702  1.1592
  147SAPE  C31816294   3.447   3.067   8.493 -0.0546 -0.0663 -0.0233
  147SAPE  H18X16295   3.523   3.028   8.422 -0.1671 -0.5953  0.1473
  147SAPE  H18Y16296   3.367   3.113   8.431  0.2398 -0.0234 -0.3771
  147SAPE  H18Z16297   3.406   2.983   8.553  1.9823 -1.3025 -0.2728
  148SAPE     N16298   2.577   4.141  10.426  0.2429  0.6875 -0.4358
  148SAPE   HN116299   2.534   4.234  10.407  0.4429  1.0788  0.9153
  148SAPE   HN216300   2.672   4.164  10.460  0.9862 -0.3289 -1.7351
  148SAPE   HN316301   2.576   4.075  10.346  1.8844  0.1735 -0.0748
  148SAPE   C1216302   2.515   4.072  10.546  0.2169 -0.7547  0.1868
  148SAPE  H12A16303   2.413   4.040  10.516  0.4447 -1.8989  0.5790
  148SAPE  H12B16304   2.510   4.142  10.633 -0.4198  0.7656 -1.0167
  148SAPE   C1116305   2.587   3.949  10.597  0.1262  0.1901 -0.2878
  148SAPE  H11A16306   2.603   3.870  10.522 -1.0378  1.1926 -1.6481
  148SAPE  H11B16307   2.519   3.908  10.675  0.5785  1.2327  0.6954
  148SAPE     P16308   2.848   3.995  10.604  0.0145  0.3101  0.1415
  148SAPE   O1316309   2.832   4.117  10.517 -0.0730  0.0335 -0.1623
  148SAPE   O1416310   2.956   3.999  10.709  0.4559  0.3282 -0.1417
  148SAPE   O1216311   2.710   3.977  10.674  0.2414  0.2638 -0.0695
  148SAPE   O1116312   2.854   3.866  10.514  0.2688  0.0070 -0.0644
  148SAPE    C116313   2.965   3.772  10.495  0.2867 -0.3942 -0.1203
  148SAPE    HA16314   3.047   3.805  10.563 -0.2582 -0.2955  0.4943
  148SAPE    HB16315   2.930   3.669  10.515 -2.3398  0.3509 -0.4847
  148SAPE    C216316   3.021   3.796  10.353 -0.6480  0.0497  0.0699
  148SAPE    HS16317   3.112   3.737  10.329 -1.9016 -1.5558 -0.9100
  148SAPE   O2116318   3.040   3.936  10.331  0.0781 -0.0822 -0.2645
  148SAPE   C2116319   3.145   3.992  10.399 -0.2294 -0.6967  0.2032
  148SAPE   O2216320   3.228   3.931  10.462 -0.6279 -0.8747 -0.2440
  148SAPE   C2216321   3.147   4.141  10.354  0.2579  0.1585  0.0401
  148SAPE   H2R16322   3.181   4.149  10.248  0.4639  2.8877  0.2409
  148SAPE   H2S16323   3.043   4.168  10.380  0.7796 -0.8566  3.6683
  148SAPE    C316324   2.918   3.733  10.249  0.6638  0.5767  0.7593
  148SAPE    HX16325   2.818   3.775  10.273  0.6419  1.0851 -0.2204
  148SAPE    HY16326   2.918   3.626  10.281  2.2387 -0.0011 -1.0368
  148SAPE   O3116327   2.967   3.752  10.112  0.3828  0.6473  0.3033
  148SAPE   C3116328   2.882   3.815  10.033  1.1189  0.2682  0.1739
  148SAPE   O3216329   2.761   3.832  10.048  0.2551  0.6297  0.7545
  148SAPE   C3216330   2.953   3.862   9.904 -0.4027 -0.6518 -0.0221
  148SAPE   H2X16331   3.018   3.774   9.884  0.4576 -0.4209  1.5932
  148SAPE   H2Y16332   3.018   3.949   9.929 -0.5574 -1.1362  2.2648
  148SAPE   C2316333   3.237   4.235  10.448 -0.2371  0.5655 -0.7630
  148SAPE   H3R16334   3.330   4.189  10.488  0.4994  1.6680 -1.1720
  148SAPE   H3S16335   3.173   4.260  10.535 -0.1938 -0.4019 -0.4384
  148SAPE   C2416336   3.283   4.361  10.374 -0.1484  0.5433 -0.7320
  148SAPE   H4R16337   3.355   4.418  10.436 -0.9606  0.8665 -0.0805
  148SAPE   H4S16338   3.186   4.414  10.365 -1.6126 -1.5403  1.4220
  148SAPE   C2516339   3.363   4.338  10.245 -0.0941  0.2325  0.0160
  148SAPE   H5R16340   3.467   4.301  10.252 -0.7794 -1.9125 -0.2563
  148SAPE   C2616341   3.314   4.351  10.118  0.6638  0.3967  0.1165
  148SAPE   H6R16342   3.386   4.341  10.035  1.1836 -1.3177  0.7297
  148SAPE   C2716343   3.176   4.400  10.080  0.1006 -0.2261  0.2200
  148SAPE   H7R16344   3.163   4.508  10.060 -1.0717 -0.1658  1.1883
  148SAPE   H7S16345   3.116   4.386  10.173  0.2266 -3.6323 -0.0755
  148SAPE   C2816346   3.116   4.314   9.969  0.5589  0.2196  0.5484
  148SAPE   H8R16347   3.129   4.206   9.988  0.5197  0.3479  1.3333
  148SAPE   C2916348   3.079   4.359   9.847 -0.1855 -0.4662 -0.0617
  148SAPE   H9R16349   3.050   4.290   9.767  0.7495  0.4812 -1.2685
  148SAPE  C21016350   3.074   4.503   9.793  0.3444  0.2172 -0.2848
  148SAPE  H10R16351   3.097   4.575   9.875 -0.7847 -0.2493  0.4694
  148SAPE  H10S16352   2.967   4.523   9.772  0.0244 -2.2015 -1.3038
  148SAPE  C21116353   3.168   4.513   9.672  0.2625 -0.5714 -0.0425
  148SAPE  H11R16354   3.267   4.558   9.690 -0.5275  2.0588 -1.7016
  148SAPE  C21216355   3.132   4.482   9.546 -0.8589 -0.4405  0.1978
  148SAPE  H12R16356   3.205   4.504   9.467 -0.0628 -0.7242  0.8390
  148SAPE  C21316357   2.993   4.436   9.501  0.5682  0.2871 -0.7381
  148SAPE  H13R16358   2.918   4.423   9.581  2.3792  2.3623  1.4394
  148SAPE  H13S16359   3.002   4.338   9.449  1.1456  2.3566 -4.9628
  148SAPE  C21416360   2.927   4.543   9.415  0.2188  0.1360  0.0778
  148SAPE  H14R16361   2.884   4.635   9.458 -1.1722 -0.8436  0.8762
  148SAPE  C21516362   2.912   4.530   9.285  0.4866  0.0231  0.9186
  148SAPE  H15R16363   2.864   4.612   9.229  0.4418 -0.2471  0.5502
  148SAPE  C21616364   2.968   4.415   9.205 -0.2534  0.3792  0.3727
  148SAPE  H16R16365   2.947   4.316   9.251  1.0946  0.7397  1.8391
  148SAPE  H16S16366   3.078   4.411   9.215 -0.3396  1.0429  1.6339
  148SAPE  C21716367   2.931   4.410   9.052 -0.2322 -0.5908 -0.4221
  148SAPE  H17R16368   3.001   4.338   9.006 -0.3408 -0.3660 -0.9421
  148SAPE  H17S16369   2.950   4.514   9.019  1.1145 -0.5592  0.3659
  148SAPE  C21816370   2.792   4.362   9.019 -0.1370 -0.2491 -0.4205
  148SAPE  H18R16371   2.717   4.435   9.054 -1.2266 -1.4256 -0.2174
  148SAPE  H18S16372   2.762   4.266   9.067 -0.4018 -0.4935 -1.0652
  148SAPE  C21916373   2.769   4.342   8.869  0.1572  0.3715 -0.0367
  148SAPE  H19R16374   2.670   4.294   8.849 -1.5679  3.3402  0.6632
  148SAPE  H19S16375   2.849   4.283   8.821  1.6312  2.8747 -0.8363
  148SAPE  C22016376   2.768   4.471   8.796 -0.8345  0.5184 -1.2357
  148SAPE  H20R16377   2.726   4.460   8.693 -0.9772 -0.8183 -1.0509
  148SAPE  H20S16378   2.861   4.527   8.775 -0.0233 -0.9620 -1.7878
  148SAPE  H20T16379   2.693   4.536   8.845 -0.3456  0.2180 -0.0659
  148SAPE   C3316380   2.861   3.899   9.789  0.3447 -0.2603  0.1305
  148SAPE   H3X16381   2.908   3.972   9.720  2.4472 -1.4925  0.1539
  148SAPE   H3Y16382   2.767   3.938   9.832  0.1028 -0.8205  0.1250
  148SAPE   C3416383   2.819   3.774   9.711  0.4445  0.2268 -0.0450
  148SAPE   H4X16384   2.756   3.707   9.772  0.1560  2.0793  1.8027
  148SAPE   H4Y16385   2.907   3.717   9.675  0.1766  0.7960 -1.7305
  148SAPE   C3516386   2.736   3.823   9.588  0.9993  0.3116  0.0905
  148SAPE   H5X16387   2.688   3.921   9.607  1.8489  0.2476  3.0812
  148SAPE   H5Y16388   2.652   3.751   9.590  0.5395  0.8211  2.3018
  148SAPE   C3616389   2.800   3.814   9.454  0.1517  0.1709  0.2949
  148SAPE   H6X16390   2.814   3.705   9.434 -0.3457  0.1165  0.2391
  148SAPE   H6Y16391   2.899   3.865   9.458 -0.9215  2.4625 -1.0232
  148SAPE   C3716392   2.706   3.874   9.354 -0.1822  0.1769  0.1537
  148SAPE   H7X16393   2.686   3.979   9.384 -0.7246 -0.5679  2.6076
  148SAPE   H7Y16394   2.607   3.825   9.350 -1.3498  2.4222  0.1930
  148SAPE   C3816395   2.766   3.874   9.215  0.4134  0.4881 -0.2060
  148SAPE   H8X16396   2.765   3.764   9.194 -1.0589 -0.1259  2.5810
  148SAPE   H8Y16397   2.873   3.904   9.216  1.3429 -2.4335 -0.6345
  148SAPE   C3916398   2.696   3.958   9.107 -0.7836 -0.7243  0.2230
  148SAPE   H9X16399   2.759   3.950   9.015  0.0231  0.0137  0.6946
  148SAPE   H9Y16400   2.719   4.063   9.135  3.9795 -1.2620 -0.7283
  148SAPE  C31016401   2.554   3.925   9.081 -0.3755 -0.5858 -0.7934
  148SAPE  H10X16402   2.477   3.946   9.159 -0.5685 -0.9951 -0.8713
  148SAPE  H10Y16403   2.543   3.816   9.069 -1.9537 -0.2158 -3.5408
  148SAPE  C31116404   2.516   3.993   8.943  0.5757  0.2901 -0.0788
  148SAPE  H11X16405   2.577   3.935   8.870  0.6321  1.1233 -0.7094
  148SAPE  H11Y16406   2.555   4.097   8.945 -1.1989  1.0064 -0.8974
  148SAPE  C31216407   2.364   3.991   8.925 -0.4672  0.0604 -0.6441
  148SAPE  H12X16408   2.322   4.037   9.016  0.9365 -2.0913  1.2115
  148SAPE  H12Y16409   2.331   3.886   8.941 -0.8111 -0.6533 -4.8812
  148SAPE  C31316410   2.304   4.066   8.799  0.2233 -0.2487  0.8721
  148SAPE  H13X16411   2.319   4.173   8.824  2.7170 -0.2201 -0.4898
  148SAPE  H13Y16412   2.197   4.036   8.789  0.1195  0.4771 -0.3409
  148SAPE  C31416413   2.369   4.024   8.670  1.0217  0.2498 -0.3251
  148SAPE  H14X16414   2.369   3.912   8.669 -4.3335 -0.1035  2.0905
  148SAPE  H14Y16415   2.476   4.049   8.681  1.0963 -0.1262 -0.1683
  148SAPE  C31516416   2.317   4.086   8.539 -0.0617 -1.0128 -0.4530
  148SAPE  H15X16417   2.275   4.187   8.560 -0.1086 -0.7392 -1.7749
  148SAPE  H15Y16418   2.226   4.029   8.509 -0.2432 -1.0235  0.0968
  148SAPE  C31616419   2.420   4.097   8.433 -0.2923  0.2666 -0.0790
  148SAPE  H16X16420   2.373   4.130   8.338 -1.7509 -2.5550 -0.4708
  148SAPE  H16Y16421   2.456   3.996   8.406  2.8139  1.3557 -0.3720
  148SAPE  C31716422   2.544   4.194   8.454  0.0542 -0.7207 -0.4432
  148SAPE  H17X16423   2.609   4.179   8.365  1.2154 -0.0304  0.2618
  148SAPE  H17Y16424   2.606   4.173   8.543  1.6693  0.0470 -1.3418
  148SAPE  C31816425   2.500   4.336   8.468 -0.8955  0.1112  0.0487
  148SAPE  H18X16426   2.451   4.382   8.380  2.7806  0.0217 -2.2613
  148SAPE  H18Y16427   2.581   4.410   8.490  1.0732 -1.9247 -0.0144
  148SAPE  H18Z16428   2.423   4.337   8.548 -1.0907 -0.5888 -0.1275
  149SAPE     N16429   4.354   0.100  11.182 -0.0517 -0.0575  0.0237
  149SAPE   HN116430   4.378   0.001  11.161  1.5706  0.4300 -0.5304
  149SAPE   HN216431   4.366   0.109  11.285  0.7780 -0.4761 -0.0307
  149SAPE   HN316432   4.254   0.121  11.161  0.7326  0.2397 -4.1218
  149SAPE   C1216433   4.457   0.183  11.104 -0.3807 -0.2304 -0.6432
  149SAPE  H12A16434   4.556   0.151  11.143  0.0071  1.4953 -0.1785
  149SAPE  H12B16435   4.450   0.292  11.124  0.6960 -0.3299  0.3047
  149SAPE   C1116436   4.451   0.164  10.952 -0.8725 -0.4377  0.8976
  149SAPE  H11A16437   4.544   0.206  10.908 -0.3875 -0.9828  1.3713
  149SAPE  H11B16438   4.357   0.208  10.914 -0.6156  2.2700  3.0679
  149SAPE     P16439   4.581  -0.056  10.906  0.2576  0.1672 -0.1162
  149SAPE   O1316440   4.687   0.006  10.996  0.0008  0.0323  0.5857
  149SAPE   O1416441   4.544  -0.198  10.926 -0.6972 -0.2638  0.4357
  149SAPE   O1216442   4.445   0.019  10.926 -0.3611  0.2320 -0.4933
  149SAPE   O1116443   4.616  -0.052  10.753 -0.3119 -0.1675  0.0202
  149SAPE    C116444   4.545   0.001  10.647  0.3294 -0.3295  0.1500
  149SAPE    HA16445   4.519  -0.076  10.572 -0.1172  1.0952 -1.2232
  149SAPE    HB16446   4.455   0.050  10.690  0.6364  2.5803 -2.2263
  149SAPE    C216447   4.626   0.119  10.576  0.5167  0.7279 -0.1357
  149SAPE    HS16448   4.676   0.175  10.658 -0.2232  0.8952  0.2089
  149SAPE   O2116449   4.530   0.199  10.509 -0.3529 -0.5876  0.0248
  149SAPE   C2116450   4.570   0.321  10.471  0.6162  0.2218  0.3077
  149SAPE   O2216451   4.681   0.361  10.491 -0.4445  0.2707  0.0891
  149SAPE   C2216452   4.466   0.393  10.390 -0.1260 -0.3697  0.0267
  149SAPE   H2R16453   4.370   0.340  10.407  0.0518 -0.6782  0.0656
  149SAPE   H2S16454   4.456   0.489  10.446 -1.9476  0.5589 -1.7649
  149SAPE    C316455   4.745   0.068  10.482  0.1821  0.7689 -0.5987
  149SAPE    HX16456   4.796  -0.002  10.551  0.0141  2.3545  1.2126
  149SAPE    HY16457   4.816   0.153  10.471  0.5675  0.4735 -0.3958
  149SAPE   O3116458   4.704   0.005  10.357 -0.2906  0.0246 -0.3426
  149SAPE   C3116459   4.784   0.026  10.249  0.8790 -0.0169 -0.7369
  149SAPE   O3216460   4.887   0.090  10.245 -0.0814 -0.2425  0.5853
  149SAPE   C3216461   4.722  -0.053  10.130 -0.4954 -0.6677 -0.5164
  149SAPE   H2X16462   4.624  -0.007  10.105 -0.7418 -1.5134 -1.1532
  149SAPE   H2Y16463   4.704  -0.160  10.150  0.0272 -0.5228  0.8589
  149SAPE   C2316464   4.513   0.418  10.241 -0.4575  0.2058  0.0309
  149SAPE   H3R16465   4.619   0.450  10.244 -0.7047  1.0388  0.1673
  149SAPE   H3S16466   4.458   0.507  10.202 -0.5519  0.0981 -0.0827
  149SAPE   C2416467   4.493   0.293  10.145 -0.6003 -0.0224  0.6463
  149SAPE   H4R16468   4.392   0.279  10.101 -1.1194 -1.4428  2.1679
  149SAPE   H4S16469   4.520   0.200  10.199 -1.6333 -0.3517  0.6205
  149SAPE   C2516470   4.608   0.295  10.045 -0.0252  0.0177  0.7553
  149SAPE   H5R16471   4.707   0.287  10.093  0.5899  1.3666 -0.2031
  149SAPE   C2616472   4.609   0.297   9.912 -0.3630 -0.1891  0.2406
  149SAPE   H6R16473   4.706   0.270   9.867 -1.1317 -1.6159 -0.6535
  149SAPE   C2716474   4.487   0.302   9.817 -0.0847  0.3527 -0.5511
  149SAPE   H7R16475   4.460   0.406   9.788  0.5201  2.0476  4.0070
  149SAPE   H7S16476   4.402   0.264   9.877  0.3645  0.0259 -0.1078
  149SAPE   C2816477   4.510   0.208   9.704  0.8213  0.2102 -0.9976
  149SAPE   H8R16478   4.518   0.103   9.734 -1.0405  0.9478  2.5393
  149SAPE   C2916479   4.514   0.239   9.572 -0.5667 -0.0555 -0.2851
  149SAPE   H9R16480   4.513   0.161   9.495 -0.6079  0.1514 -0.4954
  149SAPE  C21016481   4.509   0.372   9.502  0.3031  0.0796  0.2820
  149SAPE  H10R16482   4.483   0.448   9.579 -1.1961 -0.9142  0.8155
  149SAPE  H10S16483   4.418   0.387   9.440 -1.1950 -1.6393  1.9523
  149SAPE  C21116484   4.630   0.423   9.429 -0.3146  0.2039 -1.1125
  149SAPE  H11R16485   4.723   0.390   9.477 -0.3197  0.8064 -0.6774
  149SAPE  C21216486   4.648   0.472   9.304 -0.1085 -0.0731 -0.1432
  149SAPE  H12R16487   4.745   0.499   9.260  0.4427 -1.7179  0.0071
  149SAPE  C21316488   4.534   0.494   9.207  0.2689  0.3580  0.3717
  149SAPE  H13R16489   4.573   0.570   9.136 -1.9298  4.3988  3.1006
  149SAPE  H13S16490   4.448   0.547   9.254 -1.4451 -1.7587 -0.1864
  149SAPE  C21416491   4.468   0.374   9.146 -0.4324 -0.2370 -0.5335
  149SAPE  H14R16492   4.440   0.292   9.214  0.0630 -0.3463 -0.4565
  149SAPE  C21516493   4.444   0.371   9.013 -0.1231 -0.4652  0.8618
  149SAPE  H15R16494   4.386   0.283   8.980  1.2753 -1.3148  0.5792
  149SAPE  C21616495   4.458   0.481   8.909 -0.4198 -0.0778  0.0268
  149SAPE  H16R16496   4.510   0.443   8.819 -1.3463  1.6947 -1.3007
  149SAPE  H16S16497   4.502   0.576   8.946 -2.5162  0.3818  1.4675
  149SAPE  C21716498   4.321   0.519   8.851  0.0129  0.4270 -0.2319
  149SAPE  H17R16499   4.238   0.521   8.925  2.1835  2.3105  2.3298
  149SAPE  H17S16500   4.297   0.441   8.775 -1.0154 -1.8834  2.2579
  149SAPE  C21816501   4.321   0.665   8.798  0.1083 -0.1652 -0.9260
  149SAPE  H18R16502   4.419   0.674   8.745  2.3372  0.5319  2.9487
  149SAPE  H18S16503   4.336   0.730   8.887 -0.1486 -0.2354 -0.8303
  149SAPE  C21916504   4.199   0.710   8.715 -0.0488 -0.3918  0.4087
  149SAPE  H19R16505   4.110   0.688   8.778 -0.3409 -1.8124 -0.4604
  149SAPE  H19S16506   4.195   0.652   8.621 -1.9540  1.5055 -0.7537
  149SAPE  C22016507   4.209   0.855   8.685  0.1820 -0.4641 -0.0771
  149SAPE  H20R16508   4.199   0.916   8.778  1.3125 -1.2883  0.6213
  149SAPE  H20S16509   4.127   0.880   8.615  0.1482 -0.9695 -0.2237
  149SAPE  H20T16510   4.309   0.874   8.640 -0.4871  1.9254 -0.7013
  149SAPE   C3316511   4.819  -0.042  10.010 -0.0837 -0.0096  0.2857
  149SAPE   H3X16512   4.919  -0.088  10.022 -0.5087 -0.2541  4.5403
  149SAPE   H3Y16513   4.823   0.068   9.992  1.8426 -0.0326  0.3794
  149SAPE   C3416514   4.759  -0.094   9.879 -0.1235 -0.6634  0.5445
  149SAPE   H4X16515   4.653  -0.065   9.862  0.2963 -0.0421 -1.2173
  149SAPE   H4Y16516   4.747  -0.204   9.888  2.1246 -1.0070 -0.0930
  149SAPE   C3516517   4.860  -0.054   9.770  0.0317  0.4137 -0.6138
  149SAPE   H5X16518   4.953  -0.114   9.774  0.1082  0.3225 -2.5290
  149SAPE   H5Y16519   4.881   0.054   9.787 -1.1218  0.3159  1.7437
  149SAPE   C3616520   4.790  -0.070   9.631  0.2442 -0.2924  0.2228
  149SAPE   H6X16521   4.686  -0.032   9.635 -0.1206 -1.2467  0.0241
  149SAPE   H6Y16522   4.782  -0.177   9.603  2.0226 -0.4819  0.3595
  149SAPE   C3716523   4.873  -0.001   9.517  0.1763  0.2202  0.5779
  149SAPE   H7X16524   4.977  -0.040   9.508 -0.1109 -0.7060  1.0453
  149SAPE   H7Y16525   4.890   0.102   9.555  2.9696 -0.5075  1.5266
  149SAPE   C3816526   4.799  -0.008   9.386 -0.9292  0.0699  0.7931
  149SAPE   H8X16527   4.692   0.017   9.401 -1.8703 -1.5455 -2.3593
  149SAPE   H8Y16528   4.809  -0.111   9.345  0.5579 -0.2643  1.8695
  149SAPE   C3916529   4.852   0.096   9.275  0.6225 -0.0063 -0.3023
  149SAPE   H9X16530   4.963   0.096   9.287  0.4429  0.4306  1.7716
  149SAPE   H9Y16531   4.824   0.198   9.307  3.0132  1.0870 -1.4299
  149SAPE  C31016532   4.796   0.076   9.131  0.1872  0.4400 -0.5216
  149SAPE  H10X16533   4.688   0.094   9.146 -0.1917  1.3919 -3.7463
  149SAPE  H10Y16534   4.813  -0.028   9.095 -0.7057  1.0158 -2.7395
  149SAPE  C31116535   4.855   0.182   9.034  0.3329  0.0330 -0.0520
  149SAPE  H11X16536   4.964   0.171   9.016  0.0435 -0.8037 -1.4690
  149SAPE  H11Y16537   4.842   0.284   9.076 -2.3566 -0.0656 -0.4973
  149SAPE  C31216538   4.784   0.178   8.896 -0.0286 -0.2676  0.7753
  149SAPE  H12X16539   4.677   0.200   8.916  0.1830  0.1829  1.4194
  149SAPE  H12Y16540   4.786   0.077   8.849  0.1917  0.1809 -0.2014
  149SAPE  C31316541   4.835   0.286   8.795  0.1778 -0.0727 -0.1829
  149SAPE  H13X16542   4.945   0.292   8.786  0.1575  1.1854  0.2694
  149SAPE  H13Y16543   4.794   0.384   8.826 -2.4110 -1.5777  1.5323
  149SAPE  C31416544   4.775   0.250   8.659 -0.2792 -0.0883  0.5881
  149SAPE  H14X16545   4.664   0.257   8.661 -0.1947  2.2365  0.6105
  149SAPE  H14Y16546   4.808   0.153   8.616  0.3017  0.1421  0.5032
  149SAPE  C31516547   4.815   0.354   8.554 -0.4074  0.0175  0.6853
  149SAPE  H15X16548   4.923   0.333   8.540 -0.4042  1.1241 -1.3365
  149SAPE  H15Y16549   4.805   0.459   8.590  0.7086 -0.7308  3.4980
  149SAPE  C31616550   4.731   0.343   8.423 -0.8305 -0.1390 -0.1545
  149SAPE  H16X16551   4.621   0.340   8.439 -0.9864  1.8757 -0.5544
  149SAPE  H16Y16552   4.772   0.250   8.377  1.2815  0.3223  0.6815
  149SAPE  C31716553   4.768   0.452   8.326 -0.4027  0.0974 -0.3419
  149SAPE  H17X16554   4.737   0.416   8.225  1.5706  1.8035 -1.6581
  149SAPE  H17Y16555   4.876   0.475   8.323 -0.3964  0.4741  1.8320
  149SAPE  C31816556   4.691   0.587   8.356  0.5553 -0.3761 -0.1858
  149SAPE  H18X16557   4.728   0.638   8.448  1.5883  0.8334 -1.2263
  149SAPE  H18Y16558   4.582   0.571   8.362  0.5675 -0.6086 -0.5935
  149SAPE  H18Z16559   4.721   0.652   8.271 -1.7606  1.5569  0.3492
  150SAPE     N16560   0.227   5.973  10.628 -0.4618 -0.1903 -0.4758
  150SAPE   HN116561   0.267   6.064  10.600  1.1490 -1.2644 -1.8491
  150SAPE   HN216562   0.296   5.899  10.606 -1.4918 -0.8817 -1.4578
  150SAPE   HN316563   0.140   5.951  10.575 -0.6370  1.1251 -0.7645
  150SAPE   C1216564   0.169   5.980  10.762  0.0917  0.2026 -0.5652
  150SAPE  H12A16565   0.089   6.057  10.759  1.0258  1.1993 -1.0177
  150SAPE  H12B16566   0.249   6.016  10.830  1.9122  0.4015 -2.6812
  150SAPE   C1116567   0.110   5.844  10.804 -0.6081 -0.4589 -0.0357
  150SAPE  H11A16568   0.027   5.821  10.733  2.2182 -2.1883 -3.0518
  150SAPE  H11B16569   0.077   5.863  10.908  3.9839  0.5055  1.4762
  150SAPE     P16570   0.193   5.599  10.897 -0.2188  0.4485  0.3451
  150SAPE   O1316571   0.333   5.546  10.930  0.2716 -0.4458 -0.5234
  150SAPE   O1416572   0.100   5.613  11.010 -0.0421 -0.0396 -0.5022
  150SAPE   O1216573   0.193   5.727  10.806  0.1908  0.0001 -0.1493
  150SAPE   O1116574   0.127   5.505  10.790  0.5212 -0.2949 -0.1220
  150SAPE    C116575   0.206   5.412  10.717  0.8246 -0.4820  0.3414
  150SAPE    HA16576   0.297   5.383  10.774  0.5154  0.0954  1.1329
  150SAPE    HB16577   0.148   5.320  10.692  1.0112  0.1720 -2.9382
  150SAPE    C216578   0.246   5.477  10.577 -0.2306 -0.7807  0.5970
  150SAPE    HS16579   0.292   5.575  10.599  0.0641 -0.7514 -0.1300
  150SAPE   O2116580   0.129   5.499  10.503 -0.2964 -0.1037  0.5951
  150SAPE   C2116581   0.095   5.627  10.469 -0.7040  0.4248  0.5098
  150SAPE   O2216582   0.158   5.723  10.496 -0.0547 -0.2704 -1.1440
  150SAPE   C2216583  -0.042   5.639  10.404  0.0721  0.7724  0.1292
  150SAPE   H2R16584  -0.115   5.594  10.474  0.4808 -2.1495 -1.1655
  150SAPE   H2S16585  -0.051   5.748  10.386  0.6274  0.9149  0.6951
  150SAPE    C316586   0.346   5.390  10.498 -0.5194  0.0093 -0.2390
  150SAPE    HX16587   0.319   5.284  10.515  0.2797 -0.1561  0.0506
  150SAPE    HY16588   0.447   5.403  10.544 -0.2383 -0.7048 -0.6406
  150SAPE   O3116589   0.367   5.435  10.360 -0.0760  0.0218  0.1857
  150SAPE   C3116590   0.294   5.370  10.266  0.1208 -0.5397  0.3395
  150SAPE   O3216591   0.230   5.268  10.278 -0.1186 -0.6778  0.3376
  150SAPE   C3216592   0.311   5.437  10.120  0.0406  0.1124  0.2398
  150SAPE   H2X16593   0.410   5.396  10.091 -0.1382 -0.0671 -0.1251
  150SAPE   H2Y16594   0.325   5.547  10.123 -0.2358  0.2327 -1.8344
  150SAPE   C2316595  -0.036   5.551  10.274  1.0483  0.4891 -0.4325
  150SAPE   H3R16596  -0.027   5.449  10.316 -1.2269 -1.1563 -3.5174
  150SAPE   H3S16597   0.052   5.576  10.210 -0.7810 -1.8619 -4.2090
  150SAPE   C2416598  -0.157   5.568  10.189  0.0948  0.6367 -0.1483
  150SAPE   H4R16599  -0.151   5.676  10.162  0.9347  0.2267 -1.7075
  150SAPE   H4S16600  -0.249   5.552  10.250 -0.8500 -0.0684 -1.6890
  150SAPE   C2516601  -0.149   5.493  10.066  0.2102 -0.4892  0.5235
  150SAPE   H5R16602  -0.159   5.385  10.083 -1.7110 -0.7763 -1.9399
  150SAPE   C2616603  -0.153   5.544   9.946 -0.1542  0.5828  0.2528
  150SAPE   H6R16604  -0.122   5.478   9.864  0.1288 -1.1007  1.6499
  150SAPE   C2716605  -0.169   5.686   9.902 -0.4406 -0.6434 -0.5040
  150SAPE   H7R16606  -0.228   5.736   9.982 -1.5805 -0.1456 -1.6157
  150SAPE   H7S16607  -0.225   5.696   9.807  0.2946  1.8315 -0.7528
  150SAPE   C2816608  -0.040   5.769   9.882 -0.3554 -0.1597 -0.5183
  150SAPE   H8R16609   0.023   5.775   9.972  0.5393 -0.5022 -1.1046
  150SAPE   C2916610  -0.008   5.838   9.768 -0.7622  0.5408 -0.6041
  150SAPE   H9R16611   0.084   5.898   9.766 -0.1789 -0.1828  1.6571
  150SAPE  C21016612  -0.098   5.854   9.653 -0.5341  0.6593 -0.8692
  150SAPE  H10R16613  -0.160   5.937   9.693 -0.7335 -0.2556  0.8353
  150SAPE  H10S16614  -0.171   5.772   9.634  0.2618 -0.2827 -0.0216
  150SAPE  C21116615  -0.033   5.904   9.528  0.1590 -0.5614 -0.1400
  150SAPE  H11R16616   0.053   5.972   9.535 -1.6061  1.8175 -0.4127
  150SAPE  C21216617  -0.058   5.851   9.405 -0.4757  0.7302 -0.0335
  150SAPE  H12R16618  -0.021   5.897   9.313 -0.5105  0.4997 -0.1654
  150SAPE  C21316619  -0.154   5.729   9.380 -0.0428 -0.4681 -0.2797
  150SAPE  H13R16620  -0.170   5.731   9.270 -0.4188 -0.5656 -0.2254
  150SAPE  H13S16621  -0.251   5.746   9.432 -1.7142 -0.9797 -3.0336
  150SAPE  C21416622  -0.112   5.591   9.429 -0.4264 -0.1657 -0.0024
  150SAPE  H14R16623  -0.090   5.579   9.536  1.8266  1.2845 -0.2382
  150SAPE  C21516624  -0.101   5.480   9.359  0.4083 -0.4935  1.1184
  150SAPE  H15R16625  -0.052   5.391   9.400  1.1132 -2.3645 -3.2211
  150SAPE  C21616626  -0.123   5.479   9.202 -0.5751  0.1826  0.1492
  150SAPE  H16R16627  -0.083   5.380   9.171 -0.1069  0.7245 -1.0656
  150SAPE  H16S16628  -0.055   5.559   9.166  2.3253 -1.2411  2.0721
  150SAPE  C21716629  -0.266   5.503   9.151  0.4714  0.0744 -0.9297
  150SAPE  H17R16630  -0.307   5.598   9.190 -0.7821 -0.2050 -1.4907
  150SAPE  H17S16631  -0.331   5.422   9.192  1.4644 -0.9135 -1.2523
  150SAPE  C21816632  -0.291   5.499   8.998  0.4028  0.2201 -0.1347
  150SAPE  H18R16633  -0.401   5.508   8.987  0.4794  1.1910 -0.2612
  150SAPE  H18S16634  -0.273   5.398   8.957 -2.6254 -0.8118  0.8160
  150SAPE  C21916635  -0.222   5.610   8.918 -0.3987  0.6061 -0.1716
  150SAPE  H19R16636  -0.246   5.586   8.812 -1.6536 -0.7264  0.3705
  150SAPE  H19S16637  -0.113   5.612   8.935 -0.5057  0.7700  0.5661
  150SAPE  C22016638  -0.269   5.753   8.949 -0.7460  0.8052 -0.1295
  150SAPE  H20R16639  -0.297   5.775   9.055  0.9449  0.7154  0.3734
  150SAPE  H20S16640  -0.356   5.778   8.885 -0.6087  1.8516  0.0712
  150SAPE  H20T16641  -0.194   5.826   8.914 -0.7846  0.4496 -0.9667
  150SAPE   C3316642   0.208   5.386  10.021  0.3057  0.0442 -0.0516
  150SAPE   H3X16643   0.108   5.430  10.038  1.2558  1.7993  1.2491
  150SAPE   H3Y16644   0.196   5.276  10.026  2.8872 -0.3190 -0.3339
  150SAPE   C3416645   0.249   5.424   9.877  0.8335 -0.0259 -0.7980
  150SAPE   H4X16646   0.358   5.420   9.855  0.9223 -0.3933 -0.3361
  150SAPE   H4Y16647   0.214   5.529   9.868  0.7844 -0.1604 -2.3514
  150SAPE   C3516648   0.182   5.338   9.774 -0.8532  0.4911  0.4125
  150SAPE   H5X16649   0.073   5.352   9.786 -0.9797 -0.7001  0.8550
  150SAPE   H5Y16650   0.202   5.232   9.803 -1.6926  0.8422  2.4746
  150SAPE   C3616651   0.228   5.362   9.619  0.2899 -0.0117 -0.8254
  150SAPE   H6X16652   0.335   5.392   9.624  0.6717 -1.5304  2.2047
  150SAPE   H6Y16653   0.164   5.450   9.594  0.5037  1.5777  3.4645
  150SAPE   C3716654   0.213   5.250   9.521 -0.2398 -0.0305  0.1601
  150SAPE   H7X16655   0.106   5.219   9.515  0.0715 -1.0283 -0.5487
  150SAPE   H7Y16656   0.268   5.160   9.557  0.4031  1.0045  1.9249
  150SAPE   C3816657   0.278   5.283   9.387  0.7415  0.8395  0.0594
  150SAPE   H8X16658   0.387   5.307   9.387  0.8370  0.4223 -0.1555
  150SAPE   H8Y16659   0.209   5.358   9.344 -2.9540 -0.5105  3.0555
  150SAPE   C3916660   0.257   5.164   9.286 -0.1525  0.2402  0.7553
  150SAPE   H9X16661   0.150   5.146   9.263 -0.5373  1.8434  1.1692
  150SAPE   H9Y16662   0.289   5.076   9.344 -0.7967 -1.1358 -0.8727
  150SAPE  C31016663   0.332   5.175   9.152  0.1599 -0.1291 -0.6289
  150SAPE  H10X16664   0.438   5.168   9.185 -0.5308 -0.8357  1.6417
  150SAPE  H10Y16665   0.311   5.274   9.106  0.9001  1.0671  1.4308
  150SAPE  C31116666   0.294   5.070   9.048  0.2103 -0.0455  0.1226
  150SAPE  H11X16667   0.183   5.068   9.042  0.1149  3.1941 -2.3522
  150SAPE  H11Y16668   0.332   4.973   9.087  0.1204  0.1405  0.6772
  150SAPE  C31216669   0.349   5.100   8.907  0.2690 -1.0808  0.5675
  150SAPE  H12X16670   0.457   5.122   8.914 -0.0427  0.0360  3.3405
  150SAPE  H12Y16671   0.296   5.192   8.874 -0.3150 -1.4356  0.4929
  150SAPE  C31316672   0.311   4.992   8.804  0.3476  0.3575  0.4344
  150SAPE  H13X16673   0.204   4.970   8.824 -0.0658  0.7287 -1.2029
  150SAPE  H13Y16674   0.364   4.899   8.835  0.7864  0.6834  0.6675
  150SAPE  C31416675   0.322   5.031   8.659 -0.2266 -0.1182  0.1653
  150SAPE  H14X16676   0.422   5.077   8.646 -1.5711  2.3871 -2.2236
  150SAPE  H14Y16677   0.255   5.118   8.645  0.9444  0.8424  0.3466
  150SAPE  C31516678   0.299   4.908   8.572 -0.4042  0.4347  0.1168
  150SAPE  H15X16679   0.191   4.888   8.557 -0.3772 -0.8865  1.5609
  150SAPE  H15Y16680   0.353   4.825   8.622 -0.0573  0.4534 -0.2225
  150SAPE  C31616681   0.347   4.903   8.423 -0.5625  0.5063 -0.3868
  150SAPE  H16X16682   0.455   4.931   8.420  0.1031 -1.6177  1.0740
  150SAPE  H16Y16683   0.288   4.975   8.362  0.5602  0.3192 -1.7412
  150SAPE  C31716684   0.331   4.758   8.364  0.2950  0.1521 -0.2458
  150SAPE  H17X16685   0.362   4.682   8.439  3.0432 -0.7571 -2.1539
  150SAPE  H17Y16686   0.409   4.756   8.285  1.2374 -0.3358  0.6829
  150SAPE  C31816687   0.196   4.732   8.302 -0.6125 -0.1067  0.2273
  150SAPE  H18X16688   0.183   4.624   8.282  1.4645 -0.3481  0.0206
  150SAPE  H18Y16689   0.182   4.790   8.209 -0.6451  2.6879  1.8484
  150SAPE  H18Z16690   0.125   4.767   8.380  1.3167  2.5445  0.9554
  151SAPE     N16691   5.172   2.253  10.420  0.1991  0.3049 -0.2812
  151SAPE   HN116692   5.204   2.337  10.471  1.8744 -0.5734  0.1819
  151SAPE   HN216693   5.180   2.282  10.320  0.3575  1.2458 -0.0019
  151SAPE   HN316694   5.073   2.229  10.440  0.7235 -1.7477  0.0324
  151SAPE   C1216695   5.279   2.150  10.448  0.5058  0.2123  0.3089
  151SAPE  H12A16696   5.267   2.064  10.380  0.3760  1.0607 -0.7645
  151SAPE  H12B16697   5.279   2.128  10.557  0.7733 -0.5319  0.1599
  151SAPE   C1116698   5.420   2.203  10.405 -0.1612  0.0372 -0.0488
  151SAPE  H11A16699   5.409   2.224  10.296 -2.8297 -0.9357 -0.0488
  151SAPE  H11B16700   5.496   2.122  10.411 -0.5449 -0.3299 -0.0800
  151SAPE     P16701   5.463   2.455  10.427  0.0053 -0.1853  0.1882
  151SAPE   O1316702   5.323   2.502  10.437 -0.5803  0.0942 -0.2671
  151SAPE   O1416703   5.565   2.533  10.500 -0.4048 -0.2805 -0.4350
  151SAPE   O1216704   5.467   2.313  10.485  0.0932  0.3755  0.2486
  151SAPE   O1116705   5.487   2.433  10.271 -1.1405 -0.2558  0.0324
  151SAPE    C116706   5.615   2.475  10.227  0.8755  0.3784  0.6924
  151SAPE    HA16707   5.627   2.585  10.234 -0.6245  0.5038  1.5876
  151SAPE    HB16708   5.695   2.429  10.289 -0.1472 -1.1823  0.8896
  151SAPE    C216709   5.651   2.432  10.084 -0.2912  0.1843 -0.1772
  151SAPE    HS16710   5.759   2.455  10.072 -0.5232  1.2003 -0.4176
  151SAPE   O2116711   5.572   2.500   9.986  0.2775 -0.2755  0.3472
  151SAPE   C2116712   5.629   2.507   9.863 -0.0292 -0.1411 -1.0776
  151SAPE   O2216713   5.733   2.456   9.833  0.0149  0.5656  0.1605
  151SAPE   C2216714   5.528   2.568   9.767  0.0193  0.4357 -0.1068
  151SAPE   H2R16715   5.426   2.524   9.769  0.3697 -0.3664  0.7728
  151SAPE   H2S16716   5.514   2.677   9.788  0.9763  0.9249 -1.8143
  151SAPE    C316717   5.628   2.281  10.068 -0.0858  0.5994  0.1048
  151SAPE    HX16718   5.526   2.243  10.091  0.6095 -0.2316  1.9530
  151SAPE    HY16719   5.691   2.231  10.145 -0.0444 -0.9534 -0.8980
  151SAPE   O3116720   5.670   2.227   9.944 -0.3401  0.0108  0.4645
  151SAPE   C3116721   5.794   2.186   9.923 -0.1428 -0.1900 -0.4336
  151SAPE   O3216722   5.880   2.182  10.010  0.6616  0.2530 -0.1686
  151SAPE   C3216723   5.798   2.146   9.776 -0.7134  0.2377  0.3127
  151SAPE   H2X16724   5.845   2.238   9.736  1.3148 -0.3182  1.2705
  151SAPE   H2Y16725   5.694   2.131   9.743 -2.1675  2.8180  3.1893
  151SAPE   C2316726   5.579   2.563   9.621 -0.3860 -0.4908 -0.0017
  151SAPE   H3R16727   5.685   2.594   9.617 -1.0044  1.6567 -1.2106
  151SAPE   H3S16728   5.530   2.649   9.570  0.6722 -0.2859 -0.6804
  151SAPE   C2416729   5.553   2.432   9.562  0.1780  0.6869  0.2076
  151SAPE   H4R16730   5.448   2.443   9.529  0.6322  0.3372 -1.4454
  151SAPE   H4S16731   5.570   2.351   9.636  3.4488  1.8230  0.8671
  151SAPE   C2516732   5.637   2.399   9.436 -0.0787 -0.5537  0.2020
  151SAPE   H5R16733   5.715   2.323   9.446  0.4756 -0.5123 -2.8357
  151SAPE   C2616734   5.633   2.461   9.322  0.3853 -0.4045  0.1730
  151SAPE   H6R16735   5.682   2.418   9.233  0.2385  0.0074 -0.1098
  151SAPE   C2716736   5.541   2.573   9.277  0.1691 -0.1152 -0.2592
  151SAPE   H7R16737   5.607   2.659   9.253  1.6849 -0.7803  1.3071
  151SAPE   H7S16738   5.474   2.611   9.357  1.2856  1.3413  0.0238
  151SAPE   C2816739   5.467   2.547   9.147 -1.0119 -0.6309 -0.3088
  151SAPE   H8R16740   5.387   2.473   9.144  0.6014 -2.5831  1.6172
  151SAPE   C2916741   5.505   2.596   9.025  0.5430 -0.8674  0.4229
  151SAPE   H9R16742   5.432   2.577   8.946  0.7843  0.5379 -0.1650
  151SAPE  C21016743   5.620   2.687   8.985  0.8306  0.2666  0.0115
  151SAPE  H10R16744   5.639   2.764   9.062 -0.1972  0.7709 -0.2275
  151SAPE  H10S16745   5.592   2.740   8.892  2.1832 -2.5926 -2.1961
  151SAPE  C21116746   5.737   2.599   8.957 -0.3641 -0.1213 -0.3658
  151SAPE  H11R16747   5.796   2.567   9.044  1.4386  0.9949 -1.1161
  151SAPE  C21216748   5.784   2.560   8.838  0.3764  0.1629  0.2064
  151SAPE  H12R16749   5.868   2.489   8.834 -0.8290 -1.2587 -0.6200
  151SAPE  C21316750   5.719   2.596   8.710  0.6881 -1.0774  0.8469
  151SAPE  H13R16751   5.768   2.547   8.623  0.7177  0.9126 -0.3217
  151SAPE  H13S16752   5.729   2.706   8.696 -0.5028 -0.9536  0.9201
  151SAPE  C21416753   5.577   2.552   8.685 -0.0215 -0.4893  0.7982
  151SAPE  H14R16754   5.534   2.485   8.760 -1.3530 -0.1186  0.3999
  151SAPE  C21516755   5.512   2.565   8.564  0.1407  0.2435 -0.5497
  151SAPE  H15R16756   5.408   2.530   8.564  0.7403 -1.6727  0.0559
  151SAPE  C21616757   5.570   2.641   8.441  0.4873  0.0688 -0.2788
  151SAPE  H16R16758   5.539   2.589   8.348 -1.0716 -0.0618  0.2707
  151SAPE  H16S16759   5.680   2.646   8.449  0.6700 -1.4466 -1.3673
  151SAPE  C21716760   5.517   2.784   8.436 -0.1481 -0.0984 -0.9364
  151SAPE  H17R16761   5.578   2.847   8.505  0.4110 -0.6072 -0.9513
  151SAPE  H17S16762   5.408   2.792   8.452 -0.2122 -0.4387 -1.1937
  151SAPE  C21816763   5.542   2.854   8.296  0.8161  0.2322  0.0153
  151SAPE  H18R16764   5.455   2.841   8.227 -0.4142  3.1767  0.8453
  151SAPE  H18S16765   5.638   2.808   8.266  0.9806  1.0340 -0.7446
  151SAPE  C21916766   5.570   3.001   8.308 -0.3371  0.4846  0.1634
  151SAPE  H19R16767   5.582   3.048   8.208 -0.2068  2.6041  1.1265
  151SAPE  H19S16768   5.665   3.016   8.363 -1.1714 -0.0057  1.7944
  151SAPE  C22016769   5.471   3.080   8.387  0.3201  0.1446 -0.3520
  151SAPE  H20R16770   5.366   3.058   8.361 -0.6797  3.4441  0.4114
  151SAPE  H20S16771   5.484   3.186   8.356 -1.7442  0.8927  1.1276
  151SAPE  H20T16772   5.488   3.068   8.496 -0.5302  1.3265 -0.0773
  151SAPE   C3316773   5.886   2.023   9.757 -0.1139  0.7949 -0.6509
  151SAPE   H3X16774   5.839   1.938   9.811 -1.9238  0.1791 -2.9974
  151SAPE   H3Y16775   5.988   2.046   9.794 -0.1927 -1.6331  1.2982
  151SAPE   C3416776   5.904   1.993   9.609 -0.4857 -0.4475  0.4012
  151SAPE   H4X16777   5.812   1.946   9.568 -0.9569  0.2932  0.5817
  151SAPE   H4Y16778   5.992   1.927   9.596 -0.9827 -0.6406 -2.8247
  151SAPE   C3516779   5.929   2.133   9.530  0.4547 -0.6220 -0.2635
  151SAPE   H5X16780   6.006   2.187   9.588 -1.5270 -1.4999  3.5504
  151SAPE   H5Y16781   5.837   2.195   9.521  1.5790  0.9741 -1.1306
  151SAPE   C3616782   5.986   2.103   9.390  0.5168  0.1095 -0.2194
  151SAPE   H6X16783   6.071   2.031   9.398  0.2591 -0.0586  1.4602
  151SAPE   H6Y16784   6.017   2.203   9.351  3.3923  0.3029  2.1691
  151SAPE   C3716785   5.898   2.033   9.283 -0.5876  0.0495  0.5946
  151SAPE   H7X16786   5.847   1.950   9.336 -1.2922  0.4447  0.5398
  151SAPE   H7Y16787   5.968   1.986   9.210 -0.6300  0.5191  0.2481
  151SAPE   C3816788   5.794   2.124   9.214  0.4820  0.4815 -0.4677
  151SAPE   H8X16789   5.736   2.174   9.294  2.2584 -0.4303  1.4865
  151SAPE   H8Y16790   5.717   2.062   9.163 -2.0066  1.2812  2.1046
  151SAPE   C3916791   5.853   2.218   9.106  0.6490 -0.1804  0.0204
  151SAPE   H9X16792   5.895   2.307   9.157  0.6420 -0.0400 -0.2186
  151SAPE   H9Y16793   5.777   2.268   9.043  0.1188 -0.8268  0.1423
  151SAPE  C31016794   5.962   2.164   9.011  0.3596 -0.1965 -0.2762
  151SAPE  H10X16795   6.052   2.138   9.070 -0.1706  2.0966  1.6691
  151SAPE  H10Y16796   5.995   2.239   8.936  0.8352  0.1994  0.3203
  151SAPE  C31116797   5.933   2.038   8.929 -0.0330 -0.4782 -0.5008
  151SAPE  H11X16798   5.860   2.066   8.851  0.1786 -1.6472 -1.1527
  151SAPE  H11Y16799   5.902   1.946   8.984  2.0832 -1.1573 -0.3404
  151SAPE  C31216800   6.059   1.982   8.856  0.0988  0.3282 -0.0353
  151SAPE  H12X16801   6.140   1.957   8.928 -0.0772  3.6375  1.4949
  151SAPE  H12Y16802   6.101   2.059   8.788  2.1713 -1.2688 -0.6454
  151SAPE  C31316803   6.026   1.862   8.771  0.4395 -0.6104  0.0056
  151SAPE  H13X16804   5.943   1.902   8.709 -1.7156 -0.7545  2.5710
  151SAPE  H13Y16805   5.967   1.785   8.826 -3.1050  2.6228  1.1921
  151SAPE  C31416806   6.124   1.805   8.667  0.6358  0.7658 -0.2898
  151SAPE  H14X16807   6.219   1.783   8.720  0.6793  2.2084  0.2728
  151SAPE  H14Y16808   6.142   1.882   8.590  1.8445  0.4024 -0.3864
  151SAPE  C31516809   6.068   1.684   8.587  0.4168  0.5646  0.2077
  151SAPE  H15X16810   5.964   1.715   8.564  0.1397  0.1037  0.8109
  151SAPE  H15Y16811   6.056   1.602   8.661 -2.1682  0.5789 -0.1146
  151SAPE  C31616812   6.146   1.636   8.463  0.2209 -0.4913  0.0291
  151SAPE  H16X16813   6.244   1.598   8.500  0.1025 -1.6412 -0.7883
  151SAPE  H16Y16814   6.183   1.719   8.399 -1.1025  0.8900  0.9849
  151SAPE  C31716815   6.082   1.530   8.382  0.1693  1.6856  0.1758
  151SAPE  H17X16816   6.156   1.499   8.305  2.0775  0.8332  2.2460
  151SAPE  H17Y16817   5.991   1.574   8.335 -0.1339  0.2384 -0.6216
  151SAPE  C31816818   6.037   1.407   8.466 -0.3258  0.4117  0.2177
  151SAPE  H18X16819   6.122   1.337   8.476  1.0347  1.3007 -3.5418
  151SAPE  H18Y16820   5.961   1.373   8.392 -1.5218  0.0440  1.5797
  151SAPE  H18Z16821   5.986   1.444   8.558  0.8304  1.8353  0.3159
  152SAPE     N16822   0.285   1.352  10.831 -0.2443 -0.5828 -0.8489
  152SAPE   HN116823   0.305   1.276  10.899 -0.6181 -0.0347 -0.1075
  152SAPE   HN216824   0.377   1.372  10.786 -0.9615 -2.1434 -3.1855
  152SAPE   HN316825   0.241   1.429  10.886  0.3222 -1.4550  0.9206
  152SAPE   C1216826   0.175   1.312  10.747  0.2852  0.0768  0.6800
  152SAPE  H12A16827   0.132   1.397  10.690 -1.1350 -1.0953 -0.0599
  152SAPE  H12B16828   0.096   1.262  10.807  1.0220 -1.4395  0.4263
  152SAPE   C1116829   0.222   1.208  10.642 -0.3644 -0.2135 -0.0035
  152SAPE  H11A16830   0.318   1.244  10.598 -1.1808  0.0443 -1.6384
  152SAPE  H11B16831   0.154   1.209  10.555  1.1870 -0.0262 -1.2545
  152SAPE     P16832   0.375   0.997  10.698 -0.1980  0.3590 -0.0917
  152SAPE   O1316833   0.490   1.085  10.737  0.4875 -0.4749  0.3600
  152SAPE   O1416834   0.357   0.875  10.780  0.0087 -0.0592 -0.6605
  152SAPE   O1216835   0.242   1.077  10.699 -0.5889 -0.5211  0.3881
  152SAPE   O1116836   0.395   0.936  10.551  0.6248 -0.3187 -0.2537
  152SAPE    C116837   0.402   1.032  10.438  0.0960 -0.0705 -0.5010
  152SAPE    HA16838   0.408   1.140  10.464  1.4385  0.5015 -2.8875
  152SAPE    HB16839   0.479   1.004  10.362 -1.0803 -0.5454 -1.5471
  152SAPE    C216840   0.270   1.020  10.357 -0.2921  0.2683  0.6093
  152SAPE    HS16841   0.187   1.012  10.430  0.1190  2.9670  1.4990
  152SAPE   O2116842   0.286   0.898  10.284  0.1546  0.6075 -0.6793
  152SAPE   C2116843   0.182   0.835  10.245  0.5142  0.3703 -0.0069
  152SAPE   O2216844   0.065   0.864  10.258  0.6468  0.0481  0.2720
  152SAPE   C2216845   0.213   0.700  10.157  0.4365 -0.0737 -0.1450
  152SAPE   H2R16846   0.277   0.640  10.225  0.3089  2.9108  2.8753
  152SAPE   H2S16847   0.114   0.650  10.148  1.3074 -1.8654 -0.3489
  152SAPE    C316848   0.224   1.134  10.261  0.0276  0.0086 -0.1266
  152SAPE    HX16849   0.278   1.129  10.164  0.6071  1.0571  0.1304
  152SAPE    HY16850   0.260   1.228  10.308  3.2297 -1.1547  0.0042
  152SAPE   O3116851   0.084   1.133  10.226  0.2094 -0.5555 -0.3122
  152SAPE   C3116852   0.013   1.225  10.274  0.1744 -0.6112  1.2460
  152SAPE   O3216853   0.051   1.317  10.339 -0.1502  0.1620  0.7439
  152SAPE   C3216854  -0.133   1.191  10.224 -0.7644  0.0131 -1.2108
  152SAPE   H2X16855  -0.205   1.275  10.240  0.6191  1.3848 -1.9787
  152SAPE   H2Y16856  -0.165   1.099  10.277 -0.1569 -0.4311 -1.6051
  152SAPE   C2316857   0.290   0.723  10.026 -0.0624  0.3455  0.2369
  152SAPE   H3R16858   0.293   0.634   9.959  1.4934  0.3081  0.3171
  152SAPE   H3S16859   0.388   0.762  10.060  0.4624 -1.1266  0.5070
  152SAPE   C2416860   0.234   0.829   9.935 -0.0332 -0.0905  0.3810
  152SAPE   H4R16861   0.284   0.817   9.837 -1.1469 -1.2011 -0.0763
  152SAPE   H4S16862   0.244   0.933   9.974 -2.6970  0.4237 -0.0510
  152SAPE   C2516863   0.086   0.818   9.904  0.3223 -0.9099 -0.0914
  152SAPE   H5R16864   0.016   0.812   9.989  0.5780  0.2994  0.2161
  152SAPE   C2616865   0.038   0.818   9.783  0.7931  0.2832  0.4344
  152SAPE   H6R16866  -0.072   0.822   9.777  0.9080  1.6336 -1.8858
  152SAPE   C2716867   0.110   0.814   9.654 -0.4404 -0.1826  0.9347
  152SAPE   H7R16868   0.200   0.749   9.651 -0.7240 -0.5501 -0.4619
  152SAPE   H7S16869   0.153   0.915   9.636 -2.4123  0.3677 -1.2460
  152SAPE   C2816870   0.023   0.786   9.536 -0.7422 -1.4954 -0.1552
  152SAPE   H8R16871  -0.043   0.699   9.552 -1.8824 -0.7652 -0.7128
  152SAPE   C2916872   0.032   0.851   9.417  0.1265  0.2237 -0.0265
  152SAPE   H9R16873  -0.029   0.800   9.341 -0.3916 -1.3434  1.3793
  152SAPE  C21016874   0.125   0.959   9.374 -0.1808  0.3606  0.0680
  152SAPE  H10R16875   0.161   0.944   9.270  2.6709 -1.2388  1.1502
  152SAPE  H10S16876   0.223   0.945   9.426  1.1303  2.1679 -1.7892
  152SAPE  C21116877   0.065   1.094   9.403  0.2323  0.1067  0.5359
  152SAPE  H11R16878   0.092   1.129   9.504  1.9354 -2.0022  0.8895
  152SAPE  C21216879  -0.002   1.169   9.314 -0.9095  0.1764 -0.5803
  152SAPE  H12R16880  -0.036   1.270   9.343  3.6085  1.1622  2.3929
  152SAPE  C21316881  -0.018   1.136   9.169  0.0135  0.1141  0.2448
  152SAPE  H13R16882  -0.070   1.039   9.149  1.9104 -0.5788 -1.7152
  152SAPE  H13S16883   0.085   1.119   9.130 -0.4799  0.0437 -1.0937
  152SAPE  C21416884  -0.082   1.248   9.089 -0.2522 -0.1831  1.1395
  152SAPE  H14R16885  -0.168   1.297   9.136 -0.6898 -1.4126  1.6707
  152SAPE  C21516886  -0.052   1.289   8.966 -0.3248 -0.2269  0.4249
  152SAPE  H15R16887  -0.110   1.376   8.930  0.0399 -0.8412 -1.8465
  152SAPE  C21616888   0.038   1.232   8.861  0.1872  0.5991 -0.1109
  152SAPE  H16R16889  -0.018   1.158   8.800 -1.4433  1.6435  0.0636
  152SAPE  H16S16890   0.117   1.175   8.915  1.6763  1.5044 -1.2641
  152SAPE  C21716891   0.107   1.326   8.756  0.3840 -0.6636 -0.4842
  152SAPE  H17R16892   0.189   1.391   8.793 -0.0756  0.4819 -1.4208
  152SAPE  H17S16893   0.038   1.378   8.687  0.7235 -0.6565 -0.8218
  152SAPE  C21816894   0.185   1.242   8.652 -0.1832  0.2007  0.1623
  152SAPE  H18R16895   0.116   1.171   8.601 -1.2344  0.6834  0.8803
  152SAPE  H18S16896   0.268   1.186   8.699  0.5524 -0.1282 -1.4736
  152SAPE  C21916897   0.254   1.326   8.537 -0.2490 -0.0662 -0.7353
  152SAPE  H19R16898   0.311   1.410   8.582  0.1384 -0.6559 -0.1134
  152SAPE  H19S16899   0.169   1.365   8.477 -0.9750 -1.1669 -0.4445
  152SAPE  C22016900   0.345   1.247   8.436  0.2323 -0.1946 -0.4062
  152SAPE  H20R16901   0.441   1.218   8.484 -1.4599 -0.7324  2.9631
  152SAPE  H20S16902   0.351   1.305   8.342  0.2055  0.6254  0.0838
  152SAPE  H20T16903   0.292   1.154   8.408 -0.5474  0.1052  0.0265
  152SAPE   C3316904  -0.143   1.174  10.068  0.2169  0.0003 -0.4031
  152SAPE   H3X16905  -0.071   1.091  10.057 -0.7974 -1.2581  1.8057
  152SAPE   H3Y16906  -0.107   1.268  10.021  0.8975  0.8439  1.6749
  152SAPE   C3416907  -0.286   1.127  10.031 -0.5966  0.2791  0.7768
  152SAPE   H4X16908  -0.339   1.209   9.977 -0.5091 -0.9973 -1.3619
  152SAPE   H4Y16909  -0.347   1.107  10.121 -1.1413 -0.5586  0.2320
  152SAPE   C3516910  -0.283   1.002   9.943 -0.2170 -0.2127 -0.0688
  152SAPE   H5X16911  -0.385   0.960   9.954 -0.9853  1.5708 -0.0752
  152SAPE   H5Y16912  -0.210   0.926   9.976 -0.2771  0.2704  1.2298
  152SAPE   C3616913  -0.263   1.037   9.791  0.2823 -0.3707 -0.7429
  152SAPE   H6X16914  -0.158   1.068   9.774 -0.4013  2.4159 -0.2914
  152SAPE   H6Y16915  -0.325   1.128   9.777 -0.9825 -1.0899 -0.0658
  152SAPE   C3716916  -0.318   0.934   9.699  1.0573 -0.2899 -0.9588
  152SAPE   H7X16917  -0.427   0.914   9.709  0.7950  0.3263 -2.2850
  152SAPE   H7Y16918  -0.276   0.832   9.714  0.9701 -0.2735 -0.6021
  152SAPE   C3816919  -0.298   0.972   9.555  0.4065 -0.0674 -0.0308
  152SAPE   H8X16920  -0.194   0.997   9.524 -0.0330 -0.6705 -2.1971
  152SAPE   H8Y16921  -0.368   1.056   9.534 -0.5284 -0.8758 -0.2000
  152SAPE   C3916922  -0.340   0.856   9.452 -0.4257 -0.3108 -0.0005
  152SAPE   H9X16923  -0.445   0.829   9.477  0.1113 -1.0074  1.6716
  152SAPE   H9Y16924  -0.263   0.780   9.477  1.8073  1.3708 -1.3736
  152SAPE  C31016925  -0.323   0.902   9.310  0.6695  0.0072 -0.2481
  152SAPE  H10X16926  -0.214   0.904   9.288  0.9198  1.5414  0.9444
  152SAPE  H10Y16927  -0.355   1.007   9.292 -0.8225 -0.7723 -2.6345
  152SAPE  C31116928  -0.393   0.800   9.219 -1.0626 -0.8846  0.2493
  152SAPE  H11X16929  -0.504   0.808   9.219 -0.9949  0.3387 -1.0844
  152SAPE  H11Y16930  -0.359   0.699   9.253  0.2654 -0.4638  0.2327
  152SAPE  C31216931  -0.360   0.819   9.067  0.9265 -0.0260 -0.4735
  152SAPE  H12X16932  -0.369   0.926   9.039 -0.2095  0.2397  0.8430
  152SAPE  H12Y16933  -0.430   0.765   9.000 -0.0868  0.2643  0.3405
  152SAPE  C31316934  -0.228   0.763   9.031  0.2113  0.2568  0.4564
  152SAPE  H13X16935  -0.242   0.653   9.035 -0.2646  0.3525  2.0915
  152SAPE  H13Y16936  -0.149   0.792   9.103  0.6515  1.4062 -0.4582
  152SAPE  C31416937  -0.197   0.814   8.893  0.0292 -0.2665 -0.0451
  152SAPE  H14X16938  -0.182   0.924   8.898 -1.3459 -0.0060 -1.1292
  152SAPE  H14Y16939  -0.291   0.800   8.836 -1.0147 -0.7077  1.6813
  152SAPE  C31516940  -0.079   0.747   8.831  0.2476 -0.3692 -0.8134
  152SAPE  H15X16941  -0.080   0.761   8.721  0.5802  0.4755 -0.7194
  152SAPE  H15Y16942  -0.082   0.637   8.850  1.8487  0.1663  3.7339
  152SAPE  C31616943   0.055   0.800   8.890 -0.3777 -0.7265 -0.1766
  152SAPE  H16X16944   0.067   0.774   8.997  0.2317 -0.0289 -0.0660
  152SAPE  H16Y16945   0.059   0.909   8.870 -2.9794 -0.5587 -0.1743
  152SAPE  C31716946   0.170   0.733   8.822  0.3201  0.7313 -0.4410
  152SAPE  H17X16947   0.152   0.712   8.715 -0.0261 -1.6169  0.0356
  152SAPE  H17Y16948   0.184   0.634   8.870 -0.2468  0.6444 -0.4528
  152SAPE  C31816949   0.299   0.824   8.809 -0.6424  0.0100  0.2234
  152SAPE  H18X16950   0.290   0.905   8.733 -2.4088  0.8878  1.3045
  152SAPE  H18Y16951   0.381   0.753   8.782 -0.4259  0.0718  0.7165
  152SAPE  H18Z16952   0.318   0.864   8.911  1.1998 -2.2010  0.8409
  153SAPE     N16953   1.150   3.028  10.352 -0.1698  0.5327  0.1536
  153SAPE   HN116954   1.058   2.979  10.354 -1.1493  2.3008  0.0143
  153SAPE   HN216955   1.143   3.110  10.416  1.5045  1.3969 -0.7149
  153SAPE   HN316956   1.161   3.065  10.256 -1.1136  2.0061  0.5725
  153SAPE   C1216957   1.247   2.915  10.386  0.1723  0.1247 -0.7203
  153SAPE  H12A16958   1.349   2.958  10.379 -0.1104  0.8999 -0.1342
  153SAPE  H12B16959   1.233   2.835  10.310 -2.2468  1.3393 -1.6377
  153SAPE   C1116960   1.204   2.862  10.522  0.2546  0.5822  0.2857
  153SAPE  H11A16961   1.231   2.933  10.602 -0.9353 -3.3346  4.6384
  153SAPE  H11B16962   1.257   2.768  10.549 -0.6132  1.0100  4.1331
  153SAPE     P16963   0.995   2.762  10.651 -0.2295 -0.5953  0.1474
  153SAPE   O1316964   1.084   2.785  10.774  0.2404 -0.2862  0.3534
  153SAPE   O1416965   0.860   2.814  10.663 -0.3313 -0.6412 -0.0598
  153SAPE   O1216966   1.063   2.830  10.522 -0.1648  0.1918  0.5491
  153SAPE   O1116967   0.988   2.607  10.618 -0.1158  0.0804  0.0579
  153SAPE    C116968   1.059   2.548  10.502 -0.1394 -0.4585  0.6901
  153SAPE    HA16969   1.160   2.591  10.482 -0.7156 -0.4517 -2.8010
  153SAPE    HB16970   1.078   2.441  10.526  0.1925 -0.3162  1.0715
  153SAPE    C216971   0.980   2.550  10.368 -0.1561 -0.6573  0.1883
  153SAPE    HS16972   0.982   2.654  10.331  0.3689 -0.2268  1.3752
  153SAPE   O2116973   0.850   2.508  10.401 -0.0491 -0.2128  0.8654
  153SAPE   C2116974   0.756   2.556  10.321 -0.5730 -0.0115 -0.3245
  153SAPE   O2216975   0.776   2.626  10.225 -0.1344  0.2416 -0.4070
  153SAPE   C2216976   0.629   2.485  10.347 -0.0400  0.3014 -0.3011
  153SAPE   H2R16977   0.635   2.374  10.339 -0.1742  0.2550  0.2158
  153SAPE   H2S16978   0.606   2.506  10.453  0.8846  1.2353 -0.2753
  153SAPE    C316979   1.058   2.466  10.262  0.3896  0.1631  0.2408
  153SAPE    HX16980   1.062   2.357  10.281  0.0840  0.1480  0.2121
  153SAPE    HY16981   1.164   2.500  10.271  1.2629 -2.3612  0.1953
  153SAPE   O3116982   1.005   2.480  10.132 -0.2491 -0.7538 -0.0410
  153SAPE   C3116983   1.038   2.585  10.058 -1.2341  0.1752  0.0018
  153SAPE   O3216984   1.132   2.660  10.088 -0.1201 -0.3989 -0.0751
  153SAPE   C3216985   0.970   2.588   9.927  0.6053 -0.0277 -0.7702
  153SAPE   H2X16986   0.864   2.611   9.947  0.9863  0.5783  0.6586
  153SAPE   H2Y16987   0.980   2.485   9.886 -2.7297 -0.9456  0.4174
  153SAPE   C2316988   0.515   2.533  10.255 -0.3002 -0.7612 -1.1439
  153SAPE   H3R16989   0.544   2.527  10.148  2.0724 -0.0903 -0.5853
  153SAPE   H3S16990   0.495   2.636  10.292  0.4148 -1.8954  2.9671
  153SAPE   C2416991   0.385   2.451  10.288 -0.7690 -0.1917 -0.0572
  153SAPE   H4R16992   0.299   2.507  10.246 -0.7941  0.0347  0.2976
  153SAPE   H4S16993   0.381   2.440  10.398  2.4610 -1.4629  0.0385
  153SAPE   C2516994   0.387   2.310  10.239  0.3665 -0.3929 -0.4885
  153SAPE   H5R16995   0.429   2.235  10.308  0.8173  1.1606  0.9912
  153SAPE   C2616996   0.375   2.278  10.113  0.3594  0.2037  0.0558
  153SAPE   H6R16997   0.396   2.173  10.088 -2.3807 -0.2553 -0.6623
  153SAPE   C2716998   0.358   2.357   9.986 -0.0182 -0.2500  0.0555
  153SAPE   H7R16999   0.395   2.461   9.994  3.2734 -0.9747 -3.2147
  153SAPE   H7S17000   0.249   2.351   9.969 -0.0989 -3.1835  1.0271
  153SAPE   C2817001   0.434   2.301   9.866 -0.1727  0.2803 -0.0627
  153SAPE   H8R17002   0.521   2.240   9.896 -0.7341  0.2858  1.6484
  153SAPE   C2917003   0.408   2.327   9.736  0.2692  0.0727  0.3740
  153SAPE   H9R17004   0.470   2.277   9.660 -1.6108  0.2350 -1.3539
  153SAPE  C21017005   0.301   2.416   9.678 -0.1443 -0.5333  0.2547
  153SAPE  H10R17006   0.333   2.481   9.594 -3.7394 -1.1121 -1.7521
  153SAPE  H10S17007   0.264   2.482   9.760  2.4242  0.3171  0.8098
  153SAPE  C21117008   0.179   2.337   9.632  0.1288  0.2956  0.0329
  153SAPE  H11R17009   0.105   2.314   9.710  0.1368  0.3205  0.0481
  153SAPE  C21217010   0.164   2.264   9.519  0.1704 -0.1734 -0.8599
  153SAPE  H12R17011   0.071   2.209   9.499 -0.3149  0.6998 -1.0635
  153SAPE  C21317012   0.263   2.270   9.412 -0.4952 -0.7780  0.7397
  153SAPE  H13R17013   0.369   2.272   9.445 -0.1920  1.2066 -0.2192
  153SAPE  H13S17014   0.245   2.354   9.342  0.1424 -0.2749  1.1742
  153SAPE  C21417015   0.261   2.141   9.327  0.5656 -0.1392  0.2220
  153SAPE  H14R17016   0.283   2.049   9.385 -2.3083 -0.4774  0.9214
  153SAPE  C21517017   0.227   2.135   9.199  0.4843  0.1736  0.1137
  153SAPE  H15R17018   0.222   2.037   9.149 -1.6616 -1.0450  2.4690
  153SAPE  C21617019   0.192   2.246   9.106  0.4195  0.0788 -0.2463
  153SAPE  H16R17020   0.194   2.345   9.156  0.4550 -0.1280  0.1688
  153SAPE  H16S17021   0.090   2.230   9.066  0.3452 -2.4437  0.7184
  153SAPE  C21717022   0.305   2.253   8.988  0.1934 -0.2418  0.3663
  153SAPE  H17R17023   0.407   2.241   9.031  0.1873  0.0367  0.4654
  153SAPE  H17S17024   0.312   2.358   8.952  1.2196  0.3789  2.2206
  153SAPE  C21817025   0.288   2.152   8.877  0.3231 -0.4563  0.6898
  153SAPE  H18R17026   0.193   2.186   8.831  0.2277 -0.9037  0.5531
  153SAPE  H18S17027   0.272   2.053   8.926  0.2931 -0.4577  0.6770
  153SAPE  C21917028   0.395   2.150   8.771 -0.3109 -0.1376  0.7730
  153SAPE  H19R17029   0.399   2.243   8.710  1.7135 -0.9252 -0.4160
  153SAPE  H19S17030   0.362   2.069   8.702 -0.9165  0.1095  0.7721
  153SAPE  C22017031   0.539   2.137   8.818 -0.3753  0.1975 -0.7898
  153SAPE  H20R17032   0.569   2.236   8.857  0.2414 -0.6246  0.9188
  153SAPE  H20S17033   0.616   2.113   8.742  1.5365 -1.3306  1.4726
  153SAPE  H20T17034   0.557   2.063   8.899  0.6305  0.9613 -0.3007
  153SAPE   C3317035   1.021   2.677   9.814 -0.2953  0.7087  0.0633
  153SAPE   H3X17036   1.106   2.618   9.774 -1.2499 -0.7797  0.1573
  153SAPE   H3Y17037   1.041   2.784   9.839 -2.0526  1.0914 -0.0402
  153SAPE   C3417038   0.917   2.687   9.704 -0.8052 -0.1305  0.2700
  153SAPE   H4X17039   0.965   2.738   9.618 -0.4312 -0.8802  0.0159
  153SAPE   H4Y17040   0.831   2.740   9.749 -2.4859 -1.3791 -1.3309
  153SAPE   C3517041   0.862   2.552   9.650 -0.1095 -0.5915  0.1648
  153SAPE   H5X17042   0.818   2.496   9.735 -2.1686  1.0716  0.2487
  153SAPE   H5Y17043   0.946   2.498   9.600  0.3191  0.3383 -0.1389
  153SAPE   C3617044   0.755   2.569   9.547 -0.0102  0.2795  0.5040
  153SAPE   H6X17045   0.796   2.642   9.474  2.0727 -1.2873 -0.0088
  153SAPE   H6Y17046   0.679   2.626   9.603 -1.5222 -1.6914  0.5697
  153SAPE   C3717047   0.716   2.438   9.481 -0.1380 -0.4731 -0.2846
  153SAPE   H7X17048   0.677   2.375   9.564  2.9892 -2.2747 -0.0425
  153SAPE   H7Y17049   0.797   2.381   9.431 -0.8797 -2.1254  0.3189
  153SAPE   C3817050   0.603   2.450   9.378 -0.0833  0.3478  0.2600
  153SAPE   H8X17051   0.513   2.478   9.436 -0.6110 -0.3310 -0.2099
  153SAPE   H8Y17052   0.593   2.349   9.332  2.2244  1.0318 -1.9921
  153SAPE   C3917053   0.614   2.554   9.267  0.0891  0.8873  0.2830
  153SAPE   H9X17054   0.711   2.535   9.215 -0.3464  0.1179 -0.2577
  153SAPE   H9Y17055   0.620   2.659   9.305 -0.7194  0.8184  0.6067
  153SAPE  C31017056   0.495   2.554   9.165  0.2119  0.0525  0.3375
  153SAPE  H10X17057   0.415   2.598   9.228  0.5455 -1.3125  1.7943
  153SAPE  H10Y17058   0.456   2.454   9.135 -2.6864  0.6530  1.7279
  153SAPE  C31117059   0.532   2.634   9.037 -0.2959  0.1086  0.2757
  153SAPE  H11X17060   0.587   2.728   9.057 -0.0368  0.2582 -1.0712
  153SAPE  H11Y17061   0.433   2.659   8.994 -0.9247 -3.1761 -0.4901
  153SAPE  C31217062   0.614   2.552   8.930  0.3194 -0.0774 -0.2271
  153SAPE  H12X17063   0.547   2.472   8.893 -0.1643 -0.4953  1.4763
  153SAPE  H12Y17064   0.696   2.511   8.991 -1.0207  0.5768  2.1436
  153SAPE  C31317065   0.675   2.628   8.810 -0.1098  0.3105  0.3110
  153SAPE  H13X17066   0.737   2.711   8.851  2.9248 -0.7795 -1.6931
  153SAPE  H13Y17067   0.589   2.677   8.760  1.1498  1.5644 -0.7177
  153SAPE  C31417068   0.752   2.535   8.712 -0.3848  0.2399  0.0004
  153SAPE  H14X17069   0.746   2.565   8.606  1.6835 -0.6179 -0.4095
  153SAPE  H14Y17070   0.698   2.438   8.711 -1.4095  0.7877 -1.6572
  153SAPE  C31517071   0.902   2.508   8.753 -0.9808 -0.4977  0.3332
  153SAPE  H15X17072   0.913   2.461   8.853  0.4714 -0.5937  0.1388
  153SAPE  H15Y17073   0.954   2.605   8.740  0.6884 -1.3051  0.7360
  153SAPE  C31617074   0.978   2.429   8.650 -0.6930 -0.2895 -0.2885
  153SAPE  H16X17075   1.086   2.445   8.669 -0.5091  0.5861 -1.9183
  153SAPE  H16Y17076   0.966   2.472   8.549  0.9532 -0.9400 -0.7909
  153SAPE  C31717077   0.947   2.288   8.618 -0.0826  0.7013  0.6068
  153SAPE  H17X17078   0.844   2.271   8.580  0.0099  0.3436  0.5059
  153SAPE  H17Y17079   0.959   2.238   8.716  2.7857  0.3249  0.1501
  153SAPE  C31817080   1.052   2.222   8.526  0.2339  0.9035  0.3115
  153SAPE  H18X17081   1.037   2.266   8.425  1.3874  1.3395  0.3199
  153SAPE  H18Y17082   1.030   2.115   8.511 -1.0680  1.2656 -0.5544
  153SAPE  H18Z17083   1.154   2.248   8.561  0.4964 -1.0865  1.1181
  154SAPE     N17084   0.396   0.651  10.573 -0.1298 -0.4813  0.1059
  154SAPE   HN117085   0.448   0.626  10.486  1.3313 -0.5198  0.9482
  154SAPE   HN217086   0.294   0.654  10.554 -0.4239  0.1556  1.6555
  154SAPE   HN317087   0.417   0.748  10.603  1.4500 -0.9306  0.5751
  154SAPE   C1217088   0.433   0.564  10.687 -0.2718 -0.1523  0.2594
  154SAPE  H12A17089   0.405   0.460  10.658 -0.5225  0.0970 -0.4018
  154SAPE  H12B17090   0.387   0.597  10.782  0.8894  3.1126 -0.2168
  154SAPE   C1117091   0.584   0.556  10.697  0.3311  0.3823 -0.8249
  154SAPE  H11A17092   0.635   0.517  10.607 -0.7108 -2.2449 -0.3711
  154SAPE  H11B17093   0.598   0.477  10.774  0.3224  0.8992 -0.2850
  154SAPE     P17094   0.791   0.698  10.741 -0.1363  0.2737 -0.2013
  154SAPE   O1317095   0.827   0.803  10.837  0.0399  0.1576 -0.6036
  154SAPE   O1417096   0.854   0.563  10.761  0.4485  0.1591 -0.3553
  154SAPE   O1217097   0.638   0.678  10.745 -0.1986 -0.6194  0.2666
  154SAPE   O1117098   0.813   0.745  10.592 -0.6495 -0.3069  0.2361
  154SAPE    C117099   0.746   0.857  10.538  0.2229  0.2365  0.0244
  154SAPE    HA17100   0.644   0.839  10.496 -0.0747 -4.5140  2.0972
  154SAPE    HB17101   0.722   0.930  10.618 -0.3546 -0.4875  0.5322
  154SAPE    C217102   0.827   0.925  10.424  1.0418  0.8637 -0.7348
  154SAPE    HS17103   0.786   1.028  10.418 -0.2119  0.3698 -0.9867
  154SAPE   O2117104   0.804   0.840  10.305 -0.5679 -0.8776 -0.0386
  154SAPE   C2117105   0.760   0.900  10.189 -0.3140  0.5841 -0.1077
  154SAPE   O2217106   0.743   1.020  10.187 -0.0309  0.3245 -0.0273
  154SAPE   C2217107   0.740   0.790  10.082  0.3338 -0.8597  0.7191
  154SAPE   H2R17108   0.820   0.715  10.098 -0.0476 -1.4271  0.0348
  154SAPE   H2S17109   0.640   0.743  10.092  0.9062 -2.2469  0.2452
  154SAPE    C317110   0.979   0.930  10.449  0.8331  0.2073 -0.5487
  154SAPE    HX17111   1.014   0.826  10.466  1.0735 -0.1260 -2.7106
  154SAPE    HY17112   0.998   0.983  10.545 -0.6311  2.0137 -1.1929
  154SAPE   O3117113   1.055   0.971  10.337 -0.1626 -0.0313 -0.0658
  154SAPE   C3117114   1.057   1.107  10.341 -0.3358  0.4817 -0.2718
  154SAPE   O3217115   0.996   1.179  10.416  0.0717 -0.7546  0.1280
  154SAPE   C3217116   1.135   1.153  10.224 -0.1642 -0.2185 -0.4263
  154SAPE   H2X17117   1.078   1.133  10.131 -1.5266  2.5088 -0.2820
  154SAPE   H2Y17118   1.227   1.091  10.211  0.1290  0.5721 -2.5863
  154SAPE   C2317119   0.759   0.850   9.940  0.5919  0.1295  0.4136
  154SAPE   H3R17120   0.859   0.899   9.936  1.0528 -0.8367 -0.3692
  154SAPE   H3S17121   0.690   0.932   9.913  0.3684 -0.2923 -0.3209
  154SAPE   C2417122   0.758   0.742   9.826  0.5796  0.0808 -0.6645
  154SAPE   H4R17123   0.828   0.657   9.837 -0.1096 -0.3841  0.2253
  154SAPE   H4S17124   0.803   0.796   9.739  2.5871 -1.6011 -0.7425
  154SAPE   C2517125   0.625   0.679   9.817 -0.1243 -0.2830  0.7663
  154SAPE   H5R17126   0.561   0.676   9.907 -1.5526  1.2194 -0.1480
  154SAPE   C2617127   0.577   0.627   9.698 -0.2338 -0.2016  0.4765
  154SAPE   H6R17128   0.476   0.584   9.697 -0.0692 -0.5824  0.3515
  154SAPE   C2717129   0.655   0.630   9.566 -0.2739  0.2855  0.1063
  154SAPE   H7R17130   0.758   0.592   9.581 -0.4800  0.0096  0.8324
  154SAPE   H7S17131   0.666   0.732   9.522 -1.1965  1.2509  1.9973
  154SAPE   C2817132   0.600   0.529   9.476 -0.1803 -0.2144  0.3256
  154SAPE   H8R17133   0.617   0.425   9.505  1.8538  0.5039  1.9977
  154SAPE   C2917134   0.556   0.553   9.356  0.5733 -0.5978  0.0542
  154SAPE   H9R17135   0.524   0.472   9.289  0.4730 -1.6561  1.3422
  154SAPE  C21017136   0.525   0.683   9.299 -0.0485  0.1470 -0.3632
  154SAPE  H10R17137   0.617   0.734   9.264  0.6919 -2.5441 -2.7042
  154SAPE  H10S17138   0.462   0.740   9.371 -0.7858 -0.5148 -0.4664
  154SAPE  C21117139   0.442   0.659   9.174 -0.6204 -0.7307 -0.2400
  154SAPE  H11R17140   0.336   0.690   9.179 -0.5458 -0.1635 -1.8094
  154SAPE  C21217141   0.484   0.625   9.048  0.4254  0.5054  0.1633
  154SAPE  H12R17142   0.403   0.609   8.975 -0.2688  0.3225  0.9641
  154SAPE  C21317143   0.621   0.591   8.997 -0.1724  0.8749  0.1124
  154SAPE  H13R17144   0.619   0.566   8.889  1.9207 -1.7086  0.5582
  154SAPE  H13S17145   0.641   0.495   9.049  3.2585  0.2072 -2.0699
  154SAPE  C21417146   0.738   0.689   9.012 -0.1721 -0.1037  0.6191
  154SAPE  H14R17147   0.814   0.663   9.088 -0.0752 -0.3292  0.4463
  154SAPE  C21517148   0.744   0.817   8.968  0.7732 -0.8352  0.7239
  154SAPE  H15R17149   0.835   0.877   8.983  0.7684 -0.3075 -1.1101
  154SAPE  C21617150   0.648   0.893   8.884 -0.0989 -0.1478 -0.5245
  154SAPE  H16R17151   0.569   0.947   8.940 -0.8073 -0.1772 -1.4553
  154SAPE  H16S17152   0.590   0.819   8.823 -1.4104  1.3443 -1.1406
  154SAPE  C21717153   0.729   0.988   8.793 -0.6300  0.6286  0.2519
  154SAPE  H17R17154   0.794   0.922   8.731 -0.2221  1.3973 -0.1439
  154SAPE  H17S17155   0.795   1.056   8.851  1.6185 -0.2574 -1.1373
  154SAPE  C21817156   0.636   1.077   8.711  0.0440 -0.0311 -1.0505
  154SAPE  H18R17157   0.576   1.135   8.783  0.3154  1.1993 -1.7876
  154SAPE  H18S17158   0.570   1.022   8.641 -0.5347 -0.9774  0.1963
  154SAPE  C21917159   0.712   1.183   8.631  0.6640  0.5690 -0.4217
  154SAPE  H19R17160   0.774   1.226   8.712  0.8325 -5.3406  3.1587
  154SAPE  H19S17161   0.643   1.260   8.590 -1.8525 -1.2966  0.0635
  154SAPE  C22017162   0.801   1.121   8.520 -0.5645 -0.4544  0.9443
  154SAPE  H20R17163   0.867   1.043   8.564  0.5789 -0.0662 -0.0395
  154SAPE  H20S17164   0.857   1.209   8.482 -2.0548  0.3803  0.6042
  154SAPE  H20T17165   0.740   1.084   8.435  0.8800 -0.5036 -0.0880
  154SAPE   C3317166   1.168   1.309  10.225 -0.0208 -0.2763  0.8009
  154SAPE   H3X17167   1.198   1.350  10.323  1.8122 -0.7133  0.4553
  154SAPE   H3Y17168   1.075   1.364  10.199  0.0801  0.6703  2.3718
  154SAPE   C3417169   1.287   1.345  10.123  0.0884 -0.5413 -0.4103
  154SAPE   H4X17170   1.378   1.306  10.174 -0.6751 -0.3420  1.1632
  154SAPE   H4Y17171   1.309   1.453  10.131  2.6443 -1.1161  2.3227
  154SAPE   C3517172   1.270   1.311   9.978  0.1765  0.8286 -0.3635
  154SAPE   H5X17173   1.260   1.200   9.972  0.3380  0.7821  0.1794
  154SAPE   H5Y17174   1.359   1.345   9.921  0.1067  0.2563 -0.8297
  154SAPE   C3617175   1.141   1.374   9.919 -0.0285 -0.5030 -0.3200
  154SAPE   H6X17176   1.147   1.483   9.936 -0.9811  0.1744 -3.6002
  154SAPE   H6Y17177   1.054   1.325   9.966  0.3384 -1.5519 -0.7050
  154SAPE   C3717178   1.132   1.346   9.768  0.3878  0.2011 -0.5273
  154SAPE   H7X17179   1.115   1.236   9.762  0.6928 -0.0324  1.9108
  154SAPE   H7Y17180   1.224   1.375   9.714  1.2976 -2.3329 -0.5013
  154SAPE   C3817181   1.019   1.420   9.704  0.1890  0.0803  0.5254
  154SAPE   H8X17182   1.054   1.524   9.687  2.0221 -0.7889 -1.6676
  154SAPE   H8Y17183   0.936   1.433   9.776 -0.6172  0.4960 -0.4621
  154SAPE   C3917184   0.966   1.367   9.568 -0.1230  0.0378 -0.4872
  154SAPE   H9X17185   0.890   1.438   9.530 -1.3542 -1.3632 -0.6914
  154SAPE   H9Y17186   0.913   1.271   9.585  1.3481 -0.5338  1.1798
  154SAPE  C31017187   1.081   1.365   9.461 -0.7677 -0.4273 -0.0106
  154SAPE  H10X17188   1.025   1.334   9.369 -0.0424  0.9038 -0.9320
  154SAPE  H10Y17189   1.160   1.290   9.480 -0.7566 -1.0929 -2.3474
  154SAPE  C31117190   1.134   1.502   9.425 -0.4036 -0.0406 -0.1259
  154SAPE  H11X17191   1.193   1.535   9.513 -0.9703  1.9998 -0.4655
  154SAPE  H11Y17192   1.061   1.586   9.415  2.3506  2.5442  0.1633
  154SAPE  C31217193   1.238   1.503   9.305  0.2068  0.4553 -0.4430
  154SAPE  H12X17194   1.177   1.516   9.213  0.3075  0.0967 -0.5616
  154SAPE  H12Y17195   1.295   1.408   9.299 -2.6625 -1.4698  0.7968
  154SAPE  C31317196   1.351   1.611   9.320  0.1420  0.8167  0.1209
  154SAPE  H13X17197   1.407   1.601   9.415  0.1525  3.3440  0.4429
  154SAPE  H13Y17198   1.298   1.707   9.340 -1.0455  0.1806  0.1234
  154SAPE  C31417199   1.436   1.631   9.198  0.5921 -0.2238  0.4861
  154SAPE  H14X17200   1.498   1.542   9.173  0.3006  0.1112 -1.5800
  154SAPE  H14Y17201   1.515   1.704   9.224  0.6329  0.0109 -0.2914
  154SAPE  C31517202   1.351   1.670   9.072 -0.4488  0.3429  0.7420
  154SAPE  H15X17203   1.260   1.729   9.097 -1.1556 -1.5673  3.0718
  154SAPE  H15Y17204   1.310   1.571   9.041  2.9935 -0.9373 -0.2120
  154SAPE  C31617205   1.441   1.731   8.968  0.0607 -1.2981  0.6619
  154SAPE  H16X17206   1.528   1.663   8.959  0.1344 -1.3240  1.4901
  154SAPE  H16Y17207   1.478   1.831   9.000 -1.9755 -0.2285 -0.1095
  154SAPE  C31717208   1.374   1.743   8.836 -0.3485 -0.1510 -0.0113
  154SAPE  H17X17209   1.283   1.805   8.854  0.6482  1.3344  0.1693
  154SAPE  H17Y17210   1.344   1.638   8.816  3.1807 -1.3335  0.2033
  154SAPE  C31817211   1.450   1.813   8.719  0.0968 -0.1385 -0.6741
  154SAPE  H18X17212   1.543   1.755   8.700  0.8879  1.3756 -1.6677
  154SAPE  H18Y17213   1.470   1.921   8.732 -0.2125 -0.2789  1.2869
  154SAPE  H18Z17214   1.388   1.803   8.628 -1.6859  0.7566  0.3907
  155SAPE     N17215   0.528   3.959  10.627  0.4336  0.4964  0.0809
  155SAPE   HN117216   0.587   4.028  10.679 -0.4841  1.1726  0.2415
  155SAPE   HN217217   0.503   3.879  10.688  2.0902  0.9977  1.5133
  155SAPE   HN317218   0.582   3.919  10.547 -2.3818  1.3775 -2.4689
  155SAPE   C1217219   0.411   4.027  10.572  0.1213  0.1439  0.0149
  155SAPE  H12A17220   0.362   3.951  10.507  0.7420  0.8338 -1.3075
  155SAPE  H12B17221   0.446   4.114  10.513 -0.0171 -0.0956 -0.4285
  155SAPE   C1117222   0.312   4.083  10.679  0.4864 -0.1375  0.2288
  155SAPE  H11A17223   0.222   4.115  10.622  0.8786  1.2207  0.3530
  155SAPE  H11B17224   0.345   4.181  10.718 -0.6073  0.3549 -0.0306
  155SAPE     P17225   0.167   3.896  10.804  0.0762 -0.4588  0.1045
  155SAPE   O1317226   0.237   3.767  10.812  0.4031  0.3977 -0.0463
  155SAPE   O1417227   0.090   3.933  10.921 -0.5233  0.1979  0.0559
  155SAPE   O1217228   0.284   3.994  10.785 -0.6327 -0.2775  0.1512
  155SAPE   O1117229   0.083   3.904  10.669 -0.1737 -0.2733  0.0790
  155SAPE    C117230  -0.004   3.808  10.617 -1.3236 -0.1848 -0.6146
  155SAPE    HA17231  -0.072   3.778  10.699 -0.0617  2.9289  1.7559
  155SAPE    HB17232  -0.070   3.841  10.533  0.4428  0.9998 -1.6241
  155SAPE    C217233   0.065   3.675  10.568 -0.1837  0.2809 -0.0664
  155SAPE    HS17234   0.120   3.643  10.659  1.3676 -2.8844 -1.9566
  155SAPE   O2117235   0.153   3.704  10.460  0.1881  0.3392 -0.1435
  155SAPE   C2117236   0.230   3.605  10.429 -0.5489 -0.9193  0.4573
  155SAPE   O2217237   0.267   3.512  10.503 -0.4915 -0.9261  0.8888
  155SAPE   C2217238   0.255   3.616  10.276  0.4450 -0.2579 -0.5348
  155SAPE   H2R17239   0.165   3.628  10.212  1.2001 -0.9355 -1.7679
  155SAPE   H2S17240   0.316   3.710  10.276 -0.0841  0.1207  1.0724
  155SAPE    C317241  -0.040   3.570  10.529  0.2460  0.0224 -0.1162
  155SAPE    HX17242  -0.101   3.557  10.622  2.2967 -0.8183  1.1928
  155SAPE    HY17243  -0.003   3.465  10.517 -1.4332 -0.5642 -0.4427
  155SAPE   O3117244  -0.128   3.607  10.421 -0.4890  0.2389 -0.0737
  155SAPE   C3117245  -0.102   3.534  10.310  0.4129 -0.3140 -0.3312
  155SAPE   O3217246  -0.015   3.452  10.302 -0.3018 -0.0294  0.4417
  155SAPE   C3217247  -0.211   3.575  10.208 -0.4004 -0.2450 -0.2611
  155SAPE   H2X17248  -0.201   3.685  10.197 -3.0004 -0.2124 -4.6455
  155SAPE   H2Y17249  -0.309   3.537  10.244  0.2090 -2.9221 -1.1962
  155SAPE   C2317250   0.336   3.497  10.223  0.1816  0.4746 -0.0477
  155SAPE   H3R17251   0.265   3.413  10.213  0.8091 -0.0629 -0.0718
  155SAPE   H3S17252   0.412   3.477  10.302  1.2687 -1.2497 -1.4540
  155SAPE   C2417253   0.407   3.513  10.089  0.0050  0.3901  0.0093
  155SAPE   H4R17254   0.467   3.421  10.078  0.9302  0.8253  1.1803
  155SAPE   H4S17255   0.477   3.600  10.095 -0.8242  1.0712  0.0980
  155SAPE   C2517256   0.312   3.537   9.972  0.0145  0.3030  0.3037
  155SAPE   H5R17257   0.283   3.642   9.958 -0.4730  0.2290  0.7351
  155SAPE   C2617258   0.261   3.434   9.898  0.1702  0.1052 -0.2480
  155SAPE   H6R17259   0.184   3.455   9.823  1.7933 -0.9232 -2.2997
  155SAPE   C2717260   0.278   3.280   9.916 -0.0929 -0.4602  0.2486
  155SAPE   H7R17261   0.387   3.258   9.917 -0.0992 -0.4664  1.5279
  155SAPE   H7S17262   0.249   3.224   9.824  0.3230  1.1836 -0.9227
  155SAPE   C2817263   0.205   3.224  10.031  0.2582 -0.5212 -0.1502
  155SAPE   H8R17264   0.149   3.293  10.095 -0.3169  1.0722 -2.2617
  155SAPE   C2917265   0.217   3.102  10.081  0.1384  0.2185 -0.2619
  155SAPE   H9R17266   0.160   3.074  10.171  1.0072  2.2448  1.0123
  155SAPE  C21017267   0.304   2.993  10.026  1.4303 -0.1687 -0.0674
  155SAPE  H10R17268   0.342   3.015   9.924 -0.5545 -0.8969 -1.0146
  155SAPE  H10S17269   0.226   2.915  10.012  0.9420  0.3280 -0.1554
  155SAPE  C21117270   0.394   2.930  10.128 -0.1327 -0.6127 -0.6521
  155SAPE  H11R17271   0.374   2.929  10.236  1.9984 -2.8458 -0.2029
  155SAPE  C21217272   0.512   2.877  10.099  0.4890 -0.6385 -0.3708
  155SAPE  H12R17273   0.583   2.839  10.175  0.8751  1.6397  0.4737
  155SAPE  C21317274   0.572   2.872   9.964 -0.1355 -0.1200  0.4780
  155SAPE  H13R17275   0.682   2.886   9.974  0.3046 -1.8339 -1.2528
  155SAPE  H13S17276   0.552   2.961   9.901  0.4979 -1.6860 -2.1090
  155SAPE  C21417277   0.559   2.740   9.897  0.7031 -0.6249 -0.2857
  155SAPE  H14R17278   0.597   2.654   9.955 -0.1260  0.0025  1.2521
  155SAPE  C21517279   0.497   2.723   9.783  0.5860 -0.2315  0.9978
  155SAPE  H15R17280   0.483   2.617   9.757 -0.9271  0.0430  0.6071
  155SAPE  C21617281   0.430   2.824   9.685  0.3279  1.0787 -0.5618
  155SAPE  H16R17282   0.427   2.924   9.732  0.4649  1.0960 -0.5888
  155SAPE  H16S17283   0.323   2.798   9.674  1.3306 -3.2886 -2.4105
  155SAPE  C21717284   0.511   2.821   9.559  0.3307 -0.5654 -0.3091
  155SAPE  H17R17285   0.504   2.721   9.512  1.3216 -0.9246  0.2859
  155SAPE  H17S17286   0.617   2.834   9.588  0.0508 -0.3766  0.6454
  155SAPE  C21817287   0.468   2.935   9.470  0.3026  0.0912  0.3347
  155SAPE  H18R17288   0.518   3.030   9.498  2.5725 -1.1127  0.5332
  155SAPE  H18S17289   0.362   2.943   9.503  0.5210  2.1631  0.6836
  155SAPE  C21917290   0.471   2.911   9.321  0.1979  0.3095  0.0558
  155SAPE  H19R17291   0.419   2.817   9.291  0.0187  0.2681  0.4867
  155SAPE  H19S17292   0.573   2.891   9.284 -0.0407 -0.8934  0.0243
  155SAPE  C22017293   0.422   3.035   9.239 -0.4323  0.2583 -0.7788
  155SAPE  H20R17294   0.315   3.059   9.259 -0.7163 -1.5718  0.1169
  155SAPE  H20S17295   0.443   3.017   9.132  1.5592  1.9383 -0.7192
  155SAPE  H20T17296   0.481   3.125   9.264 -2.5210  0.7104  3.3620
  155SAPE   C3317297  -0.197   3.499  10.078 -0.0688 -0.2465  0.2417
  155SAPE   H3X17298  -0.200   3.389  10.089 -0.1973 -0.4413 -1.4995
  155SAPE   H3Y17299  -0.096   3.522  10.039  1.1259 -0.4538  2.9725
  155SAPE   C3417300  -0.304   3.545   9.981 -0.0857 -0.2636 -0.2386
  155SAPE   H4X17301  -0.295   3.653   9.958  1.8829 -0.5747 -1.2055
  155SAPE   H4Y17302  -0.400   3.519  10.030  0.2592  1.4582  1.4900
  155SAPE   C3517303  -0.293   3.475   9.845  0.0341  0.0425 -0.0376
  155SAPE   H5X17304  -0.335   3.372   9.848 -2.7973  1.0904 -0.5860
  155SAPE   H5Y17305  -0.184   3.479   9.821  0.2158  1.8664  0.8877
  155SAPE   C3617306  -0.371   3.538   9.742  0.0855  0.0927  0.1169
  155SAPE   H6X17307  -0.338   3.643   9.725 -2.1416  0.9080  0.5100
  155SAPE   H6Y17308  -0.476   3.558   9.770 -0.2372 -0.0090 -0.9503
  155SAPE   C3717309  -0.371   3.464   9.608 -0.4778 -0.1860 -0.3905
  155SAPE   H7X17310  -0.445   3.513   9.542  0.7550  1.8382 -0.3468
  155SAPE   H7Y17311  -0.398   3.356   9.607  3.1781 -1.2423 -0.5069
  155SAPE   C3817312  -0.241   3.484   9.529 -0.6682 -0.1564 -0.0436
  155SAPE   H8X17313  -0.147   3.449   9.576 -0.0559  1.4990  0.0253
  155SAPE   H8Y17314  -0.224   3.592   9.510  1.4263 -0.2484  1.0645
  155SAPE   C3917315  -0.253   3.414   9.394 -0.5900  0.1002  0.0558
  155SAPE   H9X17316  -0.282   3.308   9.408  0.2213  0.0204  1.2951
  155SAPE   H9Y17317  -0.150   3.405   9.353  0.4154 -2.0095  2.7567
  155SAPE  C31017318  -0.351   3.483   9.294  0.1202  0.6395 -0.1464
  155SAPE  H10X17319  -0.323   3.591   9.288  0.2327  0.8388  2.5468
  155SAPE  H10Y17320  -0.453   3.483   9.338 -0.2977  0.1056 -1.0866
  155SAPE  C31117321  -0.353   3.409   9.154 -0.0133 -0.2387  0.2644
  155SAPE  H11X17322  -0.378   3.302   9.166 -3.6439  0.6377  1.9519
  155SAPE  H11Y17323  -0.249   3.412   9.116  0.1227 -2.4122  0.3613
  155SAPE  C31217324  -0.446   3.478   9.054  0.3789 -0.1216  0.8485
  155SAPE  H12X17325  -0.406   3.580   9.036  0.1310 -0.1442  0.1415
  155SAPE  H12Y17326  -0.546   3.489   9.099  0.8048  1.2491  1.5074
  155SAPE  C31317327  -0.457   3.411   8.918  0.7647  0.6350  0.0755
  155SAPE  H13X17328  -0.354   3.405   8.877  0.1418  0.2831 -1.4956
  155SAPE  H13Y17329  -0.513   3.475   8.847 -2.6258 -0.4729  1.5543
  155SAPE  C31417330  -0.508   3.258   8.912  0.0516  0.0812  0.2257
  155SAPE  H14X17331  -0.454   3.190   8.980 -0.5097  0.6828  1.2925
  155SAPE  H14Y17332  -0.482   3.235   8.806  1.5916 -2.7573  1.1220
  155SAPE  C31517333  -0.657   3.228   8.926 -0.3857 -0.1684 -0.2646
  155SAPE  H15X17334  -0.715   3.315   8.887 -0.8987  0.1459  1.1551
  155SAPE  H15Y17335  -0.661   3.228   9.037  0.4106  0.4016 -0.2233
  155SAPE  C31617336  -0.696   3.088   8.881  0.1161 -1.1442  0.3444
  155SAPE  H16X17337  -0.667   3.010   8.955 -0.6544  1.0359  3.1230
  155SAPE  H16Y17338  -0.640   3.058   8.790  1.6918 -1.9568  1.5182
  155SAPE  C31717339  -0.849   3.080   8.868  0.7529 -0.7679 -0.7591
  155SAPE  H17X17340  -0.897   3.175   8.836  1.6508  0.1875  0.6500
  155SAPE  H17Y17341  -0.895   3.061   8.967 -0.3005  2.3604 -0.5415
  155SAPE  C31817342  -0.891   2.964   8.781 -0.2217 -0.4606 -0.7658
  155SAPE  H18X17343  -0.861   2.865   8.821  0.0029 -0.3079 -0.5543
  155SAPE  H18Y17344  -0.836   2.981   8.686 -1.5430  1.2950 -1.2688
  155SAPE  H18Z17345  -1.000   2.963   8.755 -0.6970 -0.6309  1.1117
  156SAPE     N17346   0.254   1.992  10.542  0.7641  0.5419 -0.1352
  156SAPE   HN117347   0.300   1.985  10.450 -1.5122  0.4054 -1.3201
  156SAPE   HN217348   0.317   2.036  10.613  1.1346 -1.6088  0.9465
  156SAPE   HN317349   0.214   1.899  10.565 -1.0396  0.9217 -1.4982
  156SAPE   C1217350   0.137   2.086  10.517 -0.7506 -0.1406 -1.0092
  156SAPE  H12A17351   0.178   2.186  10.494 -0.6707 -0.4525 -2.2986
  156SAPE  H12B17352   0.069   2.093  10.605 -0.2684  0.2522 -0.6642
  156SAPE   C1117353   0.067   2.051  10.387 -0.1742 -0.1058 -1.3958
  156SAPE  H11A17354   0.137   2.049  10.301 -0.9978  0.1209 -2.0821
  156SAPE  H11B17355  -0.008   2.129  10.365 -1.0463 -0.3573  0.4901
  156SAPE     P17356  -0.151   1.913  10.442  0.2549 -0.3942  0.1286
  156SAPE   O1317357  -0.187   1.774  10.464  0.1876  0.1259  0.5829
  156SAPE   O1417358  -0.175   2.017  10.546 -0.3029  0.3849 -0.3459
  156SAPE   O1217359   0.002   1.925  10.398  0.3180 -0.1405 -0.0944
  156SAPE   O1117360  -0.222   1.958  10.309 -0.2038 -0.1776 -0.0884
  156SAPE    C117361  -0.218   1.887  10.190 -0.6450 -0.2829 -0.2754
  156SAPE    HA17362  -0.159   1.945  10.116  1.4675 -0.7723  0.9551
  156SAPE    HB17363  -0.168   1.788  10.197 -1.7194 -0.7753  0.8381
  156SAPE    C217364  -0.360   1.860  10.131 -0.4459 -0.3129 -0.1775
  156SAPE    HS17365  -0.363   1.760  10.084  0.0675 -0.5970  0.3741
  156SAPE   O2117366  -0.387   1.972  10.038  0.0619  0.1089  0.2218
  156SAPE   C2117367  -0.468   1.951   9.937  0.2827 -0.4980 -0.4656
  156SAPE   O2217368  -0.506   1.842   9.902  0.1911  0.2950  0.0632
  156SAPE   C2217369  -0.521   2.081   9.882  0.0765 -0.2333  0.2258
  156SAPE   H2R17370  -0.627   2.080   9.913  0.4148  0.5720  1.4449
  156SAPE   H2S17371  -0.460   2.165   9.921  0.3567 -0.5206  0.4197
  156SAPE    C317372  -0.463   1.845  10.248  0.4926 -0.0846 -0.2551
  156SAPE    HX17373  -0.457   1.925  10.325 -1.4984 -0.1627  0.0319
  156SAPE    HY17374  -0.434   1.743  10.281 -1.7807  0.2846  3.4906
  156SAPE   O3117375  -0.595   1.827  10.194  0.4800  0.0024 -0.2925
  156SAPE   C3117376  -0.688   1.795  10.285 -0.3635 -0.0215  0.1587
  156SAPE   O3217377  -0.662   1.778  10.402 -0.3439  0.2345  0.0747
  156SAPE   C3217378  -0.821   1.766  10.216 -0.0079  0.1304 -0.4500
  156SAPE   H2X17379  -0.807   1.708  10.122  1.9731  0.8800 -0.6605
  156SAPE   H2Y17380  -0.862   1.868  10.196 -0.3814  0.2796  0.9518
  156SAPE   C2317381  -0.522   2.081   9.726  0.0177  0.3727 -0.1480
  156SAPE   H3R17382  -0.612   2.025   9.693 -0.0776 -0.0218  0.7521
  156SAPE   H3S17383  -0.433   2.034   9.679 -0.4728  1.4379 -2.2500
  156SAPE   C2417384  -0.529   2.225   9.673 -0.0143 -0.3576  0.1146
  156SAPE   H4R17385  -0.605   2.279   9.734 -0.5117 -2.8914  1.9121
  156SAPE   H4S17386  -0.562   2.230   9.567 -1.4647  1.4138  0.5772
  156SAPE   C2517387  -0.405   2.309   9.675  0.1677  0.2880 -0.1575
  156SAPE   H5R17388  -0.367   2.349   9.771 -0.7059  2.1888 -0.5678
  156SAPE   C2617389  -0.334   2.351   9.570  0.4193 -1.1977 -0.0468
  156SAPE   H6R17390  -0.241   2.406   9.593  0.9616 -1.9960 -0.2451
  156SAPE   C2717391  -0.364   2.322   9.419  0.0080 -0.0294 -0.5252
  156SAPE   H7R17392  -0.379   2.423   9.377  1.4206 -0.1639 -1.4255
  156SAPE   H7S17393  -0.457   2.263   9.408 -0.1957  0.5328 -2.1846
  156SAPE   C2817394  -0.247   2.254   9.350  0.3804 -0.5086  0.2556
  156SAPE   H8R17395  -0.152   2.308   9.362 -0.5950  1.3088  0.1598
  156SAPE   C2917396  -0.253   2.145   9.272 -0.0614 -0.5364  0.0613
  156SAPE   H9R17397  -0.164   2.120   9.213  1.7623  0.3463  2.2967
  156SAPE  C21017398  -0.388   2.075   9.242 -0.5768  0.4332 -0.7729
  156SAPE  H10R17399  -0.394   2.029   9.141 -1.1211 -5.0145  1.4213
  156SAPE  H10S17400  -0.461   2.159   9.242  1.8966  2.7122  0.5740
  156SAPE  C21117401  -0.429   1.974   9.347 -0.3051  0.6620  0.1722
  156SAPE  H11R17402  -0.410   1.992   9.454 -0.1746 -1.9105  0.6513
  156SAPE  C21217403  -0.481   1.858   9.315  0.9888  0.9954  0.1545
  156SAPE  H12R17404  -0.499   1.771   9.380  0.4400 -0.9545 -2.3966
  156SAPE  C21317405  -0.522   1.814   9.171 -0.5016  0.2727 -0.1601
  156SAPE  H13R17406  -0.432   1.773   9.120 -0.1447 -0.4582  1.0216
  156SAPE  H13S17407  -0.537   1.905   9.109  2.2115 -0.0464 -1.4155
  156SAPE  C21417408  -0.645   1.732   9.159  0.7000 -0.0526 -0.0724
  156SAPE  H14R17409  -0.713   1.764   9.239  1.4044 -0.6659  0.7945
  156SAPE  C21517410  -0.665   1.618   9.090  0.5252 -0.1071 -0.2306
  156SAPE  H15R17411  -0.766   1.575   9.092 -0.6165  2.4116  0.0329
  156SAPE  C21617412  -0.568   1.556   8.996 -0.3643  0.5065 -0.7511
  156SAPE  H16R17413  -0.479   1.622   8.990  0.5493 -0.5298  0.5466
  156SAPE  H16S17414  -0.614   1.536   8.897 -0.5751 -0.4754 -0.4729
  156SAPE  C21717415  -0.497   1.424   9.045 -0.1904  0.4359 -0.0010
  156SAPE  H17R17416  -0.570   1.343   9.058  0.2277  0.1000  0.2706
  156SAPE  H17S17417  -0.437   1.451   9.134  0.1240 -0.2930  0.0159
  156SAPE  C21817418  -0.391   1.380   8.943 -0.4047  0.6464  0.0396
  156SAPE  H18R17419  -0.343   1.294   8.995  2.1619  1.2416 -1.1704
  156SAPE  H18S17420  -0.319   1.459   8.912 -1.6982  0.4896 -3.8084
  156SAPE  C21917421  -0.440   1.324   8.808 -0.1512  0.2878 -0.2674
  156SAPE  H19R17422  -0.512   1.388   8.751  0.1097  0.1607 -0.7500
  156SAPE  H19S17423  -0.503   1.237   8.836 -1.1930  1.6419  1.8778
  156SAPE  C22017424  -0.332   1.275   8.719 -0.6890 -0.2253  0.6027
  156SAPE  H20R17425  -0.361   1.218   8.629 -0.2418 -0.8846  0.8705
  156SAPE  H20S17426  -0.268   1.200   8.771 -0.4511 -0.4611 -0.0214
  156SAPE  H20T17427  -0.266   1.361   8.695 -1.1807  0.4793  1.7105
  156SAPE   C3317428  -0.927   1.699  10.311  0.9670  1.0337  0.1688
  156SAPE   H3X17429  -0.944   1.771  10.394 -0.2837  0.8897  0.0581
  156SAPE   H3Y17430  -0.890   1.601  10.347 -0.1805  1.3633  2.4520
  156SAPE   C3417431  -1.067   1.685  10.254  0.9558  0.1590  1.2634
  156SAPE   H4X17432  -1.104   1.787  10.228  2.6978  1.0830  2.2638
  156SAPE   H4Y17433  -1.132   1.640  10.332  0.3902 -0.0756  0.6632
  156SAPE   C3517434  -1.068   1.589  10.130 -0.6606  0.1984  0.4072
  156SAPE   H5X17435  -1.146   1.510  10.126 -0.0583 -0.5963  2.6733
  156SAPE   H5Y17436  -0.978   1.523  10.129 -0.1289  0.8360 -2.2816
  156SAPE   C3617437  -1.051   1.659   9.996  0.5821  0.5631 -0.0696
  156SAPE   H6X17438  -0.974   1.739  10.002  0.1942  1.0684 -1.4189
  156SAPE   H6Y17439  -1.150   1.708   9.981 -0.1674 -1.1569 -0.9372
  156SAPE   C3717440  -1.027   1.564   9.881  0.6655  0.2226 -0.6933
  156SAPE   H7X17441  -1.076   1.465   9.887  0.6021  0.2907  0.0393
  156SAPE   H7Y17442  -0.919   1.543   9.898  0.4230 -1.0933 -0.6498
  156SAPE   C3817443  -1.044   1.629   9.747 -0.2191 -0.5874  0.0458
  156SAPE   H8X17444  -0.962   1.704   9.750  0.2413 -1.0978  1.8650
  156SAPE   H8Y17445  -1.144   1.676   9.750 -0.2827 -0.6740  3.0391
  156SAPE   C3917446  -1.041   1.530   9.632  0.4371 -0.2846  0.0336
  156SAPE   H9X17447  -1.120   1.454   9.647 -0.0536 -0.3569 -2.4946
  156SAPE   H9Y17448  -0.942   1.480   9.643  0.0982 -0.6937  1.4063
  156SAPE  C31017449  -1.039   1.609   9.505 -0.0073 -0.0027 -0.7441
  156SAPE  H10X17450  -0.955   1.680   9.491  2.0427 -2.3276 -0.9756
  156SAPE  H10Y17451  -1.137   1.660   9.509  0.5897  1.1450  0.4031
  156SAPE  C31117452  -1.037   1.517   9.388  0.4243 -0.2813  0.4674
  156SAPE  H11X17453  -1.120   1.444   9.397  0.6280 -0.7378 -1.1330
  156SAPE  H11Y17454  -0.944   1.456   9.393  1.1594  0.6446 -1.0989
  156SAPE  C31217455  -1.061   1.584   9.252 -0.0475 -0.8949 -0.4611
  156SAPE  H12X17456  -0.977   1.656   9.242 -0.9638 -0.0444 -2.7141
  156SAPE  H12Y17457  -1.159   1.636   9.244 -0.7001 -2.3206 -2.4625
  156SAPE  C31317458  -1.054   1.485   9.143  0.3475  0.3096  0.5208
  156SAPE  H13X17459  -1.142   1.417   9.140 -0.5970  1.4207  2.0412
  156SAPE  H13Y17460  -0.967   1.419   9.166  1.2527  1.4397  0.4232
  156SAPE  C31417461  -1.051   1.560   9.008  0.2633 -0.0609 -0.2277
  156SAPE  H14X17462  -0.952   1.611   9.001  0.7809 -0.5256  2.6351
  156SAPE  H14Y17463  -1.133   1.635   9.004 -0.3525 -0.7807 -2.6006
  156SAPE  C31517464  -1.055   1.469   8.885 -0.2096  0.1270 -0.0649
  156SAPE  H15X17465  -1.144   1.403   8.877  0.3287 -0.5238 -0.7880
  156SAPE  H15Y17466  -0.974   1.393   8.885  0.4619  0.7421  2.0808
  156SAPE  C31617467  -1.049   1.547   8.747  0.4751  0.0461 -0.4709
  156SAPE  H16X17468  -0.951   1.598   8.746  0.8220 -0.2032  3.5462
  156SAPE  H16Y17469  -1.131   1.622   8.752  1.4004  1.3640 -3.0346
  156SAPE  C31717470  -1.075   1.467   8.618 -0.4797  0.2092 -0.0740
  156SAPE  H17X17471  -1.163   1.405   8.646  0.1363 -0.3348  0.6921
  156SAPE  H17Y17472  -0.996   1.390   8.606 -1.9006 -0.9096 -3.1820
  156SAPE  C31817473  -1.091   1.554   8.499 -0.2397 -1.1067  0.7783
  156SAPE  H18X17474  -0.991   1.601   8.483 -0.0426 -1.5573  0.6747
  156SAPE  H18Y17475  -1.157   1.642   8.516 -0.8108 -1.6661  1.4873
  156SAPE  H18Z17476  -1.124   1.500   8.408 -0.0844 -1.5516  0.9821
  157SAPE     N17477   3.699   2.204  10.931  0.4096 -0.4075 -0.3392
  157SAPE   HN117478   3.792   2.224  10.971  0.7211 -0.8023 -0.8624
  157SAPE   HN217479   3.645   2.293  10.937 -3.6154 -2.5258 -1.4519
  157SAPE   HN317480   3.650   2.132  10.988 -3.0523  2.4041  0.6302
  157SAPE   C1217481   3.690   2.152  10.790  0.2878  0.2369 -0.9788
  157SAPE  H12A17482   3.588   2.110  10.775  0.8808 -1.9858  0.7005
  157SAPE  H12B17483   3.763   2.070  10.776 -0.4233 -0.3886 -1.0801
  157SAPE   C1117484   3.719   2.256  10.693 -0.0724  0.0530  0.0632
  157SAPE  H11A17485   3.630   2.322  10.693 -2.3514 -2.8536 -0.3006
  157SAPE  H11B17486   3.722   2.215  10.590 -1.5959 -2.9980  1.1265
  157SAPE     P17487   3.982   2.280  10.668 -0.1057 -0.0818  0.2740
  157SAPE   O1317488   4.085   2.382  10.698 -0.6173  0.1178  0.3085
  157SAPE   O1417489   4.011   2.141  10.714 -0.3102 -0.3845 -0.5715
  157SAPE   O1217490   3.839   2.334  10.722 -0.1358  0.1526 -0.1157
  157SAPE   O1117491   3.943   2.277  10.513  0.4090  0.2169  0.4136
  157SAPE    C117492   3.940   2.408  10.445  0.2201  0.2158  0.0346
  157SAPE    HA17493   3.835   2.426  10.413 -0.3037 -1.6078  0.6097
  157SAPE    HB17494   3.959   2.497  10.509  1.5182 -0.1206  0.1404
  157SAPE    C217495   4.031   2.412  10.319 -0.6743 -0.4845  0.5352
  157SAPE    HS17496   4.018   2.513  10.275  2.5826 -0.0806  0.2290
  157SAPE   O2117497   4.001   2.305  10.223  0.0631  0.2535  0.3223
  157SAPE   C2117498   3.885   2.312  10.163  0.2840 -0.2486  0.2293
  157SAPE   O2217499   3.800   2.400  10.170 -0.1204  0.8548 -0.0488
  157SAPE   C2217500   3.861   2.187  10.070  0.3935 -0.0285  0.4439
  157SAPE   H2R17501   3.899   2.098  10.125  3.2674 -0.1769 -1.5612
  157SAPE   H2S17502   3.752   2.173  10.058 -0.0900  1.6510  2.3782
  157SAPE    C317503   4.177   2.400  10.359  0.0509 -0.0009 -0.2956
  157SAPE    HX17504   4.191   2.304  10.413  1.4693  0.8082  0.8600
  157SAPE    HY17505   4.205   2.481  10.430  3.0144 -1.1796  0.0258
  157SAPE   O3117506   4.269   2.390  10.246 -0.2162 -0.3414  0.2053
  157SAPE   C3117507   4.371   2.307  10.252 -0.1001 -1.0441  0.4042
  157SAPE   O3217508   4.389   2.227  10.337 -0.6814  0.3431 -0.3362
  157SAPE   C3217509   4.473   2.348  10.144 -0.6863 -0.0809  0.3170
  157SAPE   H2X17510   4.573   2.334  10.189 -0.4656  0.4468  0.0025
  157SAPE   H2Y17511   4.471   2.458  10.124  1.2520 -0.3122 -1.3591
  157SAPE   C2317512   3.937   2.193   9.933 -0.2136 -0.2607  0.1914
  157SAPE   H3R17513   3.922   2.101   9.872 -0.4087  2.2749 -3.9631
  157SAPE   H3S17514   4.041   2.212   9.967 -1.0844  1.7063  1.9826
  157SAPE   C2417515   3.899   2.310   9.846  0.2613 -0.1791  0.3073
  157SAPE   H4R17516   3.966   2.314   9.758 -0.1608  0.5050  0.0122
  157SAPE   H4S17517   3.921   2.405   9.901 -1.1226  0.9142 -0.9396
  157SAPE   C2517518   3.760   2.305   9.800 -0.0176 -0.3960 -0.2606
  157SAPE   H5R17519   3.687   2.284   9.879 -2.0072  1.4339 -1.5283
  157SAPE   C2617520   3.713   2.352   9.681 -0.2408  0.2685 -0.1168
  157SAPE   H6R17521   3.603   2.360   9.676 -0.5132 -1.0643  2.0711
  157SAPE   C2717522   3.782   2.399   9.552  0.6616 -0.2649 -0.2523
  157SAPE   H7R17523   3.885   2.360   9.567 -0.3034 -2.8330  0.2549
  157SAPE   H7S17524   3.788   2.510   9.548 -0.3761 -0.2264 -1.7750
  157SAPE   C2817525   3.722   2.345   9.427 -1.1604 -0.3525 -0.2298
  157SAPE   H8R17526   3.642   2.270   9.427 -1.6505  0.1526  0.7259
  157SAPE   C2917527   3.767   2.367   9.305  0.4814  0.4660  0.7128
  157SAPE   H9R17528   3.716   2.329   9.215  0.5599  2.6109 -0.3115
  157SAPE  C21017529   3.882   2.461   9.268 -0.4815  0.4130 -0.5089
  157SAPE  H10R17530   3.975   2.429   9.317  0.1519  0.2717 -1.7592
  157SAPE  H10S17531   3.869   2.560   9.317  1.7322 -0.2221  1.5138
  157SAPE  C21117532   3.887   2.473   9.111 -0.3464 -0.1051 -0.8141
  157SAPE  H11R17533   3.943   2.390   9.065  2.1245  1.0738 -0.0833
  157SAPE  C21217534   3.812   2.552   9.026 -0.5536  0.2563 -0.4182
  157SAPE  H12R17535   3.825   2.545   8.917 -2.8069  1.5850 -0.8435
  157SAPE  C21317536   3.712   2.658   9.065 -1.1501  0.7526 -0.1785
  157SAPE  H13R17537   3.772   2.748   9.088 -0.7004  0.4864 -0.3065
  157SAPE  H13S17538   3.653   2.633   9.156 -1.2892  1.7652  0.0243
  157SAPE  C21417539   3.605   2.688   8.964 -0.2125 -0.4636  0.4172
  157SAPE  H14R17540   3.521   2.619   8.972 -1.0023  0.0925 -2.1504
  157SAPE  C21517541   3.603   2.762   8.852  0.2130 -0.7164  0.3739
  157SAPE  H15R17542   3.528   2.770   8.772 -0.5342  0.8105  1.1569
  157SAPE  C21617543   3.728   2.841   8.815  0.5787 -0.5732 -0.7139
  157SAPE  H16R17544   3.788   2.870   8.904  0.6203 -0.1180 -0.8870
  157SAPE  H16S17545   3.694   2.935   8.766 -2.8969 -1.2743  0.0939
  157SAPE  C21717546   3.811   2.781   8.708  0.0315  0.5361  0.4183
  157SAPE  H17R17547   3.844   2.676   8.720  1.1580  0.3249 -3.1526
  157SAPE  H17S17548   3.904   2.842   8.707 -0.3268  1.1002 -1.2870
  157SAPE  C21817549   3.742   2.790   8.572 -0.3518  0.2057 -0.3986
  157SAPE  H18R17550   3.712   2.895   8.551 -2.3289 -0.1740  0.3722
  157SAPE  H18S17551   3.643   2.740   8.571  0.5175 -1.5906  0.0850
  157SAPE  C21917552   3.843   2.746   8.460  0.8538  0.3865  0.6033
  157SAPE  H19R17553   3.896   2.657   8.499  0.8532  0.8424  1.6791
  157SAPE  H19S17554   3.924   2.822   8.454  0.4918  1.1719  3.7411
  157SAPE  C22017555   3.786   2.712   8.312 -0.0636  0.3602 -0.4899
  157SAPE  H20R17556   3.699   2.646   8.327  0.6284 -0.0138  2.4750
  157SAPE  H20S17557   3.868   2.669   8.251 -0.2145 -0.8064  0.0970
  157SAPE  H20T17558   3.740   2.801   8.264 -0.7178 -0.8384 -2.1702
  157SAPE   C3317559   4.449   2.280  10.006 -0.1728 -0.2468 -1.1443
  157SAPE   H3X17560   4.424   2.172  10.016  0.1838 -0.1323  1.7041
  157SAPE   H3Y17561   4.551   2.292   9.964  0.5000 -3.3206 -0.6259
  157SAPE   C3417562   4.340   2.354   9.926  0.0339 -0.1475  0.1311
  157SAPE   H4X17563   4.375   2.459   9.927  0.8325 -0.4112  0.5606
  157SAPE   H4Y17564   4.242   2.336   9.975  1.0556 -1.3453  1.8083
  157SAPE   C3517565   4.315   2.308   9.783  0.5068 -0.1034  0.2247
  157SAPE   H5X17566   4.257   2.386   9.730 -2.0491 -1.6117  0.6213
  157SAPE   H5Y17567   4.269   2.207   9.779  0.5721 -0.0975 -1.1964
  157SAPE   C3617568   4.439   2.291   9.686  0.0790  0.4680  0.1219
  157SAPE   H6X17569   4.489   2.198   9.720 -1.0751  0.0860  0.8368
  157SAPE   H6Y17570   4.505   2.380   9.697  1.7060 -0.3410 -2.2130
  157SAPE   C3717571   4.398   2.273   9.535 -0.4562  0.1786  0.1123
  157SAPE   H7X17572   4.481   2.286   9.461 -1.0202 -0.1155 -0.5796
  157SAPE   H7Y17573   4.329   2.358   9.518 -0.5087 -0.1911 -1.7667
  157SAPE   C3817574   4.330   2.140   9.511 -0.4269 -0.5651  0.3239
  157SAPE   H8X17575   4.236   2.147   9.570 -3.0119  2.2313 -3.5866
  157SAPE   H8Y17576   4.396   2.058   9.545 -0.1809 -0.2073  0.7110
  157SAPE   C3917577   4.295   2.116   9.362 -0.1516  0.3163 -0.1540
  157SAPE   H9X17578   4.241   2.019   9.363  0.8035 -0.2276  0.9909
  157SAPE   H9Y17579   4.386   2.094   9.302  0.0713  1.5538 -0.3052
  157SAPE  C31017580   4.233   2.227   9.283  0.4793 -0.1185  0.4344
  157SAPE  H10X17581   4.306   2.311   9.289 -1.7348  1.9393 -0.1790
  157SAPE  H10Y17582   4.138   2.250   9.334 -0.1273 -0.7162 -0.4015
  157SAPE  C31117583   4.217   2.194   9.133  0.1155  0.3023 -0.3999
  157SAPE  H11X17584   4.306   2.149   9.085 -1.0171 -1.5965 -0.8370
  157SAPE  H11Y17585   4.186   2.286   9.079 -0.7181 -0.8336 -1.9500
  157SAPE  C31217586   4.097   2.103   9.102 -0.4497  0.0736 -0.2923
  157SAPE  H12X17587   4.002   2.148   9.138 -0.1001  0.1467  0.5465
  157SAPE  H12Y17588   4.121   2.019   9.170 -0.9850  0.3067  0.1867
  157SAPE  C31317589   4.087   2.061   8.956  0.7119 -0.2256  0.4015
  157SAPE  H13X17590   4.019   1.973   8.959  0.6090 -0.1248  1.2162
  157SAPE  H13Y17591   4.182   2.020   8.914 -1.1859 -4.1355 -0.6146
  157SAPE  C31417592   4.020   2.174   8.873  0.5015 -0.1346 -0.2203
  157SAPE  H14X17593   4.082   2.265   8.873 -0.2770  0.4059 -0.0907
  157SAPE  H14Y17594   3.925   2.205   8.922 -0.2453 -1.7395 -0.5913
  157SAPE  C31517595   3.977   2.141   8.736  0.0607 -0.2843 -1.2109
  157SAPE  H15X17596   3.906   2.057   8.718  0.8581 -1.2529  0.0098
  157SAPE  H15Y17597   4.059   2.118   8.664  1.6666  0.8246  0.1868
  157SAPE  C31617598   3.912   2.260   8.676 -0.3180 -0.5659  0.5973
  157SAPE  H16X17599   3.972   2.351   8.698 -1.0464  0.1865 -0.4385
  157SAPE  H16Y17600   3.808   2.283   8.708 -0.5217  0.5706 -0.7445
  157SAPE  C31717601   3.912   2.241   8.521 -0.3612 -0.0413  0.5230
  157SAPE  H17X17602   3.824   2.182   8.489 -0.3549  0.0317  0.3748
  157SAPE  H17Y17603   4.008   2.194   8.488  0.0904 -0.2969  2.1058
  157SAPE  C31817604   3.881   2.381   8.459  0.2879  0.3254 -0.2237
  157SAPE  H18X17605   3.969   2.442   8.487  0.2276 -1.1133  3.6838
  157SAPE  H18Y17606   3.788   2.429   8.496  0.5888  0.5280  0.2797
  157SAPE  H18Z17607   3.869   2.371   8.349 -2.9113  1.7688 -0.1294
  158SAPE     N17608   0.323   3.304  10.678  0.2350  0.1855 -0.3328
  158SAPE   HN117609   0.225   3.296  10.711  1.2421 -2.1596  2.5932
  158SAPE   HN217610   0.370   3.332  10.767 -2.8737 -0.7693  1.7579
  158SAPE   HN317611   0.324   3.387  10.615  1.1312  0.3752 -0.0932
  158SAPE   C1217612   0.362   3.165  10.633 -0.2616 -0.4549 -0.1734
  158SAPE  H12A17613   0.270   3.114  10.597 -1.3377  0.4006  1.2644
  158SAPE  H12B17614   0.392   3.101  10.719  0.2568  0.1065  0.0664
  158SAPE   C1117615   0.484   3.169  10.537 -0.0295  0.5265  0.3722
  158SAPE  H11A17616   0.471   3.243  10.455 -1.1954  0.6295  0.6353
  158SAPE  H11B17617   0.499   3.066  10.496 -1.5957 -0.5790  2.3638
  158SAPE     P17618   0.671   3.351  10.592  0.0936  0.0888  0.4429
  158SAPE   O1317619   0.567   3.458  10.590 -0.6831 -0.3747 -0.6634
  158SAPE   O1417620   0.772   3.355  10.697 -0.4478  0.2041 -0.8442
  158SAPE   O1217621   0.599   3.208  10.614  0.6701 -0.9110 -0.1126
  158SAPE   O1117622   0.740   3.357  10.447  0.6266 -0.1102 -0.1024
  158SAPE    C117623   0.825   3.261  10.385  0.0546 -0.1626 -0.4045
  158SAPE    HA17624   0.932   3.268  10.416  0.4170  0.1545 -1.6406
  158SAPE    HB17625   0.802   3.157  10.417 -1.7820  0.5456  0.7200
  158SAPE    C217626   0.840   3.284  10.234  0.9208  0.8100 -0.0268
  158SAPE    HS17627   0.926   3.224  10.198  1.2787  1.9456 -1.1180
  158SAPE   O2117628   0.871   3.428  10.214  0.8634  0.6872  0.4211
  158SAPE   C2117629   0.927   3.453  10.102  0.0285  0.0672  0.3701
  158SAPE   O2217630   1.010   3.382  10.045  0.5636  0.5679  0.4562
  158SAPE   C2217631   0.887   3.600  10.062  0.6527  0.7317 -0.1252
  158SAPE   H2R17632   0.785   3.618  10.102  0.7704  0.0237  0.5117
  158SAPE   H2S17633   0.962   3.670  10.105  2.7329  0.1984 -2.6747
  158SAPE    C317634   0.710   3.245  10.161  0.2803 -0.5882  0.3204
  158SAPE    HX17635   0.647   3.333  10.188  0.2327 -0.1176 -1.2730
  158SAPE    HY17636   0.653   3.156  10.196  0.3788 -0.8281 -0.1387
  158SAPE   O3117637   0.726   3.248  10.014 -0.3887  0.0103  0.5176
  158SAPE   C3117638   0.799   3.148   9.965 -0.2855  0.2852 -0.5633
  158SAPE   O3217639   0.872   3.071  10.024  0.5150 -0.1772  0.1439
  158SAPE   C3217640   0.777   3.144   9.817 -0.1842 -0.1735 -0.1746
  158SAPE   H2X17641   0.805   3.249   9.790  2.6791 -1.1441 -1.3214
  158SAPE   H2Y17642   0.671   3.123   9.790 -0.4551 -1.6691  1.8399
  158SAPE   C2317643   0.879   3.629   9.912  0.2596 -0.1174  0.1671
  158SAPE   H3R17644   0.808   3.561   9.859  1.6786  0.0692 -2.1351
  158SAPE   H3S17645   0.982   3.620   9.870  0.1764 -1.0980  0.1471
  158SAPE   C2417646   0.822   3.769   9.890  0.0839  0.3851  0.2806
  158SAPE   H4R17647   0.884   3.845   9.943 -1.0349  0.9121  0.8805
  158SAPE   H4S17648   0.723   3.778   9.939  0.4798  1.7313  0.8705
  158SAPE   C2517649   0.825   3.801   9.741 -0.5369  0.0157 -0.5962
  158SAPE   H5R17650   0.916   3.852   9.707 -0.2441  0.5642  0.9564
  158SAPE   C2617651   0.730   3.759   9.652  0.5308 -0.0113  0.1110
  158SAPE   H6R17652   0.736   3.783   9.545  0.7168  3.1921  0.7445
  158SAPE   C2717653   0.616   3.664   9.681  0.2221 -0.3548  0.1937
  158SAPE   H7R17654   0.614   3.636   9.789  4.5738 -1.1080  0.2424
  158SAPE   H7S17655   0.641   3.572   9.625 -0.2224 -0.9914  1.0105
  158SAPE   C2817656   0.493   3.733   9.623 -0.6105 -0.0946  0.1210
  158SAPE   H8R17657   0.444   3.801   9.695 -2.4359  1.6790 -2.5975
  158SAPE   C2917658   0.436   3.707   9.506  0.7000  0.0870 -0.2948
  158SAPE   H9R17659   0.335   3.748   9.494  0.6898 -0.0648 -0.7625
  158SAPE  C21017660   0.469   3.603   9.405  0.3948  0.3704 -0.4575
  158SAPE  H10R17661   0.568   3.561   9.432 -0.6662 -2.0296  0.0104
  158SAPE  H10S17662   0.462   3.637   9.300  0.2055  0.7706 -0.3162
  158SAPE  C21117663   0.375   3.483   9.420 -0.5963  1.0456  0.4183
  158SAPE  H11R17664   0.396   3.427   9.513 -2.0812 -0.3409 -0.0346
  158SAPE  C21217665   0.287   3.419   9.335 -0.5399 -0.0516  1.0626
  158SAPE  H12R17666   0.236   3.330   9.375  0.8597 -0.9908  0.8218
  158SAPE  C21317667   0.240   3.461   9.195  0.0880  0.2611 -0.1795
  158SAPE  H13R17668   0.304   3.425   9.112  0.3947 -0.3979  0.3300
  158SAPE  H13S17669   0.249   3.571   9.186  0.7140  0.1498 -1.0156
  158SAPE  C21417670   0.098   3.419   9.170  0.1486 -0.6185  0.1326
  158SAPE  H14R17671   0.037   3.420   9.261 -2.1271 -0.6331 -1.3201
  158SAPE  C21517672   0.037   3.396   9.052  0.6431  0.6522  0.4164
  158SAPE  H15R17673  -0.060   3.346   9.064  1.1746 -0.2595  1.0893
  158SAPE  C21617674   0.085   3.401   8.910 -0.0143  0.2246 -1.6358
  158SAPE  H16R17675   0.185   3.449   8.916 -0.8554  1.9287  2.6299
  158SAPE  H16S17676   0.030   3.472   8.845  0.5921 -0.3293 -2.7900
  158SAPE  C21717677   0.108   3.272   8.835 -0.0987  0.4037 -0.2139
  158SAPE  H17R17678   0.172   3.204   8.895  0.9315 -0.1865 -1.9038
  158SAPE  H17S17679   0.158   3.295   8.738 -4.1957  3.8065 -1.8632
  158SAPE  C21817680  -0.024   3.204   8.802  0.9915 -0.4619 -0.0870
  158SAPE  H18R17681  -0.031   3.204   8.692  0.4320  0.7731 -0.0649
  158SAPE  H18S17682  -0.111   3.263   8.839 -0.2771 -1.0825 -1.9533
  158SAPE  C21917683  -0.029   3.071   8.873  0.7379 -0.1190  0.8125
  158SAPE  H19R17684   0.002   3.070   8.979 -1.4508  0.7312  1.5224
  158SAPE  H19S17685   0.026   2.995   8.815 -1.6913 -0.0106 -1.8707
  158SAPE  C22017686  -0.170   3.012   8.872 -0.8232  0.7077  0.6215
  158SAPE  H20R17687  -0.182   2.920   8.933  0.3644 -0.0133 -0.1986
  158SAPE  H20S17688  -0.198   2.990   8.766  0.4120  1.4531  0.1150
  158SAPE  H20T17689  -0.245   3.073   8.925 -1.8403  1.2058 -1.2805
  158SAPE   C3317690   0.877   3.059   9.736 -0.9800  0.8380 -0.1984
  158SAPE   H3X17691   0.846   2.956   9.764 -1.9428  1.2826  0.4183
  158SAPE   H3Y17692   0.982   3.074   9.769 -0.6333  3.3570 -2.1641
  158SAPE   C3417693   0.853   3.080   9.585  0.1322 -0.0002 -0.0436
  158SAPE   H4X17694   0.747   3.054   9.563  0.6984 -1.0341 -1.7860
  158SAPE   H4Y17695   0.913   3.009   9.523  0.1494 -0.2799  0.2930
  158SAPE   C3517696   0.885   3.222   9.534  0.8699  0.0036 -0.5523
  158SAPE   H5X17697   0.994   3.239   9.533  0.5607  2.2273 -1.3365
  158SAPE   H5Y17698   0.833   3.294   9.601  0.2014 -1.6189  0.7460
  158SAPE   C3617699   0.834   3.253   9.395 -0.6995 -0.0975  0.1972
  158SAPE   H6X17700   0.727   3.230   9.373 -0.7924  0.9973 -0.5508
  158SAPE   H6Y17701   0.880   3.194   9.313 -2.0958  2.4931 -2.6437
  158SAPE   C3717702   0.855   3.399   9.361  0.4329  0.1313 -0.3971
  158SAPE   H7X17703   0.961   3.429   9.372  0.8396 -1.1571 -0.5838
  158SAPE   H7Y17704   0.787   3.455   9.429 -0.9574 -0.5134 -1.1982
  158SAPE   C3817705   0.806   3.442   9.220  0.2655  0.0083  0.0365
  158SAPE   H8X17706   0.706   3.399   9.200 -0.6832  1.2592  1.7442
  158SAPE   H8Y17707   0.882   3.431   9.140  1.4474  4.0773  0.3348
  158SAPE   C3917708   0.772   3.598   9.212 -0.1825  0.7106 -0.1883
  158SAPE   H9X17709   0.873   3.642   9.227 -0.0270  0.8687 -1.6218
  158SAPE   H9Y17710   0.698   3.646   9.280 -0.0579  0.1497  0.3547
  158SAPE  C31017711   0.731   3.632   9.068  0.8643 -0.3903 -0.2268
  158SAPE  H10X17712   0.787   3.562   9.002  0.7072  0.0234 -0.8072
  158SAPE  H10Y17713   0.756   3.738   9.048 -2.2652  0.5107  0.1472
  158SAPE  C31117714   0.577   3.630   9.040 -0.0142 -0.0374 -0.5477
  158SAPE  H11X17715   0.531   3.706   9.108  0.9602 -1.5633  1.9446
  158SAPE  H11Y17716   0.531   3.530   9.054 -1.7546  0.5909 -1.4566
  158SAPE  C31217717   0.526   3.674   8.902 -0.6786 -0.3109 -0.7813
  158SAPE  H12X17718   0.591   3.752   8.856  1.1202  0.5178  2.8631
  158SAPE  H12Y17719   0.428   3.723   8.923 -1.6924 -1.9271 -1.5577
  158SAPE  C31317720   0.500   3.556   8.804 -0.0756 -0.0109 -0.1368
  158SAPE  H13X17721   0.406   3.505   8.832 -0.9119  1.7294  0.2992
  158SAPE  H13Y17722   0.582   3.481   8.809 -1.0397 -1.4843 -3.5381
  158SAPE  C31417723   0.502   3.598   8.651  0.9114 -0.3895 -0.1008
  158SAPE  H14X17724   0.499   3.507   8.587 -0.1041  0.3482 -1.1538
  158SAPE  H14Y17725   0.594   3.647   8.614  0.2793  2.5455  1.9091
  158SAPE  C31517726   0.392   3.700   8.628  0.2022 -0.3563  0.0566
  158SAPE  H15X17727   0.419   3.788   8.691  0.3322 -0.6421  0.4029
  158SAPE  H15Y17728   0.294   3.660   8.661 -0.8563  1.1546 -1.0991
  158SAPE  C31617729   0.380   3.735   8.479  0.4056 -0.6689  0.4542
  158SAPE  H16X17730   0.481   3.770   8.449 -0.4342  1.1239 -0.4883
  158SAPE  H16Y17731   0.314   3.824   8.469 -0.4420 -1.4350 -1.2087
  158SAPE  C31717732   0.320   3.637   8.381 -0.5538 -0.4426  0.1876
  158SAPE  H17X17733   0.406   3.570   8.356  1.1651  1.9534 -0.6928
  158SAPE  H17Y17734   0.285   3.690   8.289 -0.4835 -1.1204 -0.2396
  158SAPE  C31817735   0.201   3.558   8.427  0.3114  0.3067 -0.1113
  158SAPE  H18X17736   0.185   3.468   8.363  0.2354 -0.1547  0.5414
  158SAPE  H18Y17737   0.104   3.611   8.425  0.8725  1.3264 -2.2261
  158SAPE  H18Z17738   0.216   3.515   8.529 -0.7344  2.1623  0.8620
  159SAPE     N17739   5.575   5.633   6.604  0.0003  0.2497 -0.3479
  159SAPE   HN117740   5.645   5.664   6.674  0.4661 -1.4714 -0.0122
  159SAPE   HN217741   5.632   5.603   6.523  2.4657  0.8625  1.0654
  159SAPE   HN317742   5.520   5.718   6.579  2.9170  2.0601 -1.1262
  159SAPE   C1217743   5.478   5.532   6.658 -0.6394  0.5674  0.3129
  159SAPE  H12A17744   5.412   5.497   6.576  0.8557 -2.3443  0.2133
  159SAPE  H12B17745   5.417   5.586   6.734 -2.8179 -1.5565  0.1824
  159SAPE   C1117746   5.555   5.409   6.714  0.3873  0.6824  0.7962
  159SAPE  H11A17747   5.483   5.339   6.760  1.0932 -1.6639 -1.4621
  159SAPE  H11B17748   5.634   5.428   6.790 -0.0182 -2.0544  1.9876
  159SAPE     P17749   5.759   5.356   6.545 -0.2318 -0.0900  0.3189
  159SAPE   O1317750   5.803   5.220   6.506  0.2324 -0.5019 -0.5786
  159SAPE   O1417751   5.750   5.467   6.442  0.3369  0.3999 -0.1128
  159SAPE   O1217752   5.612   5.344   6.602  0.2403 -0.0769  0.7366
  159SAPE   O1117753   5.830   5.413   6.667 -0.1687  0.7196  0.0770
  159SAPE    C117754   5.950   5.349   6.718  0.5123  0.0790 -0.1660
  159SAPE    HA17755   5.963   5.243   6.688  1.4659 -0.1368  0.9524
  159SAPE    HB17756   6.037   5.404   6.677  0.7842 -0.9708 -1.0612
  159SAPE    C217757   5.954   5.349   6.871 -0.0409  0.5961 -0.5069
  159SAPE    HS17758   6.026   5.268   6.895  1.2354  1.2147 -2.0829
  159SAPE   O2117759   5.823   5.321   6.933  0.0966 -0.4668  0.1575
  159SAPE   C2117760   5.781   5.195   6.928 -0.5490  0.5484 -0.0519
  159SAPE   O2217761   5.841   5.109   6.866 -0.5170  0.4148  0.1019
  159SAPE   C2217762   5.667   5.177   7.027 -0.1319 -0.0098  0.3932
  159SAPE   H2R17763   5.695   5.202   7.131  1.0530 -0.7036  0.2615
  159SAPE   H2S17764   5.590   5.249   6.993 -0.7976  0.2621  2.3893
  159SAPE    C317765   6.015   5.477   6.933 -0.1935 -0.0602 -0.2160
  159SAPE    HX17766   5.949   5.554   6.887  0.2854  0.8858  0.6443
  159SAPE    HY17767   6.118   5.504   6.902 -0.3736  0.2461 -0.5555
  159SAPE   O3117768   6.002   5.485   7.074  0.4659 -0.2318 -0.0700
  159SAPE   C3117769   6.102   5.437   7.140 -0.0673 -0.6716  0.2386
  159SAPE   O3217770   6.199   5.383   7.095 -0.5914  0.4752  0.1153
  159SAPE   C3217771   6.082   5.473   7.291  0.0556  1.1307 -1.2253
  159SAPE   H2X17772   6.011   5.402   7.338  0.1557  2.0974  0.4411
  159SAPE   H2Y17773   6.033   5.572   7.293  0.4848  1.3740 -2.1650
  159SAPE   C2317774   5.611   5.033   7.026  0.2457  0.4256  0.0478
  159SAPE   H3R17775   5.579   4.999   6.925 -2.4648 -0.4615  1.1038
  159SAPE   H3S17776   5.517   5.039   7.085 -0.0420  2.8286 -0.5669
  159SAPE   C2417777   5.712   4.950   7.101  0.8589  0.6286  0.9260
  159SAPE   H4R17778   5.718   4.994   7.202  2.1382 -0.1799  1.2250
  159SAPE   H4S17779   5.817   4.955   7.065  0.4209 -1.3005 -0.8246
  159SAPE   C2517780   5.669   4.806   7.117 -0.2384 -0.0253 -0.3800
  159SAPE   H5R17781   5.666   4.739   7.030 -1.6840 -1.2961  0.5964
  159SAPE   C2617782   5.635   4.747   7.234  0.4270 -0.4731  0.1401
  159SAPE   H6R17783   5.618   4.639   7.222 -3.0717  0.0318 -0.4723
  159SAPE   C2717784   5.619   4.807   7.367 -0.7656  0.1359 -0.5198
  159SAPE   H7R17785   5.701   4.880   7.384 -0.9459  0.5954 -1.5523
  159SAPE   H7S17786   5.651   4.737   7.447 -1.1310 -0.4225 -0.8594
  159SAPE   C2817787   5.478   4.845   7.385  0.4353 -0.2641  0.3963
  159SAPE   H8R17788   5.398   4.770   7.369  0.1071  0.3700 -1.0927
  159SAPE   C2917789   5.429   4.971   7.403  0.5303 -0.2110 -0.3875
  159SAPE   H9R17790   5.321   4.986   7.407  0.7245  1.7649 -1.4011
  159SAPE  C21017791   5.516   5.097   7.397  0.0464  0.5093  0.1487
  159SAPE  H10R17792   5.604   5.080   7.332 -0.7092 -2.3260 -0.2643
  159SAPE  H10S17793   5.563   5.117   7.496 -1.5955  1.4308  0.7660
  159SAPE  C21117794   5.434   5.208   7.351  0.0628 -0.1862 -0.6233
  159SAPE  H11R17795   5.437   5.217   7.241  1.1845 -1.4537 -0.7166
  159SAPE  C21217796   5.385   5.308   7.422  0.8391 -0.2913  0.3484
  159SAPE  H12R17797   5.323   5.378   7.364 -1.6174 -2.3571  0.2781
  159SAPE  C21317798   5.391   5.330   7.573 -0.6124 -0.3485 -0.2406
  159SAPE  H13R17799   5.492   5.367   7.601 -0.5239 -1.3617  0.8671
  159SAPE  H13S17800   5.375   5.237   7.631  0.0343  1.0415  2.3466
  159SAPE  C21417801   5.296   5.443   7.611  0.5929 -0.6211  0.0842
  159SAPE  H14R17802   5.287   5.522   7.535  2.8671 -1.4510 -1.1266
  159SAPE  C21517803   5.243   5.468   7.727 -0.1304  0.2834  0.7041
  159SAPE  H15R17804   5.183   5.560   7.736  1.4790  1.3358  0.9850
  159SAPE  C21617805   5.246   5.382   7.844 -0.4163 -0.1384  0.1689
  159SAPE  H16R17806   5.349   5.345   7.862 -0.2844  0.1921  0.1010
  159SAPE  H16S17807   5.187   5.291   7.818  0.0070 -0.5643  0.6580
  159SAPE  C21717808   5.186   5.434   7.973 -0.3720 -0.0939 -0.2538
  159SAPE  H17R17809   5.222   5.359   8.047 -0.6430  0.0271  0.0088
  159SAPE  H17S17810   5.075   5.423   7.979 -0.4096  0.6394  0.6432
  159SAPE  C21817811   5.245   5.576   8.016 -0.1968  0.2538 -0.2047
  159SAPE  H18R17812   5.217   5.662   7.951 -0.0663  1.3879  1.1800
  159SAPE  H18S17813   5.352   5.554   7.996 -0.7722 -2.3615 -0.7111
  159SAPE  C21917814   5.229   5.607   8.163 -0.3346 -0.5417 -0.4723
  159SAPE  H19R17815   5.137   5.566   8.210  0.4390 -1.1167  0.5921
  159SAPE  H19S17816   5.227   5.718   8.168 -2.1359 -0.5709  0.7760
  159SAPE  C22017817   5.334   5.547   8.254 -0.4333 -0.7268  0.1952
  159SAPE  H20R17818   5.430   5.592   8.219 -0.7839 -1.4261 -1.7887
  159SAPE  H20S17819   5.335   5.438   8.235  0.3429 -0.3615 -2.2407
  159SAPE  H20T17820   5.321   5.558   8.364 -3.1394 -0.2495 -0.1091
  159SAPE   C3317821   6.219   5.490   7.360  0.6103 -0.3356  0.2402
  159SAPE   H3X17822   6.276   5.572   7.312  1.3127 -1.2383 -0.5002
  159SAPE   H3Y17823   6.277   5.396   7.346  0.9071 -0.4552  2.0051
  159SAPE   C3417824   6.195   5.523   7.512 -0.0624  0.5282 -0.1730
  159SAPE   H4X17825   6.137   5.617   7.522 -0.3914  0.1908  1.3678
  159SAPE   H4Y17826   6.297   5.545   7.551 -0.3777  0.1983  0.8705
  159SAPE   C3517827   6.145   5.412   7.602 -0.2360 -0.3819  0.0331
  159SAPE   H5X17828   6.212   5.324   7.606 -0.9498 -0.9050  3.2167
  159SAPE   H5Y17829   6.046   5.365   7.584 -0.6414  0.6257 -0.4233
  159SAPE   C3617830   6.148   5.461   7.750 -0.1002 -0.0746  0.0196
  159SAPE   H6X17831   6.082   5.549   7.767  2.4284  1.8269  0.5762
  159SAPE   H6Y17832   6.253   5.474   7.784  0.7026 -2.7195 -1.2184
  159SAPE   C3717833   6.089   5.365   7.849  0.1625  0.2122  0.7190
  159SAPE   H7X17834   6.139   5.267   7.830 -0.7318  0.1326 -1.4690
  159SAPE   H7Y17835   5.979   5.352   7.843  0.4422 -2.5288 -0.1138
  159SAPE   C3817836   6.126   5.397   7.999  0.6766 -0.4553  0.0140
  159SAPE   H8X17837   6.073   5.491   8.025 -0.4995 -0.6876 -1.4020
  159SAPE   H8Y17838   6.234   5.417   8.015  0.6371 -1.6792  2.1821
  159SAPE   C3917839   6.088   5.290   8.103  0.0118  0.7496  0.1287
  159SAPE   H9X17840   6.140   5.196   8.074 -0.1828  0.0081  2.0566
  159SAPE   H9Y17841   5.980   5.263   8.106  0.3721 -1.0603 -1.2945
  159SAPE  C31017842   6.131   5.329   8.244 -0.0070  0.0970  0.3193
  159SAPE  H10X17843   6.080   5.424   8.269  0.1920  0.0427  0.9503
  159SAPE  H10Y17844   6.242   5.341   8.242  0.1666 -1.2885  0.7527
  159SAPE  C31117845   6.099   5.234   8.354 -0.1371 -0.4937 -0.1996
  159SAPE  H11X17846   6.144   5.136   8.330  0.8908 -0.1222  0.1834
  159SAPE  H11Y17847   5.990   5.216   8.367 -0.0391 -1.7956 -1.0256
  159SAPE  C31217848   6.145   5.291   8.483 -0.5952 -0.1353  0.2277
  159SAPE  H12X17849   6.105   5.394   8.488  0.6057  0.3938 -0.7308
  159SAPE  H12Y17850   6.256   5.291   8.488 -0.2240  1.1818 -3.9220
  159SAPE  C31317851   6.086   5.218   8.610 -0.1679  0.6273  0.0997
  159SAPE  H13X17852   6.111   5.110   8.605 -1.5932  0.2951 -0.2322
  159SAPE  H13Y17853   5.975   5.228   8.609 -0.1766  0.6816 -1.5174
  159SAPE  C31417854   6.149   5.270   8.743 -0.1982  0.4064  0.0030
  159SAPE  H14X17855   6.104   5.368   8.767 -1.4080  0.1550 -1.1315
  159SAPE  H14Y17856   6.258   5.276   8.721 -0.2429  2.6650  0.1483
  159SAPE  C31517857   6.133   5.163   8.854  0.8575 -0.1281  0.4130
  159SAPE  H15X17858   6.195   5.192   8.942 -0.9773  1.0840  1.3873
  159SAPE  H15Y17859   6.162   5.066   8.809  0.9659 -0.2993  0.8413
  159SAPE  C31617860   5.987   5.161   8.900  0.2442 -0.2305  0.0281
  159SAPE  H16X17861   5.912   5.123   8.828  1.5701 -1.8816 -0.5339
  159SAPE  H16Y17862   5.953   5.265   8.918 -4.8140 -1.9899  2.5476
  159SAPE  C31717863   5.964   5.072   9.022 -0.3824 -0.4911  0.5493
  159SAPE  H17X17864   6.015   5.109   9.114  0.7323 -0.6244 -0.0007
  159SAPE  H17Y17865   6.009   4.973   9.001  2.2403  0.7387  0.0263
  159SAPE  C31817866   5.810   5.062   9.047 -0.4416 -0.0880  0.3339
  159SAPE  H18X17867   5.765   5.039   8.948  1.0574 -1.7453 -0.0268
  159SAPE  H18Y17868   5.772   5.152   9.100 -2.2924 -1.6948  1.9033
  159SAPE  H18Z17869   5.807   4.972   9.112  2.7095  2.5553  4.7176
  160SAPE     N17870   4.811   6.097   6.536 -0.9450  0.4976 -0.0622
  160SAPE   HN117871   4.837   6.025   6.466 -0.8454  0.2114  0.2703
  160SAPE   HN217872   4.820   6.191   6.493  0.6651  0.4046  0.0182
  160SAPE   HN317873   4.889   6.100   6.604  1.4518  0.3265 -2.6219
  160SAPE   C1217874   4.668   6.079   6.597  0.1483 -0.3875  0.1900
  160SAPE  H12A17875   4.672   5.982   6.650 -0.2117 -0.3325  0.3138
  160SAPE  H12B17876   4.604   6.061   6.508  0.3931 -0.8361  0.1003
  160SAPE   C1117877   4.637   6.194   6.693  0.4936  0.3762 -0.7961
  160SAPE  H11A17878   4.684   6.174   6.792  0.7439 -0.0804 -1.0083
  160SAPE  H11B17879   4.526   6.195   6.700  0.5348  0.7708 -0.0312
  160SAPE     P17880   4.568   6.431   6.566 -0.1811 -0.2007 -0.0136
  160SAPE   O1317881   4.645   6.533   6.492  0.8874 -0.0346 -0.5753
  160SAPE   O1417882   4.463   6.353   6.495 -0.0303  0.0575 -0.1088
  160SAPE   O1217883   4.667   6.319   6.627 -0.2422  0.5187 -0.1777
  160SAPE   O1117884   4.503   6.499   6.702 -0.0751 -0.3403  0.2057
  160SAPE    C117885   4.581   6.571   6.791 -0.1588  0.4180  0.4701
  160SAPE    HA17886   4.668   6.510   6.823 -0.9341  0.4851  2.9555
  160SAPE    HB17887   4.609   6.673   6.757  0.2737  0.7729  1.8120
  160SAPE    C217888   4.506   6.583   6.928  0.2766 -0.9754 -0.8423
  160SAPE    HS17889   4.405   6.614   6.897 -0.5395 -2.1338  0.5360
  160SAPE   O2117890   4.577   6.688   7.004  0.6621  0.0823  0.1105
  160SAPE   C2117891   4.507   6.774   7.066  0.3852  0.6342  0.2815
  160SAPE   O2217892   4.386   6.757   7.097 -0.0254 -0.7307  0.6258
  160SAPE   C2217893   4.591   6.886   7.105  0.4098 -0.4840  1.0090
  160SAPE   H2R17894   4.676   6.848   7.166  2.8238  2.4428 -0.2548
  160SAPE   H2S17895   4.636   6.934   7.015 -0.8584 -0.6209  0.2892
  160SAPE    C317896   4.491   6.452   7.006 -0.0792 -0.4879 -0.4554
  160SAPE    HX17897   4.583   6.391   7.005  0.9665  0.9408  1.6262
  160SAPE    HY17898   4.417   6.384   6.959 -0.7507  1.6692 -2.7141
  160SAPE   O3117899   4.474   6.488   7.142  0.2861 -0.0178 -0.0534
  160SAPE   C3117900   4.351   6.467   7.191  0.0147 -0.7880 -0.0128
  160SAPE   O3217901   4.262   6.417   7.127  0.3871 -0.1924 -0.2087
  160SAPE   C3217902   4.352   6.524   7.331  0.1106 -0.6294 -0.2716
  160SAPE   H2X17903   4.316   6.629   7.331  1.1698 -0.2566 -0.6624
  160SAPE   H2Y17904   4.458   6.526   7.364  0.6912  3.4404 -1.8669
  160SAPE   C2317905   4.507   6.996   7.179 -0.0328 -0.1201  0.6011
  160SAPE   H3R17906   4.443   6.957   7.260  1.1069 -0.8730  1.1698
  160SAPE   H3S17907   4.433   7.045   7.111  0.2179  0.3385  0.6524
  160SAPE   C2417908   4.590   7.108   7.239  0.9540 -0.4501  0.2463
  160SAPE   H4R17909   4.625   7.162   7.148 -1.2618 -2.5997 -2.0633
  160SAPE   H4S17910   4.668   7.052   7.294  0.1160 -1.2654  0.6326
  160SAPE   C2517911   4.509   7.205   7.317 -0.6941  0.2950 -0.4403
  160SAPE   H5R17912   4.401   7.192   7.299 -0.6469  0.9695 -1.2977
  160SAPE   C2617913   4.558   7.304   7.397  0.1385  0.5981 -0.4500
  160SAPE   H6R17914   4.488   7.370   7.449  0.6851  2.3358 -1.8438
  160SAPE   C2717915   4.702   7.335   7.428  0.0953 -0.5536 -0.1778
  160SAPE   H7R17916   4.769   7.331   7.341  0.8087 -0.8061  0.3744
  160SAPE   H7S17917   4.738   7.257   7.499 -1.7947 -0.8127  0.5750
  160SAPE   C2817918   4.699   7.463   7.506 -0.0268 -0.1637  0.0531
  160SAPE   H8R17919   4.746   7.553   7.461  1.6290 -0.1417  1.6872
  160SAPE   C2917920   4.655   7.480   7.635  0.4251 -0.0218  0.0323
  160SAPE   H9R17921   4.678   7.574   7.686  1.9795  0.0819 -0.8146
  160SAPE  C21017922   4.573   7.389   7.722 -0.9908 -0.3707 -0.0782
  160SAPE  H10R17923   4.565   7.293   7.666 -1.4908  1.2712 -3.0313
  160SAPE  H10S17924   4.471   7.429   7.711 -0.3146  1.4614  0.0111
  160SAPE  C21117925   4.628   7.405   7.862 -0.0962  0.1445 -0.0507
  160SAPE  H11R17926   4.661   7.507   7.886 -0.1141  0.7296 -2.2598
  160SAPE  C21217927   4.653   7.302   7.945  0.1760 -0.1642  0.4120
  160SAPE  H12R17928   4.697   7.312   8.045  1.0541 -2.3779  0.3210
  160SAPE  C21317929   4.620   7.158   7.902  0.4283  0.7139 -0.0735
  160SAPE  H13R17930   4.522   7.143   7.853  0.0336  1.5640  0.4414
  160SAPE  H13S17931   4.603   7.108   7.999  0.7638  1.7164  0.5290
  160SAPE  C21417932   4.730   7.080   7.822  0.2402 -1.3693 -0.0727
  160SAPE  H14R17933   4.737   7.090   7.713 -2.0696  0.3049 -0.1522
  160SAPE  C21517934   4.829   7.020   7.886  0.1654  0.0438  0.0593
  160SAPE  H15R17935   4.900   6.965   7.822 -0.9769 -2.6186  0.9444
  160SAPE  C21617936   4.850   6.995   8.027 -0.7878  0.4436  0.0280
  160SAPE  H16R17937   4.786   6.905   8.037  1.1932 -1.0530 -0.0901
  160SAPE  H16S17938   4.802   7.068   8.096  0.8389  0.7377  0.8994
  160SAPE  C21717939   5.002   6.967   8.059  0.9088 -0.7135 -0.4948
  160SAPE  H17R17940   5.069   7.044   8.014 -0.1801  0.9998  0.6845
  160SAPE  H17S17941   5.031   6.875   8.004  0.0317 -2.0289  1.1501
  160SAPE  C21817942   5.044   6.949   8.204  0.0280  0.8960 -0.1111
  160SAPE  H18R17943   5.023   7.039   8.267 -0.4270  0.1249  0.8768
  160SAPE  H18S17944   5.154   6.932   8.209  0.0716  0.6328 -1.5549
  160SAPE  C21917945   4.977   6.827   8.277  0.0486  0.0400  0.2461
  160SAPE  H19R17946   4.869   6.807   8.261  0.1312 -2.3244  2.0650
  160SAPE  H19S17947   4.995   6.841   8.386  1.3145  0.7345 -0.0352
  160SAPE  C22017948   5.057   6.698   8.247 -0.1079 -1.2579  0.8284
  160SAPE  H20R17949   5.044   6.683   8.138 -0.2730 -2.0770  0.9489
  160SAPE  H20S17950   5.024   6.602   8.294 -0.6243 -0.9560  1.0823
  160SAPE  H20T17951   5.168   6.709   8.251 -0.3764  1.8552  2.1750
  160SAPE   C3317952   4.275   6.434   7.434 -0.8214  0.0064  0.0373
  160SAPE   H3X17953   4.308   6.329   7.426  0.7087  0.4577  0.1083
  160SAPE   H3Y17954   4.168   6.446   7.407 -0.9622 -1.9317 -0.3646
  160SAPE   C3417955   4.295   6.462   7.581 -1.0188  0.4926 -0.7574
  160SAPE   H4X17956   4.274   6.571   7.595  0.0528  0.6989 -0.6666
  160SAPE   H4Y17957   4.398   6.437   7.614 -1.6025 -1.4120 -0.2821
  160SAPE   C3517958   4.201   6.377   7.669  0.0103 -0.6952 -0.0472
  160SAPE   H5X17959   4.095   6.399   7.646  0.0377  1.3923  1.5136
  160SAPE   H5Y17960   4.206   6.417   7.773  0.7741  0.4789 -0.5188
  160SAPE   C3617961   4.227   6.221   7.671 -0.2120 -0.4276 -0.1040
  160SAPE   H6X17962   4.336   6.210   7.692  0.3681  1.9019 -1.4831
  160SAPE   H6Y17963   4.200   6.184   7.570 -0.3805  0.5824 -0.4418
  160SAPE   C3717964   4.153   6.147   7.780  0.1753 -0.2233 -0.3645
  160SAPE   H7X17965   4.047   6.177   7.794  0.6715  1.0321  0.9136
  160SAPE   H7Y17966   4.188   6.171   7.883 -1.3060  1.2476 -0.1700
  160SAPE   C3817967   4.176   5.999   7.759 -0.4591  0.2147 -0.3188
  160SAPE   H8X17968   4.283   5.990   7.731 -0.1187 -0.6574  1.1374
  160SAPE   H8Y17969   4.119   5.972   7.668 -0.5367  0.5970 -0.3863
  160SAPE   C3917970   4.149   5.922   7.893 -0.2603  0.3638  0.3555
  160SAPE   H9X17971   4.119   5.820   7.859 -0.2147 -0.1394  1.7791
  160SAPE   H9Y17972   4.064   5.965   7.949  0.2933 -0.4840  1.8857
  160SAPE  C31017973   4.271   5.903   7.987  0.3045  1.5423  0.5273
  160SAPE  H10X17974   4.355   5.892   7.915 -0.5027  0.1523 -0.2620
  160SAPE  H10Y17975   4.247   5.809   8.041 -0.0533  1.2284 -0.1639
  160SAPE  C31117976   4.298   6.009   8.091  0.1650 -0.5378 -0.1920
  160SAPE  H11X17977   4.211   6.038   8.153 -0.0709  0.1821 -0.8341
  160SAPE  H11Y17978   4.346   6.096   8.041 -0.1840  0.9289  1.8983
  160SAPE  C31217979   4.396   5.959   8.201 -0.7346  0.6583 -0.5530
  160SAPE  H12X17980   4.470   5.895   8.148 -0.9670 -0.4484  0.4263
  160SAPE  H12Y17981   4.343   5.882   8.262  1.5718  0.1933  0.9827
  160SAPE  C31317982   4.447   6.069   8.297 -0.1182 -0.5153  0.4427
  160SAPE  H13X17983   4.358   6.111   8.348  3.1330  3.6729  3.3789
  160SAPE  H13Y17984   4.490   6.151   8.235 -2.3161  0.6473  0.3799
  160SAPE  C31417985   4.555   6.025   8.394  0.4717 -0.4279 -0.3080
  160SAPE  H14X17986   4.511   5.941   8.452 -1.0309  0.4965 -0.0290
  160SAPE  H14Y17987   4.582   6.109   8.462  0.6141 -1.1261  0.5172
  160SAPE  C31517988   4.693   5.978   8.333  1.0603  0.0762  0.5066
  160SAPE  H15X17989   4.732   6.067   8.280  0.5243  0.4987  0.8176
  160SAPE  H15Y17990   4.662   5.908   8.252  1.3810  2.3979 -1.7650
  160SAPE  C31617991   4.781   5.891   8.419  0.1712 -0.1294 -0.4355
  160SAPE  H16X17992   4.837   5.819   8.357  1.0762  0.7263 -0.6371
  160SAPE  H16Y17993   4.711   5.838   8.487  0.3206  1.5680  1.1219
  160SAPE  C31717994   4.892   5.970   8.494 -0.5286 -0.3426  0.1099
  160SAPE  H17X17995   4.828   6.046   8.544  0.2000  0.0538  0.4536
  160SAPE  H17Y17996   4.957   6.027   8.425 -2.0045  2.3705  0.8173
  160SAPE  C31817997   4.979   5.893   8.598  0.5336  0.6002  0.1323
  160SAPE  H18X17998   4.910   5.831   8.659 -1.7286  1.1054 -1.7529
  160SAPE  H18Y17999   5.023   5.964   8.670 -1.1459  0.4459  1.3722
  160SAPE  H18Z18000   5.064   5.840   8.550  0.0176  0.3826 -0.5627
  161SAPE     N18001   5.673   3.903   6.431 -0.7573  0.4957 -0.7179
  161SAPE   HN118002   5.746   3.968   6.394 -0.0484  0.9087  1.3003
  161SAPE   HN218003   5.600   3.873   6.364  0.1393  0.9107 -1.9213
  161SAPE   HN318004   5.632   3.955   6.511 -2.6205  0.4675 -1.6152
  161SAPE   C1218005   5.750   3.781   6.450  0.5628  0.4435  0.4924
  161SAPE  H12A18006   5.735   3.708   6.368 -1.3257  2.7531 -1.3658
  161SAPE  H12B18007   5.718   3.727   6.542  1.2351 -2.5829 -0.9092
  161SAPE   C1118008   5.896   3.812   6.464  0.2888 -0.2803  0.5303
  161SAPE  H11A18009   5.940   3.711   6.450  1.1323  0.4339 -2.7634
  161SAPE  H11B18010   5.929   3.853   6.562  1.3472 -0.0666  0.0994
  161SAPE     P18011   6.064   3.903   6.283  0.0171 -0.4157  0.0213
  161SAPE   O1318012   6.142   3.776   6.299  0.1186 -0.2434 -0.0584
  161SAPE   O1418013   6.030   3.928   6.141 -0.1873  0.1434 -0.7587
  161SAPE   O1218014   5.936   3.902   6.366  0.0778 -0.1882 -0.3944
  161SAPE   O1118015   6.155   4.022   6.339 -0.1084 -0.0693 -0.1705
  161SAPE    C118016   6.275   4.009   6.406 -0.6039 -0.4415 -0.0337
  161SAPE    HA18017   6.332   3.926   6.359  1.1769  1.4344 -1.3750
  161SAPE    HB18018   6.346   4.093   6.387 -0.6431  0.0852  1.9112
  161SAPE    C218019   6.248   3.990   6.558 -0.3665  0.3266  0.0559
  161SAPE    HS18020   6.345   3.993   6.613 -0.6070  0.6872  0.4671
  161SAPE   O2118021   6.179   3.868   6.586  0.5749 -0.2917  0.2533
  161SAPE   C2118022   6.262   3.758   6.585 -1.1572  1.5083  0.4653
  161SAPE   O2218023   6.383   3.764   6.556  0.3562  0.8207  0.3246
  161SAPE   C2218024   6.193   3.635   6.650 -0.3330 -0.5872  0.3063
  161SAPE   H2R18025   6.179   3.654   6.758  0.2923  2.4341 -0.0435
  161SAPE   H2S18026   6.091   3.626   6.607 -0.1016 -1.5594 -0.0590
  161SAPE    C318027   6.170   4.103   6.635  0.1308  0.5322  0.2070
  161SAPE    HX18028   6.080   4.120   6.572 -0.0163  2.4119  0.8399
  161SAPE    HY18029   6.239   4.189   6.627 -0.8497  1.5202  1.7161
  161SAPE   O3118030   6.142   4.070   6.773  0.1512 -0.1199  0.3259
  161SAPE   C3118031   6.014   4.084   6.811  0.0018  0.3430 -0.5276
  161SAPE   O3218032   5.924   4.122   6.741  0.3070 -0.1005  0.1122
  161SAPE   C3218033   5.993   4.014   6.944  0.1597 -0.4152 -0.2970
  161SAPE   H2X18034   5.981   3.904   6.943  0.9894 -0.5141 -0.1772
  161SAPE   H2Y18035   5.897   4.057   6.981 -0.1185 -0.4097 -1.0020
  161SAPE   C2318036   6.279   3.510   6.636 -0.2421 -0.5974 -0.1385
  161SAPE   H3R18037   6.375   3.529   6.690 -1.2306 -2.3935  2.4693
  161SAPE   H3S18038   6.294   3.501   6.527 -1.5111 -1.7861 -0.2398
  161SAPE   C2418039   6.211   3.379   6.680  0.4867  0.0836 -0.3630
  161SAPE   H4R18040   6.109   3.376   6.635  0.6060  5.2304 -1.5883
  161SAPE   H4S18041   6.196   3.386   6.789  0.7982 -0.8675 -0.2465
  161SAPE   C2518042   6.292   3.258   6.639 -0.5075 -0.0541 -0.4431
  161SAPE   H5R18043   6.266   3.223   6.538  2.7334  0.8655 -1.7274
  161SAPE   C2618044   6.371   3.188   6.722 -0.2306  0.2599 -0.5542
  161SAPE   H6R18045   6.420   3.093   6.696 -1.6417 -0.4547 -0.6819
  161SAPE   C2718046   6.398   3.214   6.871 -0.0329 -0.1722  0.2339
  161SAPE   H7R18047   6.434   3.123   6.924  1.4469  1.4604  2.1927
  161SAPE   H7S18048   6.302   3.240   6.919  0.2592 -0.5856  1.0537
  161SAPE   C2818049   6.507   3.316   6.895  0.9461  0.9041 -1.4138
  161SAPE   H8R18050   6.606   3.286   6.858  1.3007 -1.0224  0.9420
  161SAPE   C2918051   6.491   3.414   6.986 -0.1444  0.3584  0.3642
  161SAPE   H9R18052   6.576   3.482   7.000 -2.1913  2.8511  1.3882
  161SAPE  C21018053   6.375   3.444   7.070  0.2027 -0.0736 -0.3706
  161SAPE  H10R18054   6.393   3.381   7.160 -0.8671 -0.3846 -0.3583
  161SAPE  H10S18055   6.277   3.403   7.038 -0.4436  1.5262 -0.5622
  161SAPE  C21118056   6.356   3.594   7.101 -0.6384 -0.1576 -0.3570
  161SAPE  H11R18057   6.297   3.653   7.029  1.8007  1.3288 -1.2841
  161SAPE  C21218058   6.398   3.662   7.213  0.1085  0.0882 -0.2613
  161SAPE  H12R18059   6.378   3.770   7.207  0.2060  0.0536 -1.6451
  161SAPE  C21318060   6.480   3.610   7.329  0.2024 -0.5442  0.4060
  161SAPE  H13R18061   6.578   3.655   7.356  0.4580 -1.9214  1.9827
  161SAPE  H13S18062   6.512   3.510   7.291 -1.1177 -0.3612 -1.2813
  161SAPE  C21418063   6.393   3.591   7.457  0.1046  0.5744 -0.0169
  161SAPE  H14R18064   6.285   3.597   7.439  0.1927  1.9965 -0.1851
  161SAPE  C21518065   6.438   3.559   7.577 -0.0039 -0.6490  0.1506
  161SAPE  H15R18066   6.364   3.546   7.657 -0.5495  0.1458 -0.2083
  161SAPE  C21618067   6.588   3.538   7.601  0.7898 -0.0402 -0.8447
  161SAPE  H16R18068   6.661   3.556   7.520  2.9007 -0.2632  0.9161
  161SAPE  H16S18069   6.602   3.429   7.618  1.9058  0.3605  1.1424
  161SAPE  C21718070   6.632   3.630   7.719 -0.5245  0.3007 -0.2914
  161SAPE  H17R18071   6.568   3.720   7.731 -1.3067 -0.0392 -1.6734
  161SAPE  H17S18072   6.736   3.662   7.700 -0.0674  0.2864  1.9329
  161SAPE  C21818073   6.641   3.558   7.862  0.5981  0.0590 -0.2249
  161SAPE  H18R18074   6.548   3.509   7.898  1.6282 -2.4956 -0.7944
  161SAPE  H18S18075   6.667   3.639   7.933  2.7539 -0.4223 -0.3912
  161SAPE  C21918076   6.746   3.452   7.866 -0.0485  0.4450 -0.0083
  161SAPE  H19R18077   6.841   3.473   7.813  0.1830  0.8912  0.5692
  161SAPE  H19S18078   6.704   3.367   7.808 -1.8990  0.7732  0.7685
  161SAPE  C22018079   6.769   3.399   8.006  0.3361  0.0284  0.3616
  161SAPE  H20R18080   6.784   3.476   8.085 -2.2422  0.5641  0.4028
  161SAPE  H20S18081   6.859   3.333   8.009 -0.5802 -1.2370  0.7241
  161SAPE  H20T18082   6.674   3.348   8.030 -0.5220  1.2513 -0.3173
  161SAPE   C3318083   6.101   4.057   7.049 -0.2554  0.1528  0.4413
  161SAPE   H3X18084   6.106   4.167   7.064 -2.2588  0.6503 -1.9784
  161SAPE   H3Y18085   6.205   4.046   7.011  0.5450  1.4927  2.0908
  161SAPE   C3418086   6.084   3.981   7.188  0.1697  0.5446  0.3487
  161SAPE   H4X18087   6.128   3.879   7.187 -1.2218 -0.0814  0.0900
  161SAPE   H4Y18088   5.974   3.974   7.204 -0.2474  1.7496 -1.7312
  161SAPE   C3518089   6.153   4.036   7.309 -0.0255  0.2276 -0.0303
  161SAPE   H5X18090   6.113   3.997   7.405  0.0537  0.5121  0.1213
  161SAPE   H5Y18091   6.109   4.138   7.321 -1.8073 -0.6568  1.4194
  161SAPE   C3618092   6.307   4.061   7.309 -0.1025  0.5457  0.0977
  161SAPE   H6X18093   6.316   4.130   7.222  0.7897 -0.9261 -1.0351
  161SAPE   H6Y18094   6.354   3.965   7.278 -2.4388 -0.7122  0.2093
  161SAPE   C3718095   6.365   4.124   7.431 -0.2605 -0.9397  1.1539
  161SAPE   H7X18096   6.295   4.206   7.456  2.4784  1.6457  0.9096
  161SAPE   H7Y18097   6.470   4.155   7.408 -0.5308 -2.3811 -2.6892
  161SAPE   C3818098   6.358   4.043   7.555  0.0680  0.1935  0.0633
  161SAPE   H8X18099   6.405   3.945   7.533 -0.1501 -0.1136  0.9151
  161SAPE   H8Y18100   6.250   4.029   7.579 -0.2073  0.2005 -1.0846
  161SAPE   C3918101   6.429   4.102   7.672 -0.4104 -0.1780  0.0359
  161SAPE   H9X18102   6.366   4.186   7.710  0.2435  0.2740  0.1466
  161SAPE   H9Y18103   6.527   4.146   7.642 -1.5372  1.6912 -1.0983
  161SAPE  C31018104   6.451   3.997   7.781  0.2922 -0.3142 -0.1800
  161SAPE  H10X18105   6.542   3.940   7.753  0.9853  0.2615  0.8441
  161SAPE  H10Y18106   6.363   3.929   7.774  0.2381 -0.1415 -1.3049
  161SAPE  C31118107   6.474   4.049   7.920  0.2243  0.1816  0.6900
  161SAPE  H11X18108   6.406   4.134   7.943 -0.8087  0.1022 -1.7059
  161SAPE  H11Y18109   6.576   4.092   7.914  0.8340 -1.3849 -1.8281
  161SAPE  C31218110   6.458   3.932   8.021 -0.0955 -0.2141  0.3123
  161SAPE  H12X18111   6.460   3.839   7.960 -0.2629 -1.4505  2.1276
  161SAPE  H12Y18112   6.362   3.933   8.076 -0.1611 -0.0727  0.1968
  161SAPE  C31318113   6.552   3.930   8.135  0.6592 -0.5426 -0.5737
  161SAPE  H13X18114   6.540   4.028   8.185 -0.9873 -1.2060  0.3911
  161SAPE  H13Y18115   6.658   3.913   8.109  0.0522 -2.1293 -2.2068
  161SAPE  C31418116   6.510   3.820   8.238 -0.3017 -0.1585 -0.0651
  161SAPE  H14X18117   6.526   3.720   8.192  0.0254 -0.2258  0.1864
  161SAPE  H14Y18118   6.407   3.834   8.278  0.6401  1.4768  2.0067
  161SAPE  C31518119   6.604   3.813   8.361  0.0906  0.1385 -0.1090
  161SAPE  H15X18120   6.710   3.836   8.336  0.3850 -1.2850 -0.2569
  161SAPE  H15Y18121   6.593   3.712   8.404 -0.2406  1.0079  1.9640
  161SAPE  C31618122   6.568   3.918   8.472  0.0102 -0.0086  0.4732
  161SAPE  H16X18123   6.466   3.886   8.502  0.3684 -0.8836  0.8204
  161SAPE  H16Y18124   6.559   4.019   8.427  2.5139 -0.1707 -0.5593
  161SAPE  C31718125   6.670   3.922   8.585 -0.4750 -0.3672  0.8702
  161SAPE  H17X18126   6.649   4.011   8.649  1.0946 -0.2573  1.2845
  161SAPE  H17Y18127   6.773   3.938   8.546 -1.1693  0.5629 -0.6931
  161SAPE  C31818128   6.674   3.797   8.672 -0.2795  0.0954  0.4739
  161SAPE  H18X18129   6.752   3.808   8.751 -0.7423 -0.7448  1.0659
  161SAPE  H18Y18130   6.703   3.701   8.624  3.8511  1.9020 -1.1220
  161SAPE  H18Z18131   6.577   3.784   8.724  0.0160  0.7119  1.2001
  162SAPE     N18132   4.244   2.217   5.927 -0.0281  0.0598 -0.1079
  162SAPE   HN118133   4.219   2.117   5.943 -1.2425  0.0597 -1.7544
  162SAPE   HN218134   4.216   2.240   5.829 -0.2377  0.1368 -0.0310
  162SAPE   HN318135   4.347   2.222   5.939 -0.2485  1.2103  1.7319
  162SAPE   C1218136   4.198   2.306   6.044  0.6702  0.1522 -0.6718
  162SAPE  H12A18137   4.242   2.406   6.025 -0.1495  1.2603  2.5965
  162SAPE  H12B18138   4.243   2.264   6.136 -1.2951 -0.0745  0.2444
  162SAPE   C1118139   4.042   2.327   6.061 -0.1772  0.2136 -0.7723
  162SAPE  H11A18140   3.999   2.355   5.962 -0.1328 -1.4062 -1.2865
  162SAPE  H11B18141   4.018   2.404   6.137 -0.7719  1.2126 -1.9317
  162SAPE     P18142   3.849   2.196   6.178  0.0984 -0.2705  0.0018
  162SAPE   O1318143   3.753   2.298   6.139 -0.2401 -0.0853  0.7199
  162SAPE   O1418144   3.799   2.055   6.181  0.1028 -0.1851  0.3351
  162SAPE   O1218145   3.981   2.205   6.098 -0.2105 -0.2043 -0.1800
  162SAPE   O1118146   3.902   2.230   6.324  1.1062  0.0142  0.5817
  162SAPE    C118147   3.971   2.131   6.401 -0.7934  0.0598  0.3083
  162SAPE    HA18148   3.909   2.042   6.426 -1.6313  0.5690  0.0538
  162SAPE    HB18149   4.071   2.115   6.355 -0.3450  2.0092  0.5174
  162SAPE    C218150   4.013   2.189   6.540  0.1638 -0.7766  0.5817
  162SAPE    HS18151   4.100   2.128   6.573  0.4739 -0.0390  1.1527
  162SAPE   O2118152   3.899   2.189   6.635  0.0470  0.4894  0.3739
  162SAPE   C2118153   3.870   2.072   6.684 -0.3224 -0.0704  0.4157
  162SAPE   O2218154   3.935   1.969   6.658 -0.0950  0.3244 -0.0288
  162SAPE   C2218155   3.768   2.082   6.799 -0.3121  0.1701  0.2211
  162SAPE   H2R18156   3.668   2.067   6.755  0.3188 -0.3703 -1.0796
  162SAPE   H2S18157   3.783   1.991   6.861  1.9685  0.7899  0.6815
  162SAPE    C318158   4.059   2.334   6.522 -0.1068 -0.0625 -0.5346
  162SAPE    HX18159   3.966   2.394   6.514 -1.1881 -1.3556  1.5896
  162SAPE    HY18160   4.120   2.347   6.430 -0.4167  0.7830 -0.6245
  162SAPE   O3118161   4.127   2.370   6.645 -0.6072 -0.4984  0.0894
  162SAPE   C3118162   4.262   2.354   6.645 -0.1511  0.1867  0.5931
  162SAPE   O3218163   4.328   2.307   6.555 -0.2068  0.0167 -0.1247
  162SAPE   C3218164   4.317   2.421   6.767  0.5258  0.1348 -0.3259
  162SAPE   H2X18165   4.291   2.529   6.761 -1.1277 -0.2628 -0.8395
  162SAPE   H2Y18166   4.428   2.414   6.772  0.4080 -1.3048  0.7220
  162SAPE   C2318167   3.790   2.213   6.879 -0.4241  0.0198  0.6674
  162SAPE   H3R18168   3.694   2.225   6.934  0.4210  0.0672  2.1704
  162SAPE   H3S18169   3.791   2.303   6.814 -0.8652  0.1927  0.8945
  162SAPE   C2418170   3.909   2.214   6.984  0.7259 -0.2473 -0.1244
  162SAPE   H4R18171   3.917   2.321   7.015 -3.5657 -0.0652  1.1065
  162SAPE   H4S18172   4.007   2.198   6.935  0.9566  0.6506  0.0256
  162SAPE   C2518173   3.899   2.115   7.096  0.4403  0.4212 -0.1834
  162SAPE   H5R18174   3.879   2.012   7.062  1.0132  0.1491  0.2915
  162SAPE   C2618175   3.917   2.129   7.227  0.1822  0.6737  0.4883
  162SAPE   H6R18176   3.896   2.040   7.288 -0.1919 -0.2782 -0.9769
  162SAPE   C2718177   3.958   2.261   7.295  0.3350  0.2689 -0.0426
  162SAPE   H7R18178   3.956   2.343   7.220  1.8264  1.5568  1.2672
  162SAPE   H7S18179   4.064   2.249   7.327  0.1220  1.4344  1.1664
  162SAPE   C2818180   3.877   2.293   7.421 -0.4068 -0.7398  0.0086
  162SAPE   H8R18181   3.800   2.370   7.403 -1.4276 -1.9125 -0.8128
  162SAPE   C2918182   3.910   2.260   7.547  0.6039 -0.6099 -0.6014
  162SAPE   H9R18183   3.834   2.286   7.622  2.5152 -0.8157  1.5563
  162SAPE  C21018184   4.037   2.177   7.587  0.1755 -0.2895  0.0503
  162SAPE  H10R18185   4.090   2.130   7.500  1.4775  2.3603 -0.6890
  162SAPE  H10S18186   4.002   2.099   7.658 -1.9651  0.1528 -0.4515
  162SAPE  C21118187   4.143   2.261   7.644  0.2050 -0.1702 -0.1930
  162SAPE  H11R18188   4.186   2.333   7.573 -0.6505 -1.5818 -2.2341
  162SAPE  C21218189   4.210   2.247   7.760 -0.2179  0.4134  1.3713
  162SAPE  H12R18190   4.272   2.333   7.789  1.9552 -0.1685 -1.2628
  162SAPE  C21318191   4.190   2.136   7.857  0.6924  0.2882 -0.5861
  162SAPE  H13R18192   4.131   2.058   7.805 -1.8596  3.1544 -2.3659
  162SAPE  H13S18193   4.126   2.165   7.943  1.2246  2.2695 -0.8191
  162SAPE  C21418194   4.308   2.071   7.926  0.0865 -0.1055  0.4575
  162SAPE  H14R18195   4.336   1.969   7.897 -0.5568 -0.4744  1.1050
  162SAPE  C21518196   4.373   2.116   8.030 -0.4369 -0.0349  0.0861
  162SAPE  H15R18197   4.452   2.051   8.071 -2.4816 -2.3493  0.5645
  162SAPE  C21618198   4.346   2.239   8.107  0.5423  0.2927 -0.7453
  162SAPE  H16R18199   4.263   2.300   8.065 -0.8450  1.1885  2.8910
  162SAPE  H16S18200   4.433   2.307   8.108 -0.3216  1.4362 -1.2874
  162SAPE  C21718201   4.314   2.219   8.258 -1.0469  0.0967 -0.0770
  162SAPE  H17R18202   4.230   2.147   8.269 -1.3059  0.5938  1.6278
  162SAPE  H17S18203   4.285   2.316   8.305  1.2395  1.2732 -0.9230
  162SAPE  C21818204   4.439   2.167   8.329  0.3952 -0.2249 -0.6221
  162SAPE  H18R18205   4.526   2.233   8.310  1.3450 -0.8830  1.2275
  162SAPE  H18S18206   4.463   2.062   8.303  2.8823 -0.1332  1.0044
  162SAPE  C21918207   4.423   2.170   8.482 -0.4363 -0.1200  0.3885
  162SAPE  H19R18208   4.382   2.266   8.520 -2.8099 -1.5433  1.6199
  162SAPE  H19S18209   4.521   2.158   8.534 -1.9853 -0.5239  3.4518
  162SAPE  C22018210   4.334   2.054   8.517  0.6880 -0.0211 -0.0374
  162SAPE  H20R18211   4.230   2.067   8.479  0.3256  0.8982  1.2180
  162SAPE  H20S18212   4.331   2.030   8.625  1.8015  1.1673  0.2843
  162SAPE  H20T18213   4.352   1.961   8.459 -1.4051 -0.9777  0.7494
  162SAPE   C3318214   4.266   2.377   6.906  0.1453 -0.2842 -0.5739
  162SAPE   H3X18215   4.310   2.276   6.920  0.2117 -0.1142  0.5174
  162SAPE   H3Y18216   4.155   2.373   6.897  0.1893  1.1280 -2.3011
  162SAPE   C3418217   4.315   2.470   7.014 -0.3996 -0.2320 -0.1760
  162SAPE   H4X18218   4.273   2.572   7.010  0.0285 -0.0547 -0.2293
  162SAPE   H4Y18219   4.423   2.479   6.991 -0.8415  0.1428 -2.2886
  162SAPE   C3518220   4.284   2.398   7.145 -0.4986 -0.2480 -0.1470
  162SAPE   H5X18221   4.354   2.314   7.123  0.1638  1.0640 -3.5842
  162SAPE   H5Y18222   4.177   2.369   7.145 -0.3365 -0.8696  0.0366
  162SAPE   C3618223   4.311   2.488   7.265 -0.0215 -0.3753 -0.6591
  162SAPE   H6X18224   4.268   2.431   7.349 -3.1049  0.4199 -1.5668
  162SAPE   H6Y18225   4.259   2.586   7.258 -0.6138 -0.6348 -0.0359
  162SAPE   C3718226   4.457   2.513   7.302  0.6399 -0.7458  0.2850
  162SAPE   H7X18227   4.508   2.550   7.210 -0.5869 -1.5888 -0.7728
  162SAPE   H7Y18228   4.493   2.412   7.330  0.1513 -0.2390  3.0903
  162SAPE   C3818229   4.479   2.610   7.420  0.4419 -0.2144 -0.3301
  162SAPE   H8X18230   4.431   2.709   7.406  2.1072  0.9901  1.8029
  162SAPE   H8Y18231   4.585   2.643   7.415  0.1829  0.9645  1.2746
  162SAPE   C3918232   4.461   2.541   7.555  0.5013 -0.7067  0.8493
  162SAPE   H9X18233   4.533   2.460   7.578  0.5714 -0.0315  3.2437
  162SAPE   H9Y18234   4.356   2.505   7.554  0.2720 -0.1713  2.6298
  162SAPE  C31018235   4.463   2.642   7.674 -0.0277 -0.0857  0.9287
  162SAPE  H10X18236   4.367   2.699   7.673 -0.0447 -0.0426 -1.3303
  162SAPE  H10Y18237   4.540   2.718   7.650  1.7628 -0.6498  4.2905
  162SAPE  C31118238   4.495   2.579   7.808  0.3601 -1.1382 -0.0736
  162SAPE  H11X18239   4.605   2.589   7.814  0.3000  0.7477 -1.2633
  162SAPE  H11Y18240   4.478   2.469   7.799  0.4213 -1.0035 -3.0629
  162SAPE  C31218241   4.419   2.640   7.925 -0.1570  0.1542 -0.8171
  162SAPE  H12X18242   4.457   2.736   7.964 -0.7076 -0.2543  0.8255
  162SAPE  H12Y18243   4.449   2.565   8.002  1.2333 -0.7768 -2.1974
  162SAPE  C31318244   4.270   2.642   7.915 -0.1368  0.3725 -0.5949
  162SAPE  H13X18245   4.243   2.544   7.871  2.4577  0.3422 -2.3346
  162SAPE  H13Y18246   4.230   2.719   7.845 -0.5237 -0.0845 -0.8866
  162SAPE  C31418247   4.196   2.676   8.052 -0.2252  0.2836  1.3626
  162SAPE  H14X18248   4.246   2.612   8.127  0.5160 -1.7391 -0.7558
  162SAPE  H14Y18249   4.086   2.663   8.061 -0.0184 -2.2253  0.8152
  162SAPE  C31518250   4.212   2.829   8.079 -0.0847  0.5787 -0.1074
  162SAPE  H15X18251   4.160   2.883   7.997 -0.7960 -0.0633 -0.1015
  162SAPE  H15Y18252   4.319   2.857   8.075  0.0326  0.2518  0.4992
  162SAPE  C31618253   4.147   2.866   8.217 -0.1969  0.3018 -0.0496
  162SAPE  H16X18254   4.183   2.792   8.292  1.6964  4.2835  3.3652
  162SAPE  H16Y18255   4.036   2.857   8.214 -0.1150 -0.8979 -3.6377
  162SAPE  C31718256   4.190   3.004   8.260 -0.2243 -0.1727 -0.1602
  162SAPE  H17X18257   4.156   3.081   8.188  0.8567  1.5473  1.0761
  162SAPE  H17Y18258   4.300   3.024   8.254 -0.9048  4.9424  0.3490
  162SAPE  C31818259   4.160   3.055   8.403  0.4419  0.3503  0.6670
  162SAPE  H18X18260   4.183   3.163   8.416  0.7681  0.2203  1.2130
  162SAPE  H18Y18261   4.210   2.998   8.484 -0.3701  0.0224  0.9560
  162SAPE  H18Z18262   4.053   3.044   8.430  0.2671  0.0345 -0.1082
  163SAPE     N18263   3.779   6.459   6.364 -0.1103  0.0299  0.4518
  163SAPE   HN118264   3.727   6.531   6.309 -2.5507 -2.2911 -0.5723
  163SAPE   HN218265   3.805   6.385   6.296 -1.2955 -1.3403  1.4103
  163SAPE   HN318266   3.709   6.413   6.426 -1.3706 -1.1998 -1.7324
  163SAPE   C1218267   3.899   6.497   6.448  0.2364 -0.1450  0.0990
  163SAPE  H12A18268   3.870   6.582   6.514 -0.6666 -0.7419  0.4920
  163SAPE  H12B18269   3.973   6.545   6.381  1.3651  0.0457  1.4194
  163SAPE   C1118270   3.960   6.374   6.518 -0.4127  0.2184 -0.3609
  163SAPE  H11A18271   4.030   6.400   6.601 -2.0641 -2.4629  2.0413
  163SAPE  H11B18272   4.023   6.326   6.440 -2.5594 -3.2258 -0.1584
  163SAPE     P18273   3.903   6.159   6.641 -0.1255  0.2692 -0.1580
  163SAPE   O1318274   3.943   6.059   6.539 -0.1991 -0.0174  0.1003
  163SAPE   O1418275   3.995   6.215   6.741  0.3374 -0.0845 -0.5783
  163SAPE   O1218276   3.855   6.292   6.572  0.4190 -0.0516 -0.0879
  163SAPE   O1118277   3.771   6.120   6.710  0.2100 -0.4558 -0.4961
  163SAPE    C118278   3.730   5.983   6.711 -0.7675 -0.0018 -0.8352
  163SAPE    HA18279   3.632   5.969   6.661 -1.8284 -2.0587  1.5807
  163SAPE    HB18280   3.810   5.918   6.671 -1.3412  1.0019 -3.8205
  163SAPE    C218281   3.698   5.946   6.856 -0.1129  0.4139  0.4516
  163SAPE    HS18282   3.627   6.024   6.890  0.5579  0.8629  0.8521
  163SAPE   O2118283   3.818   5.936   6.937  0.5527  0.0137  0.0202
  163SAPE   C2118284   3.839   6.036   7.025 -0.6850 -0.1248  0.6001
  163SAPE   O2218285   3.773   6.134   7.039 -0.1788 -0.0530  0.3606
  163SAPE   C2218286   3.959   5.983   7.118 -0.4579  0.1222  0.0769
  163SAPE   H2R18287   3.906   5.907   7.180 -1.8094  0.4427 -0.6397
  163SAPE   H2S18288   4.036   5.934   7.054 -0.5659 -2.1499  1.5659
  163SAPE    C318289   3.620   5.809   6.859 -0.5523 -0.5250  0.7796
  163SAPE    HX18290   3.690   5.737   6.812  0.0338  1.8670 -2.3254
  163SAPE    HY18291   3.531   5.813   6.792  1.6120 -0.0538 -2.2592
  163SAPE   O3118292   3.572   5.767   6.989 -0.1895  0.2815 -0.4972
  163SAPE   C3118293   3.655   5.678   7.054 -0.2086  0.1332  0.3287
  163SAPE   O3218294   3.759   5.632   7.012  0.0740  0.2313 -0.3425
  163SAPE   C3218295   3.575   5.634   7.180 -0.3508  0.7250  0.4600
  163SAPE   H2X18296   3.480   5.593   7.140  0.0988 -0.4093  0.5340
  163SAPE   H2Y18297   3.550   5.724   7.241  1.0068  1.7060 -0.3674
  163SAPE   C2318298   4.031   6.098   7.185  0.0138  0.9188 -0.6061
  163SAPE   H3R18299   3.957   6.160   7.241 -2.7269 -1.8499 -0.9181
  163SAPE   H3S18300   4.083   6.159   7.108 -0.3589  0.3073 -1.3512
  163SAPE   C2418301   4.135   6.037   7.290 -0.5604 -0.3875 -0.0376
  163SAPE   H4R18302   4.196   6.114   7.342 -1.0384 -0.0305  0.0088
  163SAPE   H4S18303   4.200   5.973   7.227  0.8520  0.5818  0.3807
  163SAPE   C2518304   4.075   5.941   7.392 -0.0951  0.4950 -0.0326
  163SAPE   H5R18305   4.014   5.986   7.472 -1.9957 -2.6744  0.4318
  163SAPE   C2618306   4.095   5.805   7.399  0.0451  0.1853 -0.2329
  163SAPE   H6R18307   4.035   5.750   7.472  2.0094  0.6876  1.8703
  163SAPE   C2718308   4.166   5.716   7.294  0.4129 -0.1213 -0.3062
  163SAPE   H7R18309   4.272   5.706   7.326  0.6017  0.7270 -0.6350
  163SAPE   H7S18310   4.171   5.778   7.202  1.4352  1.8190  0.9802
  163SAPE   C2818311   4.106   5.574   7.288 -0.4712  0.4997 -0.5761
  163SAPE   H8R18312   4.036   5.558   7.205 -1.2933 -0.8665  0.3383
  163SAPE   C2918313   4.143   5.478   7.368 -0.8541 -0.8162  0.5821
  163SAPE   H9R18314   4.100   5.379   7.349 -0.7738 -0.7924  0.2747
  163SAPE  C21018315   4.251   5.485   7.480 -0.4961 -0.2016 -0.5639
  163SAPE  H10R18316   4.241   5.576   7.543 -1.3332 -0.3408 -0.4809
  163SAPE  H10S18317   4.354   5.500   7.443  0.1505  0.6940  1.4975
  163SAPE  C21118318   4.251   5.353   7.558  0.7114  0.4980  0.5888
  163SAPE  H11R18319   4.320   5.273   7.527  0.8450  1.0336 -0.5404
  163SAPE  C21218320   4.159   5.331   7.655  0.2107 -0.1024  0.3246
  163SAPE  H12R18321   4.163   5.229   7.696  0.3723 -0.3013 -0.1877
  163SAPE  C21318322   4.055   5.424   7.711  0.7049 -0.5766  0.1029
  163SAPE  H13R18323   3.977   5.355   7.752  0.1006 -1.4466 -2.3650
  163SAPE  H13S18324   3.988   5.471   7.637 -0.7683 -2.0466  0.4221
  163SAPE  C21418325   4.113   5.527   7.804  0.3507 -0.3916  0.1001
  163SAPE  H14R18326   4.128   5.630   7.768 -1.6326  0.1792  0.7720
  163SAPE  C21518327   4.116   5.509   7.934  0.0348  0.2700 -1.0606
  163SAPE  H15R18328   4.159   5.585   8.001 -0.6678 -2.2211  2.5383
  163SAPE  C21618329   4.088   5.382   8.016 -0.2787 -0.2061 -0.1570
  163SAPE  H16R18330   4.175   5.320   7.986 -0.6364 -0.4074 -0.7987
  163SAPE  H16S18331   4.003   5.319   7.981 -0.9043  0.2975  0.4115
  163SAPE  C21718332   4.071   5.379   8.173 -0.3982  1.0405  0.3184
  163SAPE  H17R18333   3.972   5.420   8.203 -2.6264 -2.6635 -1.2856
  163SAPE  H17S18334   4.145   5.451   8.214 -0.5396  1.1833  0.3237
  163SAPE  C21818335   4.104   5.233   8.230 -0.0800 -0.1685 -0.1828
  163SAPE  H18R18336   4.213   5.215   8.219 -0.1912 -2.3109  1.5158
  163SAPE  H18S18337   4.070   5.156   8.157  1.7651 -0.0600 -1.2189
  163SAPE  C21918338   4.059   5.195   8.369 -0.2540  0.2506  0.1552
  163SAPE  H19R18339   4.090   5.089   8.379 -0.8490  0.2711  3.3794
  163SAPE  H19S18340   3.949   5.196   8.382 -0.3727  1.0036 -0.7688
  163SAPE  C22018341   4.123   5.266   8.491  0.4204 -0.0188  0.7243
  163SAPE  H20R18342   4.092   5.370   8.471 -1.1898 -0.4877  0.6502
  163SAPE  H20S18343   4.232   5.247   8.481  0.1465 -0.7694 -1.0622
  163SAPE  H20T18344   4.062   5.238   8.580 -1.2771  2.8703  0.5914
  163SAPE   C3318345   3.655   5.527   7.256 -0.5640 -0.4799  0.3308
  163SAPE   H3X18346   3.754   5.561   7.293 -0.6628 -1.2086  1.3004
  163SAPE   H3Y18347   3.677   5.442   7.188  1.0320  0.6402 -0.6381
  163SAPE   C3418348   3.572   5.480   7.378 -0.3806 -0.4746 -0.3308
  163SAPE   H4X18349   3.480   5.430   7.341  0.0676 -0.3061 -1.7259
  163SAPE   H4Y18350   3.546   5.574   7.430  0.1104 -1.0085  0.9059
  163SAPE   C3518351   3.649   5.383   7.471  0.1691 -0.4923 -0.2160
  163SAPE   H5X18352   3.754   5.420   7.476  0.8370 -2.2889 -0.1465
  163SAPE   H5Y18353   3.653   5.289   7.413 -0.5265 -0.1729 -0.7903
  163SAPE   C3618354   3.583   5.354   7.614  0.2190  0.0954  0.4067
  163SAPE   H6X18355   3.640   5.270   7.660  1.3152  0.4562 -0.2481
  163SAPE   H6Y18356   3.474   5.337   7.601  0.0296  1.3362  0.2490
  163SAPE   C3718357   3.599   5.473   7.708 -0.6011 -0.2731  0.3375
  163SAPE   H7X18358   3.565   5.563   7.653 -0.2162 -0.8527 -0.9099
  163SAPE   H7Y18359   3.708   5.479   7.727 -0.5146 -1.1436  0.1577
  163SAPE   C3818360   3.521   5.457   7.832 -0.5822 -0.4097  0.2333
  163SAPE   H8X18361   3.413   5.465   7.807 -0.5286  1.3166  0.3947
  163SAPE   H8Y18362   3.535   5.537   7.908 -0.1013  0.1008 -0.3799
  163SAPE   C3918363   3.539   5.320   7.910  0.0769  0.1133  0.1086
  163SAPE   H9X18364   3.646   5.290   7.923 -0.4357 -1.8242  0.0810
  163SAPE   H9Y18365   3.492   5.240   7.850  0.6560 -0.5565  0.5303
  163SAPE  C31018366   3.466   5.327   8.038 -0.0024  0.5366 -0.1675
  163SAPE  H10X18367   3.447   5.219   8.057 -1.3362  0.4724 -1.6952
  163SAPE  H10Y18368   3.364   5.371   8.029  0.1090  0.6790 -0.7420
  163SAPE  C31118369   3.546   5.385   8.155 -0.3015  0.6738  0.2969
  163SAPE  H11X18370   3.544   5.493   8.127 -0.8844  1.0991  1.8913
  163SAPE  H11Y18371   3.649   5.345   8.143 -1.2836 -1.3500 -2.5647
  163SAPE  C31218372   3.485   5.352   8.287  0.0265  0.6650 -0.0802
  163SAPE  H12X18373   3.382   5.394   8.293 -0.2087 -0.0628  1.5749
  163SAPE  H12Y18374   3.547   5.417   8.353 -1.2110 -0.0216  1.8651
  163SAPE  C31318375   3.475   5.203   8.328 -0.1170  0.0660 -0.0686
  163SAPE  H13X18376   3.572   5.162   8.292 -0.0547  1.2132 -1.2628
  163SAPE  H13Y18377   3.393   5.146   8.280  0.2770 -0.4278 -0.1666
  163SAPE  C31418378   3.450   5.188   8.480  0.1354  0.4968 -0.3428
  163SAPE  H14X18379   3.444   5.081   8.509 -2.5884  0.4196 -0.9490
  163SAPE  H14Y18380   3.356   5.236   8.513 -0.5721 -1.8416  1.2504
  163SAPE  C31518381   3.554   5.250   8.575 -0.5652 -0.2465  0.7696
  163SAPE  H15X18382   3.567   5.360   8.562  3.0522 -0.6944 -0.7135
  163SAPE  H15Y18383   3.654   5.210   8.547 -0.7340  0.3696 -0.8354
  163SAPE  C31618384   3.520   5.236   8.722  0.4793 -0.1618  0.3553
  163SAPE  H16X18385   3.481   5.133   8.732 -1.7177  0.6228  0.2426
  163SAPE  H16Y18386   3.442   5.307   8.755  1.6399  1.9988 -1.2825
  163SAPE  C31718387   3.653   5.233   8.799 -0.1679 -0.0188 -0.3564
  163SAPE  H17X18388   3.698   5.332   8.777  1.2695 -0.4952  0.3481
  163SAPE  H17Y18389   3.723   5.158   8.757 -0.6278 -0.7845  0.2041
  163SAPE  C31818390   3.620   5.220   8.950  0.5766 -0.5272 -0.5612
  163SAPE  H18X18391   3.586   5.324   8.969  0.0263 -0.3784 -2.1977
  163SAPE  H18Y18392   3.711   5.194   9.009 -1.2216 -2.3271  1.6353
  163SAPE  H18Z18393   3.543   5.141   8.963  0.9612 -1.2517 -2.3383
  164SAPE     N18394   0.326   2.712   5.625 -0.4696 -0.6818 -0.3793
  164SAPE   HN118395   0.336   2.610   5.607  0.2350 -0.6873  0.0198
  164SAPE   HN218396   0.241   2.727   5.684  0.6450 -1.2158  1.4197
  164SAPE   HN318397   0.319   2.769   5.538  1.1925  1.7658  0.9561
  164SAPE   C1218398   0.442   2.774   5.694 -0.5132 -0.7765  0.4791
  164SAPE  H12A18399   0.438   2.885   5.692  0.2368 -0.7450  0.6536
  164SAPE  H12B18400   0.529   2.744   5.632 -1.1640 -1.7821  0.0318
  164SAPE   C1118401   0.462   2.724   5.843  0.1252 -0.4746  0.0796
  164SAPE  H11A18402   0.474   2.809   5.915  0.8377 -3.4991  3.8702
  164SAPE  H11B18403   0.563   2.679   5.848  0.7466  0.7952 -0.6132
  164SAPE     P18404   0.362   2.474   5.863  0.0403 -0.2526  0.1294
  164SAPE   O1318405   0.324   2.450   5.717  0.6678  0.1783  0.0258
  164SAPE   O1418406   0.497   2.423   5.901 -0.1643  0.2733  0.2103
  164SAPE   O1218407   0.360   2.629   5.882 -0.0243 -0.4109 -0.2484
  164SAPE   O1118408   0.249   2.424   5.965  0.2473 -0.2135  0.0985
  164SAPE    C118409   0.220   2.497   6.081  0.2177 -0.1400 -0.5983
  164SAPE    HA18410   0.226   2.606   6.058 -0.0073 -0.2870 -1.3995
  164SAPE    HB18411   0.116   2.475   6.113  0.9054 -2.4410  0.2456
  164SAPE    C218412   0.305   2.463   6.201  0.0260  0.4933 -0.9920
  164SAPE    HS18413   0.403   2.443   6.152 -0.7204 -0.9782 -1.9945
  164SAPE   O2118414   0.252   2.342   6.253  0.8300  0.3904  0.0143
  164SAPE   C2118415   0.321   2.301   6.362 -0.2999 -0.4485 -0.0886
  164SAPE   O2218416   0.426   2.353   6.398  0.1542 -0.0883 -1.0563
  164SAPE   C2218417   0.251   2.180   6.411  0.7793  0.3206  0.3381
  164SAPE   H2R18418   0.142   2.199   6.398  0.8787 -0.5948 -2.7197
  164SAPE   H2S18419   0.281   2.098   6.342  0.7526  1.4237 -1.0367
  164SAPE    C318420   0.318   2.580   6.302  0.6455 -0.3719  0.2773
  164SAPE    HX18421   0.311   2.672   6.240  1.5617 -1.5369 -1.6533
  164SAPE    HY18422   0.416   2.591   6.353  1.0840 -1.4156 -0.3076
  164SAPE   O3118423   0.209   2.580   6.401  0.2080 -0.2399  0.6145
  164SAPE   C3118424   0.241   2.629   6.519 -0.4141  0.2845 -0.5479
  164SAPE   O3218425   0.345   2.687   6.548  0.5759 -0.0756 -0.2571
  164SAPE   C3218426   0.128   2.615   6.620  0.3252 -0.2831 -0.6991
  164SAPE   H2X18427   0.104   2.507   6.618 -0.2485 -0.1557 -0.9807
  164SAPE   H2Y18428   0.036   2.666   6.584  1.0287 -0.3646 -2.7318
  164SAPE   C2318429   0.288   2.140   6.559 -0.0106  0.3084 -0.5489
  164SAPE   H3R18430   0.250   2.209   6.638  0.2287  0.1551 -0.3036
  164SAPE   H3S18431   0.399   2.139   6.565 -0.0592 -0.7829  0.2811
  164SAPE   C2418432   0.242   1.998   6.590 -0.1795 -0.1498  0.3746
  164SAPE   H4R18433   0.279   1.980   6.693  0.0112 -0.9725  0.1739
  164SAPE   H4S18434   0.287   1.920   6.524 -0.0649 -1.2774  1.7485
  164SAPE   C2518435   0.090   1.972   6.588  0.4428 -0.1673 -0.2769
  164SAPE   H5R18436   0.034   2.010   6.501 -2.4977  0.0999  1.5743
  164SAPE   C2618437   0.018   1.921   6.691 -0.5427 -0.2013  0.6143
  164SAPE   H6R18438  -0.089   1.932   6.665 -0.0704  1.0739 -0.9511
  164SAPE   C2718439   0.067   1.876   6.826  0.0274  0.0407 -0.5525
  164SAPE   H7R18440   0.146   1.801   6.807 -1.5517 -1.5944 -0.8702
  164SAPE   H7S18441  -0.011   1.807   6.864 -1.4493  0.9468 -1.8150
  164SAPE   C2818442   0.120   1.981   6.929  0.7862 -0.0654  0.3301
  164SAPE   H8R18443   0.150   2.079   6.890  0.2692  0.2373  0.6829
  164SAPE   C2918444   0.127   1.968   7.066 -1.1987 -0.5588  0.0439
  164SAPE   H9R18445   0.150   2.052   7.132 -0.9191  0.1697 -0.9593
  164SAPE  C21018446   0.087   1.843   7.141 -0.4415  0.4430 -0.2318
  164SAPE  H10R18447   0.119   1.753   7.084  1.9848  1.3660 -0.4300
  164SAPE  H10S18448  -0.022   1.833   7.157 -0.4941 -2.4376 -1.6710
  164SAPE  C21118449   0.162   1.831   7.274  0.1761 -0.3469  0.5628
  164SAPE  H11R18450   0.269   1.811   7.261 -0.2389 -0.7031 -3.5621
  164SAPE  C21218451   0.124   1.862   7.398 -0.4533  0.2815  0.1152
  164SAPE  H12R18452   0.196   1.849   7.480  0.3192  0.9369 -0.4501
  164SAPE  C21318453  -0.012   1.910   7.441  0.0137 -0.0038  0.1192
  164SAPE  H13R18454  -0.050   1.842   7.520 -0.6924 -1.1043 -1.1191
  164SAPE  H13S18455  -0.090   1.901   7.363  0.3647 -1.0793 -0.1383
  164SAPE  C21418456  -0.001   2.048   7.503  0.0506 -0.9039  1.0272
  164SAPE  H14R18457   0.020   2.135   7.439 -0.5989 -0.7040  1.0771
  164SAPE  C21518458   0.001   2.077   7.635  0.2219 -0.5591 -0.3281
  164SAPE  H15R18459   0.021   2.180   7.669  2.6948 -1.4349  1.1383
  164SAPE  C21618460  -0.010   1.982   7.752  0.0267 -0.5342 -0.1315
  164SAPE  H16R18461   0.070   2.002   7.826 -1.1030  2.4201  0.4274
  164SAPE  H16S18462   0.010   1.879   7.717  2.4922  0.2580 -1.2881
  164SAPE  C21718463  -0.150   1.988   7.819 -0.3998  0.4887  0.2342
  164SAPE  H17R18464  -0.221   1.944   7.745 -0.2592 -0.7420  0.7952
  164SAPE  H17S18465  -0.177   2.093   7.844  0.2864  0.7001  0.1067
  164SAPE  C21818466  -0.159   1.902   7.943  0.4838 -0.8951 -0.2453
  164SAPE  H18R18467  -0.083   1.822   7.936  0.0335 -1.2480 -1.3386
  164SAPE  H18S18468  -0.261   1.859   7.947 -0.4616  1.1938 -0.4263
  164SAPE  C21918469  -0.143   1.983   8.078  0.2096 -0.5552  0.2655
  164SAPE  H19R18470  -0.201   2.075   8.058  0.2486 -0.7581 -0.8546
  164SAPE  H19S18471  -0.034   2.005   8.088  0.4628 -1.7314  0.2716
  164SAPE  C22018472  -0.199   1.904   8.191 -0.0850 -0.1563  0.3269
  164SAPE  H20R18473  -0.195   1.947   8.294 -1.2039 -1.3692  0.9023
  164SAPE  H20S18474  -0.150   1.804   8.194 -1.5803 -0.9856 -1.2601
  164SAPE  H20T18475  -0.304   1.871   8.182 -0.7397  2.0233 -0.6463
  164SAPE   C3318476   0.173   2.641   6.768  0.1454  0.6986  0.5811
  164SAPE   H3X18477   0.081   2.675   6.819 -1.1180  2.7846 -2.7689
  164SAPE   H3Y18478   0.240   2.730   6.771  0.0206  0.8305 -0.4594
  164SAPE   C3418479   0.247   2.529   6.832 -0.3351 -0.0017  0.0068
  164SAPE   H4X18480   0.337   2.514   6.769 -0.5999  1.2604 -0.7192
  164SAPE   H4Y18481   0.189   2.435   6.822 -0.2461 -0.4979  3.2595
  164SAPE   C3518482   0.295   2.545   6.978  0.0091  0.2358 -0.0415
  164SAPE   H5X18483   0.335   2.645   7.002 -0.2169  0.2154  0.4166
  164SAPE   H5Y18484   0.377   2.475   7.008  0.2003 -0.5525 -2.1994
  164SAPE   C3618485   0.176   2.505   7.078  0.1354  0.9253 -0.2431
  164SAPE   H6X18486   0.153   2.398   7.061  0.5635  0.4409  1.8816
  164SAPE   H6Y18487   0.086   2.562   7.047  0.1019  0.7597 -0.4526
  164SAPE   C3718488   0.203   2.528   7.230 -0.3543 -0.1143  0.0376
  164SAPE   H7X18489   0.245   2.630   7.243 -0.1789 -0.2612  0.6456
  164SAPE   H7Y18490   0.286   2.460   7.260  0.5483  0.8956 -0.1253
  164SAPE   C3818491   0.073   2.513   7.313  0.3721 -0.2458 -0.2364
  164SAPE   H8X18492   0.018   2.431   7.262 -1.8889  0.1948  1.3564
  164SAPE   H8Y18493   0.017   2.608   7.309  2.6212  1.2355  1.2626
  164SAPE   C3918494   0.105   2.480   7.461  0.0100 -0.1871 -0.2960
  164SAPE   H9X18495   0.150   2.566   7.514  1.1142 -1.7574  1.4489
  164SAPE   H9Y18496   0.188   2.407   7.459  1.1208  0.9485  1.7523
  164SAPE  C31018497  -0.007   2.436   7.549  0.5529 -0.5286 -0.0898
  164SAPE  H10X18498  -0.041   2.333   7.528 -0.3110  0.0169 -1.5513
  164SAPE  H10Y18499  -0.094   2.501   7.524  1.8963  0.1381 -3.7024
  164SAPE  C31118500   0.030   2.457   7.692 -0.2034  0.3767  0.0370
  164SAPE  H11X18501   0.075   2.558   7.702 -0.6518  0.4072  2.2007
  164SAPE  H11Y18502   0.107   2.384   7.725 -1.6301 -1.3881 -0.3744
  164SAPE  C31218503  -0.090   2.450   7.792 -0.3892 -0.4489 -0.1572
  164SAPE  H12X18504  -0.157   2.366   7.764 -0.2219 -0.3622 -0.8247
  164SAPE  H12Y18505  -0.160   2.535   7.779 -0.8749 -0.7575  0.3703
  164SAPE  C31318506  -0.061   2.443   7.942 -0.0279 -0.6346  0.1028
  164SAPE  H13X18507   0.008   2.360   7.968 -0.3106 -1.5312 -1.8643
  164SAPE  H13Y18508  -0.163   2.419   7.978 -1.0529 -0.1013 -2.2402
  164SAPE  C31418509  -0.010   2.578   7.996  0.1327  0.0834  0.2870
  164SAPE  H14X18510  -0.090   2.648   7.964 -1.0614 -0.0220  2.7781
  164SAPE  H14Y18511   0.089   2.607   7.954 -1.3808  3.3489 -1.4566
  164SAPE  C31518512   0.009   2.586   8.150  0.0515 -0.1793  0.0603
  164SAPE  H15X18513   0.068   2.676   8.179  1.9155 -1.5896  0.8616
  164SAPE  H15Y18514   0.065   2.502   8.195 -0.4668  0.3834  1.8689
  164SAPE  C31618515  -0.130   2.598   8.214  0.8387  0.8818  0.2639
  164SAPE  H16X18516  -0.172   2.498   8.194 -1.1996  1.4760  1.2592
  164SAPE  H16Y18517  -0.184   2.672   8.151  1.9091  2.5731  1.2271
  164SAPE  C31718518  -0.136   2.639   8.359 -0.4605  0.6676  0.1352
  164SAPE  H17X18519  -0.102   2.745   8.365 -0.9616  0.8189  0.3185
  164SAPE  H17Y18520  -0.056   2.587   8.417 -0.6140  0.1038 -0.1512
  164SAPE  C31818521  -0.270   2.627   8.442 -0.2067  0.5091 -0.1720
  164SAPE  H18X18522  -0.364   2.655   8.390 -0.4453  1.8911  0.9594
  164SAPE  H18Y18523  -0.267   2.696   8.528  0.3744 -1.5213  1.5281
  164SAPE  H18Z18524  -0.284   2.523   8.479  2.9300  0.2283  0.4871
  165SAPE     N18525   6.610   4.693   6.493  0.4400 -0.4164 -0.5105
  165SAPE   HN118526   6.688   4.741   6.443  2.0230 -0.5715  1.6971
  165SAPE   HN218527   6.518   4.732   6.463  0.7211 -0.2659 -1.2017
  165SAPE   HN318528   6.625   4.708   6.595 -0.1888 -0.4095 -0.4153
  165SAPE   C1218529   6.630   4.552   6.461 -0.7746 -0.4473  0.6531
  165SAPE  H12A18530   6.536   4.504   6.430 -0.2503  0.4620 -2.7491
  165SAPE  H12B18531   6.680   4.499   6.545  0.4512 -0.5067 -0.0757
  165SAPE   C1118532   6.725   4.548   6.344 -0.1985  0.4807  0.6489
  165SAPE  H11A18533   6.678   4.600   6.258  1.6492  0.5119 -0.3865
  165SAPE  H11B18534   6.725   4.442   6.311 -1.8556  0.1755  1.5037
  165SAPE     P18535   6.909   4.735   6.312 -0.1226  0.0365 -0.2390
  165SAPE   O1318536   6.957   4.725   6.168  0.2451 -0.3218  0.0831
  165SAPE   O1418537   6.800   4.833   6.331  0.2164  0.7873 -0.7919
  165SAPE   O1218538   6.857   4.592   6.365 -0.3857  0.4202 -0.0460
  165SAPE   O1118539   7.023   4.764   6.412 -0.2747 -0.1569  0.4533
  165SAPE    C118540   7.053   4.662   6.512  0.7758  0.4514  0.3113
  165SAPE    HA18541   6.964   4.633   6.572 -0.8631  3.7248 -0.2823
  165SAPE    HB18542   7.106   4.572   6.476  1.4729  0.5073  1.1522
  165SAPE    C218543   7.173   4.703   6.610 -0.0972  0.1462 -0.6335
  165SAPE    HS18544   7.197   4.613   6.672 -1.2921 -0.6715 -1.2993
  165SAPE   O2118545   7.121   4.810   6.694  0.0960  0.1034  0.6371
  165SAPE   C2118546   7.173   4.822   6.816  0.8915  0.0627 -0.0188
  165SAPE   O2218547   7.255   4.747   6.864  0.0189 -0.8588 -0.9894
  165SAPE   C2218548   7.120   4.947   6.889  0.0486  0.0410  0.0139
  165SAPE   H2R18549   7.203   5.017   6.912 -0.3187  0.3630  0.3771
  165SAPE   H2S18550   7.062   5.019   6.827 -0.1544  1.7601  2.0868
  165SAPE    C318551   7.298   4.760   6.535  0.6239 -0.3787  0.7401
  165SAPE    HX18552   7.272   4.858   6.490 -0.5479 -0.5697  0.9632
  165SAPE    HY18553   7.318   4.688   6.453  0.3902 -0.6346  0.9053
  165SAPE   O3118554   7.410   4.770   6.614  0.1481  0.0295  0.3238
  165SAPE   C3118555   7.474   4.656   6.643  0.2218  0.0718  0.4082
  165SAPE   O3218556   7.442   4.547   6.604  0.0476 -0.3951  0.2001
  165SAPE   C3218557   7.606   4.695   6.727 -0.1790  0.0908 -0.1729
  165SAPE   H2X18558   7.575   4.784   6.785  0.0882  0.1836 -0.1704
  165SAPE   H2Y18559   7.678   4.723   6.647 -1.9424  3.7427 -0.6919
  165SAPE   C2318560   7.063   4.924   7.036  0.3653  0.6022 -0.1230
  165SAPE   H3R18561   7.036   5.015   7.093  1.1713 -1.0399  3.1752
  165SAPE   H3S18562   7.127   4.866   7.106  1.4676  2.8016  0.7590
  165SAPE   C2418563   6.932   4.845   7.029  0.1136 -0.3879  0.4966
  165SAPE   H4R18564   6.894   4.794   7.120 -3.3459 -0.2568 -0.7296
  165SAPE   H4S18565   6.969   4.755   6.974  2.5982  0.4490  0.6685
  165SAPE   C2518566   6.822   4.921   6.963  0.0426  0.0889  0.5083
  165SAPE   H5R18567   6.815   4.900   6.855 -1.0922 -3.0498  1.0605
  165SAPE   C2618568   6.737   4.998   7.014 -0.6345  0.1389 -0.2310
  165SAPE   H6R18569   6.677   5.058   6.944  1.2153  0.8902 -1.2431
  165SAPE   C2718570   6.726   5.037   7.161  0.3106  0.4342 -0.2367
  165SAPE   H7R18571   6.761   5.142   7.173  2.3322 -0.2507  0.3250
  165SAPE   H7S18572   6.798   4.984   7.227 -2.4635 -1.3507  1.5478
  165SAPE   C2818573   6.586   5.024   7.206  1.2848  0.3631 -0.2430
  165SAPE   H8R18574   6.516   5.035   7.121 -0.2660  2.2494  1.1965
  165SAPE   C2918575   6.540   5.012   7.335 -0.1940  0.3012  1.0290
  165SAPE   H9R18576   6.432   5.014   7.356 -0.6786  1.3994 -1.2104
  165SAPE  C21018577   6.637   5.007   7.451  0.4565  0.1474  0.2364
  165SAPE  H10R18578   6.664   5.114   7.465 -2.0468  0.7484  0.8899
  165SAPE  H10S18579   6.731   4.964   7.411 -0.8781 -3.6414  0.7868
  165SAPE  C21118580   6.595   4.930   7.573  0.0693  0.5248  0.1719
  165SAPE  H11R18581   6.606   4.821   7.570  0.2184  0.5608 -2.3428
  165SAPE  C21218582   6.547   4.983   7.690  0.1128 -0.1415  0.5524
  165SAPE  H12R18583   6.507   4.916   7.767  0.9694 -2.1133 -0.6504
  165SAPE  C21318584   6.534   5.130   7.724  0.2098 -0.8151 -0.0122
  165SAPE  H13R18585   6.520   5.191   7.633  0.7903  1.5364  1.3834
  165SAPE  H13S18586   6.622   5.167   7.781 -0.3347 -0.5797  0.6953
  165SAPE  C21418587   6.415   5.157   7.813 -0.1459  0.4452 -0.0222
  165SAPE  H14R18588   6.325   5.163   7.750  0.2613  0.0668 -0.6627
  165SAPE  C21518589   6.416   5.186   7.945 -0.9122 -0.9254 -0.6825
  165SAPE  H15R18590   6.323   5.207   8.000  0.0946 -0.3713  0.9065
  165SAPE  C21618591   6.539   5.185   8.032  0.5772 -0.0246 -0.5550
  165SAPE  H16R18592   6.563   5.293   8.046 -0.4967  0.1399  0.1828
  165SAPE  H16S18593   6.619   5.125   7.986 -1.5414 -1.8822 -2.0184
  165SAPE  C21718594   6.523   5.122   8.173 -0.6591 -0.3291 -0.4413
  165SAPE  H17R18595   6.491   5.016   8.164 -0.4866 -0.4663  0.4753
  165SAPE  H17S18596   6.433   5.173   8.212 -1.9107 -1.7670 -1.3264
  165SAPE  C21818597   6.638   5.140   8.271 -0.3645 -0.5036  0.1178
  165SAPE  H18R18598   6.636   5.243   8.312  0.6900 -0.0374 -0.9354
  165SAPE  H18S18599   6.738   5.137   8.223  0.3686 -1.1336  1.6232
  165SAPE  C21918600   6.637   5.049   8.391 -0.1865 -0.1930  0.3637
  165SAPE  H19R18601   6.627   4.943   8.359 -1.6303  0.2071 -0.6486
  165SAPE  H19S18602   6.537   5.064   8.438 -0.4609  2.5705 -0.9113
  165SAPE  C22018603   6.744   5.078   8.496  0.4829 -0.3500 -0.4691
  165SAPE  H20R18604   6.751   5.003   8.577 -0.7857  1.8816  1.8411
  165SAPE  H20S18605   6.744   5.182   8.537 -0.0041 -1.2061  1.8662
  165SAPE  H20T18606   6.838   5.049   8.445 -0.6408 -1.9744 -1.7137
  165SAPE   C3318607   7.650   4.585   6.822 -0.3192 -0.1255  0.3445
  165SAPE   H3X18608   7.755   4.608   6.851 -0.1314  3.9451 -2.6513
  165SAPE   H3Y18609   7.640   4.484   6.776  2.4604 -0.0927 -0.5269
  165SAPE   C3418610   7.555   4.581   6.942  0.2318 -0.1006 -0.5776
  165SAPE   H4X18611   7.451   4.576   6.902  0.8642  0.8758 -2.4490
  165SAPE   H4Y18612   7.570   4.679   6.992  0.5755  0.1608 -1.1793
  165SAPE   C3518613   7.583   4.456   7.032 -0.4606 -0.2144 -0.0465
  165SAPE   H5X18614   7.690   4.437   7.050 -0.6700 -1.4687 -0.0417
  165SAPE   H5Y18615   7.538   4.364   6.989 -0.2421 -0.5498  0.4394
  165SAPE   C3618616   7.518   4.484   7.172 -1.0636  0.3388  0.6377
  165SAPE   H6X18617   7.409   4.493   7.154 -0.5457  3.0487 -1.8223
  165SAPE   H6Y18618   7.542   4.583   7.214 -2.4847  1.2089 -0.4950
  165SAPE   C3718619   7.559   4.378   7.276  0.0363  0.0109 -0.4423
  165SAPE   H7X18620   7.577   4.283   7.222 -1.9506 -0.9881  0.5577
  165SAPE   H7Y18621   7.478   4.358   7.349  0.2179  1.1453  0.0918
  165SAPE   C3818622   7.688   4.421   7.340  0.6271  0.3209 -0.0237
  165SAPE   H8X18623   7.658   4.518   7.386  0.5455  0.2102  0.1562
  165SAPE   H8Y18624   7.768   4.431   7.263  1.7407  0.3882  1.1018
  165SAPE   C3918625   7.746   4.332   7.452 -0.7413  0.1381  0.6657
  165SAPE   H9X18626   7.828   4.385   7.504 -0.8712 -0.5250  1.5644
  165SAPE   H9Y18627   7.785   4.233   7.421 -1.1232  1.0315 -3.2227
  165SAPE  C31018628   7.647   4.313   7.565  0.5231  0.3655 -0.7787
  165SAPE  H10X18629   7.563   4.249   7.533 -0.7001  0.4443  2.0171
  165SAPE  H10Y18630   7.598   4.408   7.594 -0.4334 -0.7065  1.2678
  165SAPE  C31118631   7.707   4.251   7.694 -0.0822 -0.0619 -0.3759
  165SAPE  H11X18632   7.775   4.328   7.738  1.1801 -1.1686 -0.3266
  165SAPE  H11Y18633   7.771   4.163   7.672  1.2443  0.8249 -0.2593
  165SAPE  C31218634   7.590   4.211   7.788 -0.3070 -0.2175 -0.0753
  165SAPE  H12X18635   7.534   4.126   7.743 -0.4493  1.5567 -3.6064
  165SAPE  H12Y18636   7.514   4.292   7.787  1.2340  1.3352 -2.3773
  165SAPE  C31318637   7.642   4.186   7.930 -0.2135 -0.1949  0.9037
  165SAPE  H13X18638   7.675   4.283   7.972 -0.8799 -0.0650  1.1325
  165SAPE  H13Y18639   7.718   4.105   7.921 -0.0684  0.1031 -1.0771
  165SAPE  C31418640   7.534   4.128   8.021 -0.4277 -0.0457 -0.4665
  165SAPE  H14X18641   7.501   4.034   7.972 -1.4990 -0.3081  0.7101
  165SAPE  H14Y18642   7.443   4.191   8.031 -1.0804 -0.4935 -2.9872
  165SAPE  C31518643   7.589   4.107   8.162  0.1605 -0.1546 -0.0695
  165SAPE  H15X18644   7.612   4.201   8.217  1.4038 -0.3751 -0.1744
  165SAPE  H15Y18645   7.696   4.085   8.143  0.6452 -0.4768  2.6267
  165SAPE  C31618646   7.519   4.011   8.258 -1.1717  0.2814  0.2142
  165SAPE  H16X18647   7.533   3.909   8.217 -0.4334  0.6119 -0.3758
  165SAPE  H16Y18648   7.409   4.023   8.269 -1.1365  1.9637 -0.8769
  165SAPE  C31718649   7.579   4.003   8.400 -0.0690  0.0499  0.1597
  165SAPE  H17X18650   7.550   4.103   8.439  0.2629  0.5184 -0.7793
  165SAPE  H17Y18651   7.689   3.992   8.411 -0.0784 -0.0148  0.1891
  165SAPE  C31818652   7.511   3.897   8.488  0.1704 -0.3151 -0.1268
  165SAPE  H18X18653   7.561   3.894   8.588  0.5828 -1.3829 -0.3431
  165SAPE  H18Y18654   7.535   3.802   8.435 -0.3431 -0.7714  0.4310
  165SAPE  H18Z18655   7.402   3.921   8.491  0.4708  1.2887 -1.1203
  166SAPE     N18656   5.241   0.763   5.739 -0.3842  0.2642  0.1890
  166SAPE   HN118657   5.139   0.750   5.723 -0.1633 -0.6764 -0.5709
  166SAPE   HN218658   5.298   0.749   5.653  0.9909  3.2957  0.4780
  166SAPE   HN318659   5.275   0.692   5.806  2.1867  2.8014  1.7943
  166SAPE   C1218660   5.256   0.907   5.789  0.6100  0.4742 -0.5547
  166SAPE  H12A18661   5.254   0.972   5.699 -1.8761 -1.3336 -1.9160
  166SAPE  H12B18662   5.359   0.911   5.830  0.2136  0.2404  0.4877
  166SAPE   C1118663   5.140   0.941   5.886  0.0908 -0.7510  0.2904
  166SAPE  H11A18664   5.154   1.046   5.918 -1.4635 -0.0833 -1.0399
  166SAPE  H11B18665   5.137   0.869   5.971 -2.6140  0.0994  1.0139
  166SAPE     P18666   4.882   0.947   5.895 -0.1107 -0.5499 -0.0729
  166SAPE   O1318667   4.792   1.012   5.797  0.1998  0.3680  0.3738
  166SAPE   O1418668   4.843   0.816   5.949 -0.2197  0.2695  0.0098
  166SAPE   O1218669   5.017   0.934   5.818 -1.0100 -0.4030 -0.5842
  166SAPE   O1118670   4.905   1.045   6.020 -0.1195 -0.2214  0.0792
  166SAPE    C118671   4.911   1.186   6.008 -0.2657  0.7918  0.1661
  166SAPE    HA18672   4.966   1.201   5.912 -0.0364 -2.4249 -0.3025
  166SAPE    HB18673   4.814   1.239   6.021  1.4371  4.3215 -0.2290
  166SAPE    C218674   5.003   1.249   6.122  0.1771 -0.1205 -0.0852
  166SAPE    HS18675   5.106   1.209   6.110 -0.6021 -1.5194 -3.4080
  166SAPE   O2118676   4.934   1.225   6.248 -0.8059  0.2259 -0.0378
  166SAPE   C2118677   5.019   1.199   6.356 -0.1908 -0.7721  0.6416
  166SAPE   O2218678   5.140   1.207   6.350  0.2229  0.3459 -0.2328
  166SAPE   C2218679   4.947   1.176   6.484 -0.6480 -0.1310 -1.1182
  166SAPE   H2R18680   4.851   1.232   6.485  0.1918  1.3895  0.8332
  166SAPE   H2S18681   4.941   1.065   6.494  1.0993 -0.1195  0.5149
  166SAPE    C318682   5.016   1.407   6.101 -0.7611  1.0617  0.6310
  166SAPE    HX18683   4.910   1.438   6.102 -1.0671  0.6067 -2.8015
  166SAPE    HY18684   5.043   1.428   5.995  0.0043 -1.1995  0.3160
  166SAPE   O3118685   5.111   1.468   6.191 -0.7894 -0.0241  0.1870
  166SAPE   C3118686   5.049   1.556   6.263 -0.3362  0.3796 -0.3608
  166SAPE   O3218687   4.932   1.549   6.296  0.5054 -0.3576  0.1415
  166SAPE   C3218688   5.152   1.665   6.302  0.1035  0.2875  0.4373
  166SAPE   H2X18689   5.143   1.743   6.223 -0.0104  0.1050  0.2686
  166SAPE   H2Y18690   5.253   1.623   6.282 -0.5815 -1.4172  0.3471
  166SAPE   C2318691   5.031   1.218   6.608  0.1844  0.5176 -0.2672
  166SAPE   H3R18692   5.038   1.329   6.604  2.0838  0.4493  0.2977
  166SAPE   H3S18693   5.136   1.182   6.604 -0.5347 -1.5811 -1.2200
  166SAPE   C2418694   4.965   1.172   6.744  1.0721 -0.2786  0.4439
  166SAPE   H4R18695   5.029   1.204   6.830  3.5324 -1.2920 -0.9018
  166SAPE   H4S18696   4.983   1.062   6.745  1.8123 -0.1647  1.0494
  166SAPE   C2518697   4.824   1.206   6.782 -0.6195  0.4007 -0.1595
  166SAPE   H5R18698   4.762   1.118   6.805 -0.2369 -1.3217 -4.6590
  166SAPE   C2618699   4.770   1.329   6.804  0.9332 -0.2999 -0.4274
  166SAPE   H6R18700   4.663   1.334   6.825  1.3791  1.1317  1.7315
  166SAPE   C2718701   4.849   1.456   6.789 -0.0427 -0.0068  0.2003
  166SAPE   H7R18702   4.876   1.464   6.681 -2.1896  1.2094 -0.3037
  166SAPE   H7S18703   4.946   1.463   6.842 -0.9771  0.2913  1.9481
  166SAPE   C2818704   4.757   1.574   6.819  0.0347  0.6421 -0.9037
  166SAPE   H8R18705   4.699   1.610   6.733  1.4566 -0.9112 -2.6062
  166SAPE   C2918706   4.733   1.625   6.941  0.1716 -0.0262 -0.2722
  166SAPE   H9R18707   4.666   1.713   6.940  0.2524  0.0950  1.4075
  166SAPE  C21018708   4.778   1.576   7.078 -0.2403 -0.1032 -0.6460
  166SAPE  H10R18709   4.887   1.586   7.093 -0.4342 -0.4568  1.2274
  166SAPE  H10S18710   4.764   1.465   7.078  1.2931 -0.3164 -0.9184
  166SAPE  C21118711   4.711   1.646   7.192 -0.5358  0.1646  0.0054
  166SAPE  H11R18712   4.624   1.712   7.174 -1.9390 -1.1431  1.6758
  166SAPE  C21218713   4.757   1.637   7.315 -0.7880 -1.0372 -0.3310
  166SAPE  H12R18714   4.717   1.705   7.391 -0.9810 -1.1312 -0.3489
  166SAPE  C21318715   4.876   1.561   7.371 -0.8961  0.3821  0.3963
  166SAPE  H13R18716   4.918   1.616   7.458  0.1439 -0.4231  0.4124
  166SAPE  H13S18717   4.959   1.560   7.297 -1.6203 -1.1868 -0.4258
  166SAPE  C21418718   4.853   1.420   7.418  0.0852 -0.1947 -0.4548
  166SAPE  H14R18719   4.803   1.419   7.516 -1.1341 -0.4691 -1.0551
  166SAPE  C21518720   4.896   1.299   7.363 -0.2422 -0.1696 -0.2417
  166SAPE  H15R18721   4.871   1.216   7.430  1.6327 -0.4982  0.1150
  166SAPE  C21618722   4.982   1.274   7.241  0.1348  0.0777 -0.2425
  166SAPE  H16R18723   5.078   1.226   7.270 -0.7966 -1.3832  0.5963
  166SAPE  H16S18724   5.022   1.366   7.196  1.2081 -1.0099 -1.5872
  166SAPE  C21718725   4.929   1.182   7.131  0.5819  0.8461  0.4864
  166SAPE  H17R18726   5.013   1.163   7.060  0.1551 -1.5059  0.5111
  166SAPE  H17S18727   4.843   1.224   7.074  0.2914  1.1038  1.1092
  166SAPE  C21818728   4.883   1.048   7.192 -0.6170 -0.3165  0.1654
  166SAPE  H18R18729   4.802   1.057   7.267 -3.0089 -0.2362 -2.2392
  166SAPE  H18S18730   4.966   1.002   7.248 -0.8633 -0.7956  0.1437
  166SAPE  C21918731   4.857   0.947   7.086  0.2758 -0.8779 -0.6335
  166SAPE  H19R18732   4.929   0.949   7.001 -1.2957 -2.3471 -2.0694
  166SAPE  H19S18733   4.763   0.984   7.040  0.0263  0.3097  0.7493
  166SAPE  C22018734   4.847   0.808   7.126  0.3103 -0.1483 -0.4685
  166SAPE  H20R18735   4.830   0.742   7.038 -1.4083  1.1507 -1.1761
  166SAPE  H20S18736   4.770   0.802   7.206 -0.8456  1.0264 -1.4476
  166SAPE  H20T18737   4.937   0.786   7.187 -0.0788  0.8191  0.4931
  166SAPE   C3318738   5.138   1.701   6.452 -0.6369 -0.8526 -0.2096
  166SAPE   H3X18739   5.032   1.715   6.482 -1.6497 -4.3212 -1.6711
  166SAPE   H3Y18740   5.184   1.801   6.471 -2.6211  0.0293  0.1924
  166SAPE   C3418741   5.200   1.596   6.546  0.0413 -0.0715  0.1053
  166SAPE   H4X18742   5.310   1.606   6.531 -0.2339  2.9856 -0.5562
  166SAPE   H4Y18743   5.169   1.495   6.513 -2.9056  0.8640 -0.2504
  166SAPE   C3518744   5.167   1.621   6.693 -0.3579 -0.3316  0.0276
  166SAPE   H5X18745   5.056   1.628   6.698 -0.5780 -1.8184 -1.7512
  166SAPE   H5Y18746   5.205   1.721   6.723  1.2767 -1.1209  0.7258
  166SAPE   C3618747   5.237   1.525   6.795 -0.3363  0.1839  0.4173
  166SAPE   H6X18748   5.343   1.541   6.766 -0.7809  0.3095 -1.2042
  166SAPE   H6Y18749   5.197   1.424   6.770 -0.1066  0.6103 -1.8250
  166SAPE   C3718750   5.212   1.536   6.948  0.0036 -0.1145  0.3217
  166SAPE   H7X18751   5.272   1.454   6.993 -1.3260 -1.1790  0.2485
  166SAPE   H7Y18752   5.102   1.526   6.963 -0.0358 -0.1044  0.0258
  166SAPE   C3818753   5.271   1.665   7.009  0.1585 -1.0382  0.1425
  166SAPE   H8X18754   5.199   1.748   6.991 -0.0807 -1.2404  0.1600
  166SAPE   H8Y18755   5.366   1.689   6.956  0.2486 -0.2389  0.6561
  166SAPE   C3918756   5.315   1.655   7.153  0.7540  0.0451 -0.0679
  166SAPE   H9X18757   5.380   1.565   7.153  0.4580 -0.1690  0.0082
  166SAPE   H9Y18758   5.220   1.646   7.210 -1.5470 -1.4132 -3.7727
  166SAPE  C31018759   5.383   1.767   7.229  0.6054 -0.3017 -0.3157
  166SAPE  H10X18760   5.311   1.850   7.239  0.2302 -0.5262 -1.0251
  166SAPE  H10Y18761   5.481   1.791   7.183  1.5668  0.2451  1.8846
  166SAPE  C31118762   5.423   1.740   7.376  0.3227  0.4667 -0.2971
  166SAPE  H11X18763   5.429   1.837   7.430 -1.2121 -0.1267  1.0179
  166SAPE  H11Y18764   5.524   1.693   7.382  0.1999 -0.3635 -3.2784
  166SAPE  C31218765   5.330   1.649   7.447 -0.4636  0.5472  0.0225
  166SAPE  H12X18766   5.339   1.554   7.390 -1.4734 -0.5350  1.5773
  166SAPE  H12Y18767   5.224   1.683   7.443 -1.1565 -1.3388  0.7146
  166SAPE  C31318768   5.364   1.628   7.593 -0.9318 -0.7532  0.1026
  166SAPE  H13X18769   5.386   1.727   7.640 -1.3483 -0.2748 -0.6899
  166SAPE  H13Y18770   5.454   1.565   7.610  0.4792  0.9556 -0.6921
  166SAPE  C31418771   5.244   1.564   7.660  0.4179  0.0675 -0.4014
  166SAPE  H14X18772   5.216   1.478   7.596 -0.6836  0.3329 -0.3062
  166SAPE  H14Y18773   5.152   1.626   7.651  0.8803  0.5975 -1.6500
  166SAPE  C31518774   5.275   1.521   7.806  0.0493  0.0641 -0.6222
  166SAPE  H15X18775   5.323   1.609   7.854  0.1573 -0.0180 -0.5796
  166SAPE  H15Y18776   5.352   1.442   7.802  0.7269  0.7027 -0.4569
  166SAPE  C31618777   5.144   1.471   7.881  0.5224 -0.0428  0.3559
  166SAPE  H16X18778   5.111   1.375   7.837 -1.6231  1.3911 -1.3592
  166SAPE  H16Y18779   5.067   1.546   7.855 -2.2927 -3.4374 -1.9806
  166SAPE  C31718780   5.165   1.464   8.032  0.4628 -0.1488  0.0693
  166SAPE  H17X18781   5.227   1.553   8.057  0.5487 -0.2076  0.0642
  166SAPE  H17Y18782   5.224   1.374   8.060 -0.0058 -0.3907  0.2957
  166SAPE  C31818783   5.034   1.456   8.116  0.2135  0.0907  0.1356
  166SAPE  H18X18784   5.001   1.350   8.116  1.8063 -0.5001  2.8408
  166SAPE  H18Y18785   4.953   1.526   8.086  1.5018  1.2110 -0.8751
  166SAPE  H18Z18786   5.049   1.476   8.224 -2.0842  0.6567  0.3950
  167SAPE     N18787   6.758   0.814   6.040  0.5315  0.0376  0.1898
  167SAPE   HN118788   6.850   0.800   5.994  2.0358  3.5771  1.7564
  167SAPE   HN218789   6.695   0.732   6.036  1.9535 -1.4324  3.4446
  167SAPE   HN318790   6.718   0.895   5.989  1.9807  0.7888  0.1802
  167SAPE   C1218791   6.795   0.843   6.180  0.0232  0.2333  1.0676
  167SAPE  H12A18792   6.848   0.941   6.182  0.7157 -0.0300 -1.2433
  167SAPE  H12B18793   6.856   0.759   6.219 -1.1391 -1.5609 -0.7538
  167SAPE   C1118794   6.671   0.863   6.273  0.4252  0.4756 -0.8294
  167SAPE  H11A18795   6.602   0.943   6.239 -0.5921  0.3141  0.7789
  167SAPE  H11B18796   6.711   0.885   6.374 -1.2953  0.8879 -0.2086
  167SAPE     P18797   6.446   0.722   6.301 -0.0186  0.4952  0.0435
  167SAPE   O1318798   6.379   0.840   6.241  0.5648 -0.4944  0.6300
  167SAPE   O1418799   6.400   0.583   6.257 -0.5804 -0.6436 -0.1702
  167SAPE   O1218800   6.605   0.745   6.280  0.4021  0.3537 -0.0174
  167SAPE   O1118801   6.434   0.723   6.456 -0.1527 -0.2936  0.0551
  167SAPE    C118802   6.424   0.847   6.526  0.4487 -0.1828  0.3358
  167SAPE    HA18803   6.504   0.845   6.603  1.6515 -0.7403 -0.8958
  167SAPE    HB18804   6.454   0.930   6.459  0.4811 -1.0987 -0.8219
  167SAPE    C218805   6.283   0.873   6.586  0.1166 -0.6487  0.3344
  167SAPE    HS18806   6.275   0.981   6.613 -0.1152 -0.7015  0.4857
  167SAPE   O2118807   6.260   0.787   6.700 -0.7125  0.1052 -0.4329
  167SAPE   C2118808   6.295   0.841   6.812  0.4853 -0.1837 -0.4375
  167SAPE   O2218809   6.344   0.952   6.827  0.4590  0.0519 -0.7998
  167SAPE   C2218810   6.270   0.748   6.926  0.3711  0.2786 -0.4982
  167SAPE   H2R18811   6.161   0.749   6.948 -0.1390  1.7630 -2.7576
  167SAPE   H2S18812   6.313   0.648   6.903  0.6091  0.2908 -0.1197
  167SAPE    C318813   6.156   0.845   6.494  0.2476 -0.5203  0.1821
  167SAPE    HX18814   6.121   0.743   6.522  0.2657  0.0369  2.4485
  167SAPE    HY18815   6.175   0.851   6.385 -0.0695  0.2634  0.1698
  167SAPE   O3118816   6.049   0.941   6.527  0.2210 -0.3687  0.0057
  167SAPE   C3118817   5.936   0.895   6.578 -0.8623 -0.4153  0.9087
  167SAPE   O3218818   5.913   0.780   6.604  0.3448  0.5253 -0.1297
  167SAPE   C3218819   5.835   1.005   6.606  1.0084 -0.4028  0.6459
  167SAPE   H2X18820   5.739   0.962   6.569  0.9611 -0.1923  0.5191
  167SAPE   H2Y18821   5.860   1.096   6.547  0.5754 -0.2467  0.7018
  167SAPE   C2318822   6.342   0.794   7.058 -0.3143 -0.1232 -0.4313
  167SAPE   H3R18823   6.310   0.891   7.102  1.9513  0.5394 -0.1024
  167SAPE   H3S18824   6.446   0.818   7.028  0.4706  1.2088  3.0161
  167SAPE   C2418825   6.346   0.687   7.170 -0.3483  0.7475  0.0598
  167SAPE   H4R18826   6.398   0.601   7.122 -1.1519  0.4371 -0.2715
  167SAPE   H4S18827   6.244   0.645   7.183  0.1886 -0.6604 -0.0590
  167SAPE   C2518828   6.415   0.746   7.288  0.1280  0.2175  0.1545
  167SAPE   H5R18829   6.490   0.824   7.269 -1.6180  2.1673  0.9371
  167SAPE   C2618830   6.387   0.712   7.417 -0.4754  0.8537 -0.1300
  167SAPE   H6R18831   6.452   0.749   7.498 -0.5730  0.2396  0.2309
  167SAPE   C2718832   6.279   0.612   7.465  0.9023  0.0280 -0.2142
  167SAPE   H7R18833   6.311   0.537   7.541  0.6555 -0.2096 -0.3424
  167SAPE   H7S18834   6.255   0.545   7.380  0.8287  0.3811 -0.4719
  167SAPE   C2818835   6.165   0.695   7.514  0.4002 -0.7683 -0.5812
  167SAPE   H8R18836   6.104   0.747   7.439 -1.1648 -2.7325 -0.7587
  167SAPE   C2918837   6.131   0.727   7.648 -0.7804  0.2140  0.2371
  167SAPE   H9R18838   6.047   0.795   7.666 -1.1011 -0.1822  0.2412
  167SAPE  C21018839   6.207   0.691   7.771  0.2734 -0.4291 -0.7507
  167SAPE  H10R18840   6.316   0.693   7.751  0.0634 -1.7244 -2.2622
  167SAPE  H10S18841   6.185   0.584   7.790  0.4477 -0.3699 -0.1956
  167SAPE  C21118842   6.163   0.762   7.898 -0.2807  0.4782  0.7343
  167SAPE  H11R18843   6.149   0.870   7.883  2.0009  0.5568 -1.4742
  167SAPE  C21218844   6.148   0.727   8.029 -0.3838  0.9528 -0.2720
  167SAPE  H12R18845   6.109   0.792   8.109  2.8434  0.7053  1.6961
  167SAPE  C21318846   6.169   0.580   8.070  0.7760  0.1919  0.1573
  167SAPE  H13R18847   6.197   0.508   7.990 -3.0128 -3.6082  1.8527
  167SAPE  H13S18848   6.075   0.537   8.111  1.5869 -0.1105  1.7800
  167SAPE  C21418849   6.281   0.572   8.176  1.0379  0.3589  0.8216
  167SAPE  H14R18850   6.378   0.601   8.132  1.5999  1.3532  2.5896
  167SAPE  C21518851   6.274   0.534   8.305  0.4653 -0.6108 -0.2293
  167SAPE  H15R18852   6.358   0.534   8.376 -0.2493  3.1288  0.8814
  167SAPE  C21618853   6.141   0.504   8.367 -0.3743  0.3034 -0.5577
  167SAPE  H16R18854   6.065   0.458   8.301  0.3410 -0.3231 -0.9646
  167SAPE  H16S18855   6.109   0.605   8.401 -0.0541  0.6108 -1.1417
  167SAPE  C21718856   6.160   0.418   8.499  1.1788  0.3185 -0.3155
  167SAPE  H17R18857   6.231   0.335   8.478  1.7528  0.8834 -0.6583
  167SAPE  H17S18858   6.061   0.378   8.528  0.9983  0.0392 -1.2872
  167SAPE  C21818859   6.192   0.506   8.618 -0.2512 -0.8582  0.2835
  167SAPE  H18R18860   6.237   0.604   8.589 -0.9508 -0.0290  1.8586
  167SAPE  H18S18861   6.266   0.446   8.675  1.4300 -0.1454 -1.0900
  167SAPE  C21918862   6.079   0.546   8.712  0.8614 -0.4161  0.4738
  167SAPE  H19R18863   6.036   0.448   8.745  0.5227 -0.0499  1.1522
  167SAPE  H19S18864   6.008   0.607   8.653 -0.5814 -1.5787  0.9317
  167SAPE  C22018865   6.133   0.627   8.832 -0.1656  0.2203 -0.1772
  167SAPE  H20R18866   6.057   0.687   8.886  1.1938  0.2811  1.7890
  167SAPE  H20S18867   6.206   0.703   8.796 -0.8524  0.7276 -0.5294
  167SAPE  H20T18868   6.181   0.566   8.911  1.1813  1.7968  0.2790
  167SAPE   C3318869   5.828   1.047   6.750 -0.3090  0.0703  0.5393
  167SAPE   H3X18870   5.801   0.961   6.815 -1.7782 -0.4949 -0.7747
  167SAPE   H3Y18871   5.745   1.119   6.765  0.8355  1.6918 -0.5875
  167SAPE   C3418872   5.955   1.104   6.810 -0.7737  0.2308 -0.3196
  167SAPE   H4X18873   5.986   1.193   6.750 -2.2033  0.7988 -0.2633
  167SAPE   H4Y18874   6.027   1.021   6.792 -0.6486  0.1878  0.3783
  167SAPE   C3518875   5.946   1.131   6.959  0.3454  0.6156 -0.0630
  167SAPE   H5X18876   5.909   1.044   7.018 -1.6597  1.0766 -0.5556
  167SAPE   H5Y18877   5.870   1.209   6.983  1.1157  1.8323 -1.3950
  167SAPE   C3618878   6.083   1.178   7.011 -0.4034  0.4140  0.4501
  167SAPE   H6X18879   6.121   1.267   6.957  1.0152  0.3056  1.2271
  167SAPE   H6Y18880   6.155   1.100   6.979  0.4726  1.0688  0.7954
  167SAPE   C3718881   6.074   1.207   7.157 -0.0316 -0.8961  0.2196
  167SAPE   H7X18882   6.056   1.113   7.212  0.3841 -0.8577  0.4244
  167SAPE   H7Y18883   5.979   1.256   7.186  0.4341 -0.2860  0.7525
  167SAPE   C3818884   6.197   1.278   7.218 -0.1999 -0.4747  0.2755
  167SAPE   H8X18885   6.194   1.384   7.186 -1.9053 -0.6260 -0.1954
  167SAPE   H8Y18886   6.291   1.227   7.185 -0.3671 -3.0884  3.3462
  167SAPE   C3918887   6.200   1.293   7.374 -0.3452 -0.4905  0.0770
  167SAPE   H9X18888   6.100   1.329   7.404 -1.2523 -0.3541 -2.8142
  167SAPE   H9Y18889   6.277   1.371   7.392 -1.5786  1.6789 -3.1565
  167SAPE  C31018890   6.251   1.168   7.445 -0.2779 -0.4794 -0.4913
  167SAPE  H10X18891   6.346   1.146   7.393 -0.6372  0.9914 -1.8826
  167SAPE  H10Y18892   6.175   1.086   7.443  0.1303 -0.9453  1.2624
  167SAPE  C31118893   6.283   1.211   7.592  0.3610 -0.3151  0.6703
  167SAPE  H11X18894   6.364   1.285   7.602  1.4243 -0.9553 -2.2504
  167SAPE  H11Y18895   6.338   1.128   7.641 -0.8064 -0.9608  0.9459
  167SAPE  C31218896   6.156   1.238   7.675  0.4122  0.8551  0.6410
  167SAPE  H12X18897   6.095   1.145   7.678  0.7537  0.3582 -3.0132
  167SAPE  H12Y18898   6.100   1.321   7.626 -0.9048 -0.2420  0.2149
  167SAPE  C31318899   6.195   1.281   7.818  0.5252 -0.4394  0.1915
  167SAPE  H13X18900   6.235   1.384   7.807 -1.9006  0.3946 -2.1119
  167SAPE  H13Y18901   6.288   1.224   7.837  0.4767 -0.5453  0.1107
  167SAPE  C31418902   6.081   1.275   7.915 -0.2132  0.5663  0.0385
  167SAPE  H14X18903   6.018   1.188   7.886  0.6048 -1.1852  3.0075
  167SAPE  H14Y18904   6.020   1.367   7.907 -0.0270  0.6964  0.1037
  167SAPE  C31518905   6.124   1.253   8.064 -0.4220 -0.2403 -0.3169
  167SAPE  H15X18906   6.178   1.344   8.098 -0.9432 -0.0308 -0.0269
  167SAPE  H15Y18907   6.187   1.163   8.084  0.4094  0.5122  0.5337
  167SAPE  C31618908   6.002   1.243   8.157 -0.2863  0.9988 -0.2835
  167SAPE  H16X18909   5.958   1.344   8.170  2.8253  2.1952  2.4302
  167SAPE  H16Y18910   6.040   1.214   8.258 -1.7021  2.0267  0.5814
  167SAPE  C31718911   5.897   1.142   8.113  0.2389  0.0115 -0.7607
  167SAPE  H17X18912   5.928   1.045   8.069  1.9568 -2.3158  4.6478
  167SAPE  H17Y18913   5.842   1.206   8.041  0.7940  2.0203  0.4869
  167SAPE  C31818914   5.792   1.113   8.222 -0.2411  0.6732 -0.2106
  167SAPE  H18X18915   5.708   1.060   8.172  0.7406 -0.8428 -0.3232
  167SAPE  H18Y18916   5.754   1.207   8.268  1.8617  1.6809 -0.4037
  167SAPE  H18Z18917   5.821   1.044   8.304 -0.9445  0.9963  0.3262
  168SAPE     N18918   2.149   4.240   6.131 -0.0953  0.6146  0.7124
  168SAPE   HN118919   2.166   4.330   6.081 -0.2047 -0.1031 -0.6767
  168SAPE   HN218920   2.236   4.215   6.183  1.1341  0.0355 -1.4858
  168SAPE   HN318921   2.152   4.168   6.056  1.1300 -1.1268  2.3408
  168SAPE   C1218922   2.040   4.227   6.230 -0.1405  0.0872 -0.9183
  168SAPE  H12A18923   1.948   4.262   6.178 -0.0264  0.7969 -0.6520
  168SAPE  H12B18924   2.059   4.299   6.312 -1.6693 -1.0380  0.4673
  168SAPE   C1118925   2.029   4.088   6.291 -0.0345 -0.4443  0.2713
  168SAPE  H11A18926   2.134   4.057   6.308 -0.5093 -1.6078  1.2505
  168SAPE  H11B18927   1.994   4.021   6.209 -1.3422 -0.1135  0.5284
  168SAPE     P18928   1.870   3.968   6.462 -0.4214  0.2313  0.2715
  168SAPE   O1318929   1.739   3.959   6.404  0.0112 -0.6639  0.0945
  168SAPE   O1418930   1.954   3.847   6.447  0.0859  0.1968 -0.0174
  168SAPE   O1218931   1.947   4.097   6.412  0.1644  0.1830  0.0038
  168SAPE   O1118932   1.875   3.999   6.624 -0.1041 -0.2725 -0.0567
  168SAPE    C118933   1.825   4.118   6.681  0.4248 -0.4342  0.4508
  168SAPE    HA18934   1.810   4.200   6.607 -1.2987 -1.0346  0.1055
  168SAPE    HB18935   1.728   4.096   6.730  0.6532 -1.7249  0.3590
  168SAPE    C218936   1.924   4.181   6.776 -0.0158 -0.7767 -0.2405
  168SAPE    HS18937   1.951   4.104   6.851 -5.2619 -1.8211  0.9699
  168SAPE   O2118938   1.856   4.299   6.832 -0.2159  1.0112 -0.3479
  168SAPE   C2118939   1.775   4.275   6.935  0.3299 -0.1854  0.5631
  168SAPE   O2218940   1.741   4.161   6.974 -0.1162 -0.2667 -0.3840
  168SAPE   C2218941   1.735   4.412   6.993 -0.0054  0.0398  0.8348
  168SAPE   H2R18942   1.696   4.396   7.096 -0.4679  1.0622  0.8255
  168SAPE   H2S18943   1.825   4.476   6.999 -0.9476  1.6924 -1.3372
  168SAPE    C318944   2.052   4.216   6.700  0.6180  0.3343  0.0190
  168SAPE    HX18945   2.023   4.280   6.615 -0.7055 -0.6409 -0.3030
  168SAPE    HY18946   2.099   4.124   6.660 -1.3578 -0.7580  0.0665
  168SAPE   O3118947   2.144   4.292   6.777 -0.7164 -0.4747  0.5853
  168SAPE   C3118948   2.241   4.347   6.707 -0.6980  0.5420 -1.0413
  168SAPE   O3218949   2.260   4.326   6.588  0.0110 -0.3168 -0.4169
  168SAPE   C3218950   2.323   4.444   6.789  0.8802 -0.0789  0.0166
  168SAPE   H2X18951   2.306   4.419   6.896 -4.3041  0.5152 -0.3976
  168SAPE   H2Y18952   2.289   4.549   6.780 -0.9662 -0.4657  1.8177
  168SAPE   C2318953   1.624   4.482   6.910 -0.2778 -0.6699  0.9529
  168SAPE   H3R18954   1.541   4.410   6.897 -1.7254  0.8409  1.5044
  168SAPE   H3S18955   1.668   4.495   6.809 -0.4829  0.2031  0.9675
  168SAPE   C2418956   1.560   4.605   6.970  0.2782  0.4294 -0.2959
  168SAPE   H4R18957   1.492   4.573   7.052  0.5835 -0.0886 -0.2414
  168SAPE   H4S18958   1.502   4.645   6.884  1.0930 -1.7983 -2.0119
  168SAPE   C2518959   1.665   4.705   7.002 -0.5372 -0.7513 -0.7956
  168SAPE   H5R18960   1.701   4.757   6.912 -0.5976 -0.0766 -0.4386
  168SAPE   C2618961   1.696   4.748   7.134 -0.5628  0.0684 -0.9319
  168SAPE   H6R18962   1.766   4.831   7.153 -1.5761  0.9206 -0.7874
  168SAPE   C2718963   1.641   4.684   7.264 -0.1331 -0.4151  0.2462
  168SAPE   H7R18964   1.732   4.640   7.309  1.0761  0.8833 -0.8635
  168SAPE   H7S18965   1.573   4.596   7.255 -0.3796 -0.2533  0.5208
  168SAPE   C2818966   1.568   4.784   7.352  0.0199 -0.0690  0.2187
  168SAPE   H8R18967   1.458   4.773   7.350 -0.1528  1.6290 -1.7607
  168SAPE   C2918968   1.605   4.869   7.447 -1.0193  0.0769  0.9561
  168SAPE   H9R18969   1.544   4.942   7.500 -1.4198  0.1698  0.3817
  168SAPE  C21018970   1.752   4.887   7.478 -0.3542  0.0075  0.5904
  168SAPE  H10R18971   1.776   4.995   7.493  1.5813 -0.1643 -0.8772
  168SAPE  H10S18972   1.811   4.859   7.388 -2.3342  0.2745 -0.8467
  168SAPE  C21118973   1.805   4.807   7.596 -0.3219 -0.3222  0.7667
  168SAPE  H11R18974   1.835   4.704   7.570 -0.1785  0.0038 -0.4375
  168SAPE  C21218975   1.822   4.842   7.723 -0.2485  1.0752  0.2655
  168SAPE  H12R18976   1.871   4.767   7.787 -0.7193  0.4775 -0.0546
  168SAPE  C21318977   1.802   4.971   7.794 -0.1552 -0.5527 -0.4952
  168SAPE  H13R18978   1.723   4.970   7.873  0.6800 -0.6059  0.3629
  168SAPE  H13S18979   1.755   5.045   7.726 -0.4068  0.3648  0.6234
  168SAPE  C21418980   1.931   5.025   7.847  0.2622  0.3647  0.0962
  168SAPE  H14R18981   2.005   5.054   7.771 -0.2904  0.8404 -0.2646
  168SAPE  C21518982   1.966   5.018   7.976 -0.3566 -0.7700 -0.1439
  168SAPE  H15R18983   2.071   5.043   7.999 -0.3545 -1.0118  0.1235
  168SAPE  C21618984   1.877   4.973   8.092 -0.6335 -0.1845 -0.4544
  168SAPE  H16R18985   1.942   4.965   8.181  0.1319 -1.4090 -1.0799
  168SAPE  H16S18986   1.826   4.876   8.073  1.0162 -1.3281  0.6864
  168SAPE  C21718987   1.776   5.083   8.134  0.0356  0.1613  0.1157
  168SAPE  H17R18988   1.719   5.118   8.045  0.0153 -0.8839 -0.3065
  168SAPE  H17S18989   1.830   5.169   8.178 -0.8649 -0.3219  2.2680
  168SAPE  C21818990   1.668   5.033   8.233 -0.2840  0.0328 -0.4271
  168SAPE  H18R18991   1.597   5.117   8.251  1.2455  0.8861  2.1917
  168SAPE  H18S18992   1.717   4.996   8.325  1.7808  1.0014 -1.0857
  168SAPE  C21918993   1.560   4.921   8.190 -0.6327  0.4360  0.1006
  168SAPE  H19R18994   1.612   4.822   8.187 -0.7115  0.3634  0.8909
  168SAPE  H19S18995   1.529   4.946   8.086  0.9680 -0.3382 -0.6037
  168SAPE  C22018996   1.430   4.913   8.275  0.1635  0.0661  1.0120
  168SAPE  H20R18997   1.366   4.846   8.214 -1.9568  0.5802  2.5122
  168SAPE  H20S18998   1.389   5.016   8.282  0.9393  0.5316 -0.8824
  168SAPE  H20T18999   1.452   4.855   8.367  0.2266 -1.8486 -0.1623
  168SAPE   C3319000   2.472   4.415   6.748  0.0553 -0.0027 -0.6031
  168SAPE   H3X19001   2.493   4.465   6.650  1.7715 -0.5434 -0.5391
  168SAPE   H3Y19002   2.493   4.307   6.733 -2.7485 -0.2874 -3.3586
  168SAPE   C3419003   2.575   4.474   6.852  0.2855 -0.2141  0.0088
  168SAPE   H4X19004   2.523   4.563   6.893 -0.6871  0.2442 -2.0993
  168SAPE   H4Y19005   2.667   4.506   6.800 -0.6650  1.1527 -0.9061
  168SAPE   C3519006   2.597   4.376   6.977  0.1395 -0.0606 -0.5127
  168SAPE   H5X19007   2.614   4.280   6.925 -1.5902 -0.0714 -1.1221
  168SAPE   H5Y19008   2.500   4.374   7.033  0.6140  1.4223  0.4378
  168SAPE   C3619009   2.714   4.416   7.077  0.7698  0.5975  0.8372
  168SAPE   H6X19010   2.678   4.514   7.114 -1.6355  0.5125 -0.9826
  168SAPE   H6Y19011   2.804   4.430   7.013  1.2000  0.4273  1.4023
  168SAPE   C3719012   2.743   4.314   7.183  0.3428 -0.6301  0.9910
  168SAPE   H7X19013   2.825   4.356   7.245 -0.2070  1.5178  0.3555
  168SAPE   H7Y19014   2.787   4.220   7.144 -0.1084 -2.7686  5.1363
  168SAPE   C3819015   2.615   4.268   7.263  0.1862  0.5200 -0.4025
  168SAPE   H8X19016   2.632   4.174   7.320  2.5555  1.5150  0.6752
  168SAPE   H8Y19017   2.539   4.237   7.188  0.3771 -0.6271 -0.1436
  168SAPE   C3919018   2.553   4.379   7.351  0.3849 -0.4624 -0.0346
  168SAPE   H9X19019   2.453   4.352   7.393  0.2117  0.8451  0.4523
  168SAPE   H9Y19020   2.520   4.460   7.283  0.9181 -1.9463 -2.1600
  168SAPE  C31019021   2.638   4.409   7.475 -0.6881 -0.3610 -0.4565
  168SAPE  H10X19022   2.733   4.460   7.450 -1.3157  1.6092  0.9242
  168SAPE  H10Y19023   2.653   4.310   7.525 -4.1273 -0.9324 -0.2947
  168SAPE  C31119024   2.574   4.505   7.576  0.2236  0.1754  0.0924
  168SAPE  H11X19025   2.488   4.451   7.623  0.7111 -1.6577 -0.9972
  168SAPE  H11Y19026   2.538   4.589   7.513 -0.4632 -0.5177 -0.4627
  168SAPE  C31219027   2.672   4.553   7.682 -0.9857 -0.7548 -0.2565
  168SAPE  H12X19028   2.766   4.587   7.634  0.4598 -1.3477  2.0306
  168SAPE  H12Y19029   2.709   4.469   7.744 -0.8856  0.2880  1.1265
  168SAPE  C31319030   2.625   4.662   7.777  0.1311 -0.1562 -0.6421
  168SAPE  H13X19031   2.538   4.620   7.832  1.2805 -0.0175  1.3847
  168SAPE  H13Y19032   2.590   4.749   7.717 -1.5927  0.5591  1.2900
  168SAPE  C31419033   2.720   4.712   7.884 -0.5352 -0.2128  1.0138
  168SAPE  H14X19034   2.743   4.630   7.955  0.3915 -0.4716  0.4363
  168SAPE  H14Y19035   2.671   4.781   7.955  1.4344  0.3828  1.8678
  168SAPE  C31519036   2.846   4.780   7.844 -0.1516 -0.6262  0.3296
  168SAPE  H15X19037   2.826   4.872   7.785  1.7154 -0.7184 -0.5373
  168SAPE  H15Y19038   2.902   4.723   7.767 -0.3588 -1.0925  0.5214
  168SAPE  C31619039   2.936   4.805   7.960 -0.0362 -0.0019  0.4335
  168SAPE  H16X19040   2.957   4.705   8.004 -1.3155 -0.0381  1.0316
  168SAPE  H16Y19041   2.885   4.877   8.028  0.1966  0.8913 -0.3244
  168SAPE  C31719042   3.061   4.876   7.914  0.0382 -0.1953 -0.5728
  168SAPE  H17X19043   3.030   4.966   7.856 -1.9835  0.3113  1.1892
  168SAPE  H17Y19044   3.120   4.810   7.846 -0.2081  0.6114 -1.5942
  168SAPE  C31819045   3.155   4.916   8.031 -0.0596  0.0502  0.3073
  168SAPE  H18X19046   3.236   4.984   7.996  0.7269 -1.2114 -0.3844
  168SAPE  H18Y19047   3.203   4.831   8.083  0.0376 -1.3145 -1.8930
  168SAPE  H18Z19048   3.104   4.972   8.112  0.3198 -0.0540  0.6193
  169SAPE     N19049   0.586   6.477   6.405  0.4766 -0.1425 -0.2277
  169SAPE   HN119050   0.585   6.467   6.508 -1.0148 -1.7951 -0.3454
  169SAPE   HN219051   0.505   6.539   6.386 -0.3000 -1.0281  0.1336
  169SAPE   HN319052   0.560   6.380   6.378 -3.0144  0.5480  0.2409
  169SAPE   C1219053   0.718   6.532   6.346  0.1729  0.0937 -0.0116
  169SAPE  H12A19054   0.711   6.641   6.368 -0.9985  0.0816 -0.2751
  169SAPE  H12B19055   0.721   6.524   6.235 -0.6197 -3.2110  0.0916
  169SAPE   C1119056   0.830   6.463   6.420  0.0965 -0.2710 -0.1209
  169SAPE  H11A19057   0.826   6.353   6.408 -3.4004 -0.0889 -1.8885
  169SAPE  H11B19058   0.816   6.475   6.529  1.1307  2.4448 -0.1937
  169SAPE     P19059   1.040   6.498   6.261  0.4680  0.4978  0.0383
  169SAPE   O1319060   0.961   6.433   6.156  0.2630  0.4189 -0.4347
  169SAPE   O1419061   1.102   6.625   6.225  0.1802  0.8524  0.3906
  169SAPE   O1219062   0.946   6.527   6.385 -1.0523 -0.2742 -0.2360
  169SAPE   O1119063   1.152   6.395   6.297 -0.3320 -0.2968 -1.0240
  169SAPE    C119064   1.140   6.278   6.377 -0.5548  0.1034 -0.6613
  169SAPE    HA19065   1.049   6.289   6.439  0.5603 -0.1222  1.0797
  169SAPE    HB19066   1.145   6.181   6.323  0.6362 -0.1099 -0.2016
  169SAPE    C219067   1.251   6.286   6.490 -0.5949  0.3511 -0.2459
  169SAPE    HS19068   1.257   6.192   6.549  0.8160 -0.1321 -1.0882
  169SAPE   O2119069   1.232   6.399   6.568  0.0344 -0.2050 -0.1313
  169SAPE   C2119070   1.145   6.378   6.662  0.5419 -0.6088  0.0824
  169SAPE   O2219071   1.081   6.277   6.674  0.1041  0.6349 -0.2291
  169SAPE   C2219072   1.143   6.508   6.749  0.3374 -0.1417  0.3145
  169SAPE   H2R19073   1.241   6.517   6.801 -0.1631 -0.0755  1.2794
  169SAPE   H2S19074   1.122   6.595   6.683  0.6380  0.3411  0.8464
  169SAPE    C319075   1.390   6.301   6.416 -0.2008 -0.3777 -1.0553
  169SAPE    HX19076   1.380   6.403   6.373 -0.5960 -0.2776 -0.7376
  169SAPE    HY19077   1.400   6.232   6.329 -2.9233 -1.3652 -0.6918
  169SAPE   O3119078   1.508   6.281   6.503 -0.2573 -0.1066 -0.2731
  169SAPE   C3119079   1.546   6.383   6.576 -0.6227 -0.3560  1.0528
  169SAPE   O3219080   1.510   6.499   6.556 -0.1891  0.0223  0.3780
  169SAPE   C3219081   1.660   6.344   6.675 -0.6519  0.3870  0.6779
  169SAPE   H2X19082   1.747   6.308   6.618 -0.5246 -0.9252  1.6421
  169SAPE   H2Y19083   1.626   6.252   6.728  3.3650 -1.4810  0.3356
  169SAPE   C2319084   1.027   6.500   6.859 -0.6020 -0.3113 -0.3028
  169SAPE   H3R19085   0.942   6.432   6.836 -0.1419 -1.7051  1.7517
  169SAPE   H3S19086   0.975   6.598   6.862 -1.2271 -0.6008 -1.1847
  169SAPE   C2419087   1.082   6.463   6.994  0.0915 -0.0628  0.3072
  169SAPE   H4R19088   1.144   6.371   6.989  0.3836  0.1796 -0.8413
  169SAPE   H4S19089   0.994   6.439   7.056  0.5400  0.7354  1.2788
  169SAPE   C2519090   1.158   6.572   7.060 -0.3229 -0.1560  0.0383
  169SAPE   H5R19091   1.236   6.621   6.999 -0.9204  2.4620  1.2092
  169SAPE   C2619092   1.140   6.615   7.192 -0.0204  0.1950  0.1462
  169SAPE   H6R19093   1.211   6.685   7.238 -0.5734  1.3648 -0.7288
  169SAPE   C2719094   1.033   6.559   7.289 -0.4166 -0.1892 -0.3405
  169SAPE   H7R19095   1.071   6.465   7.334 -0.3320  0.8204  1.8359
  169SAPE   H7S19096   0.935   6.535   7.244 -0.1806  1.2715 -1.7405
  169SAPE   C2819097   0.994   6.666   7.397 -0.0087 -0.0212 -0.6182
  169SAPE   H8R19098   0.916   6.737   7.367 -0.6496  0.3067  1.6603
  169SAPE   C2919099   1.042   6.665   7.525  0.3694  0.0513  0.5481
  169SAPE   H9R19100   0.999   6.739   7.594 -0.4330  0.0257  0.0908
  169SAPE  C21019101   1.139   6.568   7.584  0.6461  0.0810  0.5076
  169SAPE  H10R19102   1.211   6.551   7.501  0.8032  1.3729  0.3565
  169SAPE  H10S19103   1.089   6.470   7.601  2.6787 -1.6824 -2.6668
  169SAPE  C21119104   1.208   6.614   7.707  0.5060  0.0199 -0.2536
  169SAPE  H11R19105   1.294   6.682   7.695  1.4130 -1.1460 -0.5338
  169SAPE  C21219106   1.189   6.561   7.832  0.5732  0.2729 -0.4277
  169SAPE  H12R19107   1.240   6.600   7.921 -1.6732 -1.5089  1.7745
  169SAPE  C21319108   1.089   6.454   7.877  0.2548 -0.3615 -0.5177
  169SAPE  H13R19109   1.142   6.357   7.886 -2.3829 -2.0507 -1.6745
  169SAPE  H13S19110   1.014   6.437   7.797 -0.6724  0.3622  0.1752
  169SAPE  C21419111   1.015   6.486   8.006  0.2348 -0.0220  0.2232
  169SAPE  H14R19112   0.912   6.511   7.976  0.0092  1.6684  2.1849
  169SAPE  C21519113   1.053   6.478   8.136  0.9843 -0.2816 -0.0866
  169SAPE  H15R19114   0.974   6.483   8.213  1.2409  1.0038  0.1236
  169SAPE  C21619115   1.185   6.425   8.188 -0.3026  0.2629  0.0507
  169SAPE  H16R19116   1.243   6.506   8.236 -0.8661  0.6219  0.1401
  169SAPE  H16S19117   1.250   6.383   8.108 -1.0678 -1.6304  0.3693
  169SAPE  C21719118   1.165   6.301   8.282  0.1367 -0.6699  0.2768
  169SAPE  H17R19119   1.114   6.333   8.376 -1.1577 -1.7178 -0.0418
  169SAPE  H17S19120   1.262   6.252   8.305  0.9891  0.7659 -0.0928
  169SAPE  C21819121   1.084   6.198   8.204  1.1364  0.0149  0.5629
  169SAPE  H18R19122   1.114   6.196   8.098  1.5575 -0.8499  0.6935
  169SAPE  H18S19123   0.979   6.235   8.208  1.5549  1.7352 -2.1861
  169SAPE  C21919124   1.092   6.054   8.271 -0.0323 -0.5812  0.2832
  169SAPE  H19R19125   1.187   6.004   8.243  0.0578 -0.8390  1.0280
  169SAPE  H19S19126   1.007   5.994   8.232 -0.4258  0.3772 -0.3822
  169SAPE  C22019127   1.069   6.051   8.424  0.0416 -0.1083 -0.1318
  169SAPE  H20R19128   1.134   6.127   8.471  2.8538 -1.3710 -1.7062
  169SAPE  H20S19129   1.084   5.950   8.467  1.9778 -0.3987 -1.3589
  169SAPE  H20T19130   0.965   6.084   8.446  0.4273  1.3638 -0.4193
  169SAPE   C3319131   1.710   6.453   6.776 -0.0886  0.2615  0.5517
  169SAPE   H3X19132   1.623   6.481   6.839 -0.7358 -1.4726  0.4626
  169SAPE   H3Y19133   1.757   6.540   6.726  0.3354  1.2731  2.5839
  169SAPE   C3419134   1.816   6.395   6.868 -0.6500  0.3521 -0.4172
  169SAPE   H4X19135   1.906   6.354   6.818 -0.0738 -1.7052  2.1221
  169SAPE   H4Y19136   1.758   6.306   6.902  0.2214 -0.5380 -1.1858
  169SAPE   C3519137   1.856   6.481   6.987  0.0864 -0.3171 -0.1073
  169SAPE   H5X19138   1.784   6.559   7.020  1.1077  0.3752  0.5684
  169SAPE   H5Y19139   1.948   6.530   6.950  0.6853 -2.0869 -1.1018
  169SAPE   C3619140   1.890   6.398   7.114 -0.6053 -0.5460  0.4948
  169SAPE   H6X19141   1.976   6.328   7.110  0.5043  0.7322  1.2537
  169SAPE   H6Y19142   1.803   6.334   7.143 -1.6840 -0.8730 -3.0418
  169SAPE   C3719143   1.911   6.484   7.245  0.1582  0.1727  0.5519
  169SAPE   H7X19144   1.831   6.561   7.254 -0.2307 -0.2434  0.6916
  169SAPE   H7Y19145   2.011   6.528   7.228 -0.2358  0.6530 -0.6157
  169SAPE   C3819146   1.903   6.397   7.363  0.3623 -0.2070 -0.7199
  169SAPE   H8X19147   1.937   6.294   7.338  1.4768  0.7931 -3.7915
  169SAPE   H8Y19148   1.799   6.409   7.399  0.1080  2.7656 -2.1445
  169SAPE   C3919149   1.988   6.456   7.472 -0.2653 -0.4346 -0.2468
  169SAPE   H9X19150   1.973   6.566   7.472  2.4839  0.0228 -0.6574
  169SAPE   H9Y19151   2.098   6.456   7.456 -0.1414  0.5932  0.4474
  169SAPE  C31019152   1.969   6.393   7.610 -0.2435  0.1646 -0.5866
  169SAPE  H10X19153   2.042   6.426   7.687  0.4474  0.0965 -1.2044
  169SAPE  H10Y19154   1.969   6.282   7.600  0.7704  0.0738  0.2288
  169SAPE  C31119155   1.840   6.431   7.681 -0.8896 -0.1547 -0.1134
  169SAPE  H11X19156   1.763   6.430   7.602 -0.9606 -1.0594 -0.0519
  169SAPE  H11Y19157   1.846   6.534   7.722 -1.1622 -0.2975  0.3007
  169SAPE  C31219158   1.805   6.336   7.798 -0.0532  0.4085 -0.0248
  169SAPE  H12X19159   1.819   6.231   7.765 -0.5189  0.5059 -0.5497
  169SAPE  H12Y19160   1.700   6.349   7.831 -0.0838 -1.2787  0.6150
  169SAPE  C31319161   1.886   6.366   7.930  0.0988  0.3719  0.3916
  169SAPE  H13X19162   1.878   6.471   7.967 -0.4309  0.6434 -0.4805
  169SAPE  H13Y19163   1.991   6.359   7.893 -0.2046 -1.8410 -0.1472
  169SAPE  C31419164   1.873   6.276   8.044 -0.0250 -0.1392 -0.0548
  169SAPE  H14X19165   1.882   6.171   8.007  0.5851  0.2210 -0.9513
  169SAPE  H14Y19166   1.766   6.263   8.071 -0.5618 -1.8598 -2.6580
  169SAPE  C31519167   1.955   6.317   8.163 -0.1782  0.0843 -0.1614
  169SAPE  H15X19168   1.928   6.418   8.201  0.3852  0.0055  0.4719
  169SAPE  H15Y19169   2.062   6.321   8.132  0.2886  2.3575  1.4522
  169SAPE  C31619170   1.949   6.217   8.271 -0.3749  0.4986  0.6342
  169SAPE  H16X19171   1.958   6.115   8.226  3.1883  0.7120  0.6197
  169SAPE  H16Y19172   1.851   6.221   8.323  0.7273 -1.0702  3.0240
  169SAPE  C31719173   2.054   6.234   8.380  0.1430  0.1989 -0.3894
  169SAPE  H17X19174   2.025   6.309   8.457  2.1006 -0.3993  1.0359
  169SAPE  H17Y19175   2.147   6.267   8.330 -0.2014 -0.6228 -1.6227
  169SAPE  C31819176   2.074   6.109   8.461 -0.0726 -0.6342  0.8079
  169SAPE  H18X19177   2.176   6.100   8.503  0.9687  0.1420 -1.3949
  169SAPE  H18Y19178   2.067   6.018   8.398 -0.0870 -0.5018  0.6141
  169SAPE  H18Z19179   1.993   6.101   8.536 -1.5184 -1.1797 -0.7331
  170SAPE     N19180   1.453   3.155   6.171 -0.5352 -0.1619 -0.0964
  170SAPE   HN119181   1.375   3.120   6.112 -1.2709  0.4621  0.4807
  170SAPE   HN219182   1.440   3.258   6.176 -1.2600 -0.0275 -2.8136
  170SAPE   HN319183   1.541   3.151   6.117  0.2184 -0.0878  1.0947
  170SAPE   C1219184   1.473   3.098   6.308 -0.2447 -0.4813  0.6831
  170SAPE  H12A19185   1.416   3.003   6.300  0.5924 -0.9557  0.2896
  170SAPE  H12B19186   1.420   3.164   6.380  0.7058  1.2707 -0.1740
  170SAPE   C1119187   1.620   3.078   6.331  0.3994  0.5300  0.2487
  170SAPE  H11A19188   1.630   3.033   6.432  2.1703  0.6530  0.1528
  170SAPE  H11B19189   1.680   3.171   6.331  2.5335 -0.7733  0.2178
  170SAPE     P19190   1.793   2.892   6.269  0.0890 -0.2188 -0.2731
  170SAPE   O1319191   1.802   2.795   6.157  0.5204 -0.2954  0.1359
  170SAPE   O1419192   1.918   2.964   6.300  0.2729 -0.3015  0.1911
  170SAPE   O1219193   1.672   2.991   6.229  0.2269  0.1456  0.0936
  170SAPE   O1119194   1.736   2.808   6.394 -0.2517  0.4547 -0.0431
  170SAPE    C119195   1.634   2.717   6.366  0.1587  0.5113 -0.4084
  170SAPE    HA19196   1.533   2.761   6.377 -0.4592 -1.2961  1.8891
  170SAPE    HB19197   1.642   2.661   6.270  0.2981  0.8424 -0.5937
  170SAPE    C219198   1.643   2.602   6.466 -0.1552 -0.0403 -0.7495
  170SAPE    HS19199   1.547   2.546   6.464 -0.1843 -0.5232  4.0204
  170SAPE   O2119200   1.659   2.649   6.600  0.0215  0.0291 -0.0847
  170SAPE   C2119201   1.615   2.582   6.702 -0.4679  0.0929 -0.1709
  170SAPE   O2219202   1.554   2.473   6.694 -0.1315  0.2514 -0.1679
  170SAPE   C2219203   1.657   2.663   6.831 -0.4846  0.1194  0.7909
  170SAPE   H2R19204   1.767   2.674   6.842 -0.5209 -0.8797  2.5955
  170SAPE   H2S19205   1.611   2.763   6.814  1.4588  0.5127 -3.1469
  170SAPE    C319206   1.768   2.507   6.436 -0.3200  0.5142 -0.0396
  170SAPE    HX19207   1.854   2.577   6.430 -1.0682  1.7150  1.9527
  170SAPE    HY19208   1.743   2.458   6.339 -0.7909 -0.6479  0.6422
  170SAPE   O3119209   1.804   2.415   6.541 -0.5183 -0.4343  0.3050
  170SAPE   C3119210   1.769   2.284   6.515  0.0249 -0.3822  0.2647
  170SAPE   O3219211   1.726   2.248   6.406 -0.3902  0.8197 -0.2109
  170SAPE   C3219212   1.782   2.199   6.647  0.1637 -0.2460  0.4091
  170SAPE   H2X19213   1.849   2.115   6.618  0.9129  0.6754 -0.6574
  170SAPE   H2Y19214   1.682   2.159   6.672 -0.2328  1.2853  1.3947
  170SAPE   C2319215   1.629   2.589   6.962  0.5064  0.4700 -0.7748
  170SAPE   H3R19216   1.678   2.650   7.041  0.9665  0.9769 -1.4483
  170SAPE   H3S19217   1.681   2.491   6.969  0.2939  0.4558  1.5095
  170SAPE   C2419218   1.485   2.575   7.001 -0.1795  0.1075 -0.5729
  170SAPE   H4R19219   1.423   2.573   6.909 -0.3390  3.3240 -0.6338
  170SAPE   H4S19220   1.443   2.662   7.056 -1.9644 -1.2915  0.3999
  170SAPE   C2519221   1.452   2.450   7.078  0.6276 -0.4133  0.2663
  170SAPE   H5R19222   1.386   2.376   7.031  0.1575 -0.3715  0.8517
  170SAPE   C2619223   1.480   2.437   7.207 -0.3113 -0.2741  0.3208
  170SAPE   H6R19224   1.431   2.351   7.254  1.0826 -1.9960 -1.2303
  170SAPE   C2719225   1.551   2.538   7.291 -0.5106 -0.1965 -0.7843
  170SAPE   H7R19226   1.474   2.569   7.365  0.6469 -0.1102  0.4351
  170SAPE   H7S19227   1.583   2.634   7.245  1.5138  0.3199  1.4324
  170SAPE   C2819228   1.684   2.487   7.345 -0.0543  0.6026  1.2518
  170SAPE   H8R19229   1.761   2.456   7.273  0.7607  2.0889  1.4427
  170SAPE   C2919230   1.708   2.474   7.478 -0.5032  0.5943 -0.6717
  170SAPE   H9R19231   1.801   2.428   7.516 -1.4112 -2.4405 -1.8518
  170SAPE  C21019232   1.600   2.509   7.576  1.1813  0.2345  0.1722
  170SAPE  H10R19233   1.514   2.441   7.559  1.0523 -0.0443  1.8232
  170SAPE  H10S19234   1.564   2.612   7.551 -0.4507 -0.6540 -1.4097
  170SAPE  C21119235   1.639   2.503   7.721  0.5184 -0.3416 -0.2169
  170SAPE  H11R19236   1.737   2.548   7.739  1.3975 -2.1867 -0.1349
  170SAPE  C21219237   1.553   2.477   7.822 -0.0500 -0.1389  0.4097
  170SAPE  H12R19238   1.587   2.487   7.926  1.2456 -4.4861  0.6324
  170SAPE  C21319239   1.410   2.438   7.813  0.3223 -0.2104 -0.2239
  170SAPE  H13R19240   1.374   2.437   7.708  0.6660  3.1044 -0.4648
  170SAPE  H13S19241   1.349   2.519   7.857 -1.9552 -1.1462 -1.5056
  170SAPE  C21419242   1.393   2.312   7.901  0.2281  0.6136 -0.3160
  170SAPE  H14R19243   1.419   2.215   7.857 -2.1004 -0.9804  1.5727
  170SAPE  C21519244   1.345   2.310   8.025  0.4894  0.0961 -0.1022
  170SAPE  H15R19245   1.350   2.211   8.073  2.5717  0.4709  0.5469
  170SAPE  C21619246   1.300   2.429   8.113  0.2991  0.0693 -0.3447
  170SAPE  H16R19247   1.292   2.515   8.044  1.5494 -1.4647 -2.5315
  170SAPE  H16S19248   1.378   2.454   8.188 -0.1094  0.0779  0.0830
  170SAPE  C21719249   1.166   2.424   8.197 -0.2825  0.3107  0.8032
  170SAPE  H17R19250   1.153   2.513   8.261  2.0039 -0.3258  2.2485
  170SAPE  H17S19251   1.158   2.337   8.266  1.1943 -0.5465 -0.0436
  170SAPE  C21819252   1.044   2.392   8.102 -0.4939 -0.9360  0.3613
  170SAPE  H18R19253   1.087   2.309   8.042 -0.0244 -0.3990 -0.0566
  170SAPE  H18S19254   1.033   2.475   8.029  0.1973 -1.2797 -0.1466
  170SAPE  C21919255   0.909   2.354   8.178 -0.2680  0.2662  0.2044
  170SAPE  H19R19256   0.923   2.255   8.226  2.2998 -1.2236 -3.2496
  170SAPE  H19S19257   0.831   2.344   8.099 -0.1818  0.6154  0.0727
  170SAPE  C22019258   0.861   2.462   8.271 -0.0664 -0.4955 -0.6872
  170SAPE  H20R19259   0.950   2.512   8.316  0.4407 -0.9699 -1.1431
  170SAPE  H20S19260   0.794   2.421   8.350  0.2099 -2.8215 -1.5954
  170SAPE  H20T19261   0.791   2.531   8.219 -3.7339 -1.7223  2.1213
  170SAPE   C3319262   1.858   2.281   6.761  0.1460  0.4293 -0.0329
  170SAPE   H3X19263   1.820   2.384   6.774  1.6606  1.1869 -1.2963
  170SAPE   H3Y19264   1.962   2.279   6.723 -0.3858  0.8218 -1.5728
  170SAPE   C3419265   1.830   2.214   6.897  0.6161  0.6455  0.5947
  170SAPE   H4X19266   1.820   2.107   6.868 -1.1670  0.2069  2.5705
  170SAPE   H4Y19267   1.734   2.249   6.942 -0.5344 -0.4739 -0.8749
  170SAPE   C3519268   1.939   2.219   6.989  0.3784  0.5144 -0.0680
  170SAPE   H5X19269   1.981   2.322   6.990 -0.4764  0.8975  1.9515
  170SAPE   H5Y19270   2.021   2.159   6.945  1.2283  1.7742 -0.2630
  170SAPE   C3619271   1.910   2.171   7.132  0.1553  0.4916  0.4841
  170SAPE   H6X19272   1.891   2.063   7.115  2.1218  0.0727  0.6661
  170SAPE   H6Y19273   1.812   2.212   7.166 -1.1149  0.0694 -2.3779
  170SAPE   C3719274   2.016   2.182   7.240  0.1703 -0.6697  0.5335
  170SAPE   H7X19275   2.024   2.293   7.245 -1.9939 -0.2925 -1.8970
  170SAPE   H7Y19276   2.109   2.127   7.216 -0.9211 -1.8912 -1.1359
  170SAPE   C3819277   1.965   2.133   7.378  1.0582  0.4965 -0.0793
  170SAPE   H8X19278   1.924   2.030   7.372  2.4080 -0.0077 -1.2176
  170SAPE   H8Y19279   1.881   2.196   7.412 -0.1539 -0.2434 -1.5944
  170SAPE   C3919280   2.081   2.138   7.475  0.3426 -0.1836 -0.1103
  170SAPE   H9X19281   2.115   2.243   7.490 -1.4788  1.2112 -4.2678
  170SAPE   H9Y19282   2.169   2.091   7.426  0.3112 -0.8789  0.4864
  170SAPE  C31019283   2.059   2.076   7.617  1.1850  0.2819  0.1231
  170SAPE  H10X19284   2.052   1.967   7.598  2.1069  0.3630 -0.7835
  170SAPE  H10Y19285   1.962   2.104   7.661  0.6881 -1.6630  0.3569
  170SAPE  C31119286   2.169   2.097   7.725 -0.3227 -0.0355 -0.5129
  170SAPE  H11X19287   2.157   2.195   7.777  0.7565 -0.9512  1.6245
  170SAPE  H11Y19288   2.273   2.091   7.685 -0.4596  1.3478 -1.1373
  170SAPE  C31219289   2.155   1.979   7.829 -0.0102  0.0463 -0.1503
  170SAPE  H12X19290   2.188   1.885   7.779  3.7799  0.7773  0.6863
  170SAPE  H12Y19291   2.051   1.966   7.866 -0.1220 -3.6448 -1.3961
  170SAPE  C31319292   2.265   1.994   7.942  0.3046 -0.1604 -0.2706
  170SAPE  H13X19293   2.273   2.101   7.973  1.9301 -0.2885 -0.2003
  170SAPE  H13Y19294   2.367   1.975   7.903  0.2297  1.8857 -1.5803
  170SAPE  C31419295   2.235   1.888   8.059  0.6649  0.0505  0.3959
  170SAPE  H14X19296   2.265   1.785   8.030 -1.6043 -0.7749  0.7262
  170SAPE  H14Y19297   2.126   1.872   8.074  0.9508 -4.9162 -0.8922
  170SAPE  C31519298   2.305   1.917   8.192 -0.2595  0.2682  0.1595
  170SAPE  H15X19299   2.415   1.910   8.179 -0.4899  0.1960 -2.1294
  170SAPE  H15Y19300   2.269   1.839   8.262 -2.3807  1.8708  0.9546
  170SAPE  C31619301   2.278   2.058   8.251  0.3685  0.2036  0.2626
  170SAPE  H16X19302   2.170   2.080   8.232  0.7310  1.9330  0.0392
  170SAPE  H16Y19303   2.325   2.139   8.192 -2.1283  0.8624 -1.0070
  170SAPE  C31719304   2.312   2.075   8.399  0.1272  0.1671 -0.6513
  170SAPE  H17X19305   2.415   2.037   8.414 -0.8190 -1.5022  2.3387
  170SAPE  H17Y19306   2.250   2.000   8.452 -1.0929  0.2584 -1.9256
  170SAPE  C31819307   2.285   2.222   8.429 -0.6286 -0.1016 -0.1314
  170SAPE  H18X19308   2.309   2.283   8.340 -0.4303 -0.2919 -0.2062
  170SAPE  H18Y19309   2.327   2.272   8.519 -2.2364  0.1955  0.4969
  170SAPE  H18Z19310   2.174   2.226   8.439 -0.7085  0.5756 -1.1367
  171SAPE     N19311   2.002   3.402   6.243  0.3397 -0.2305 -0.2437
  171SAPE   HN119312   2.077   3.469   6.269  0.8773  0.0330 -2.3439
  171SAPE   HN219313   1.925   3.463   6.209  0.1413 -0.0106  0.5775
  171SAPE   HN319314   1.973   3.355   6.332 -0.0904  1.9139  0.8090
  171SAPE   C1219315   2.045   3.300   6.148  0.0467  0.4418 -0.0483
  171SAPE  H12A19316   2.050   3.350   6.049 -1.3127  3.2127  1.1840
  171SAPE  H12B19317   1.974   3.214   6.141  1.8191 -0.9924 -1.5422
  171SAPE   C1119318   2.182   3.241   6.183  0.6589 -0.2031  0.1007
  171SAPE  H11A19319   2.215   3.168   6.106 -3.5443 -1.5199 -0.6853
  171SAPE  H11B19320   2.175   3.177   6.274 -1.0603 -1.9912 -1.2171
  171SAPE     P19321   2.406   3.332   6.287 -0.3331  0.1816 -0.0721
  171SAPE   O1319322   2.486   3.244   6.197  0.1538 -0.4927  0.3221
  171SAPE   O1419323   2.457   3.465   6.317  0.0976  0.0971 -0.4523
  171SAPE   O1219324   2.272   3.350   6.212 -0.1213  0.0683  0.3541
  171SAPE   O1119325   2.369   3.254   6.418 -0.1744 -0.2209  0.2262
  171SAPE    C119326   2.279   3.312   6.517 -0.0603  0.3083 -0.0659
  171SAPE    HA19327   2.300   3.418   6.546 -0.7812  0.9239 -1.6826
  171SAPE    HB19328   2.178   3.324   6.473 -0.7016  1.7224  1.6694
  171SAPE    C219329   2.275   3.230   6.648 -0.1090 -0.3666  0.1435
  171SAPE    HS19330   2.171   3.249   6.684 -0.9305 -4.4865  0.4346
  171SAPE   O2119331   2.382   3.275   6.723 -0.3464  0.3710 -0.6992
  171SAPE   C2119332   2.356   3.358   6.828  0.0888 -0.3718  0.4632
  171SAPE   O2219333   2.255   3.421   6.843 -0.1950 -0.1092  0.1606
  171SAPE   C2219334   2.483   3.359   6.925 -0.1205  0.4304  0.6995
  171SAPE   H2R19335   2.567   3.349   6.852 -1.4080 -2.4095 -0.5025
  171SAPE   H2S19336   2.486   3.455   6.980 -0.2770  1.4664 -1.0129
  171SAPE    C319337   2.282   3.077   6.624 -0.6589 -0.1237 -0.1063
  171SAPE    HX19338   2.372   3.069   6.559 -0.5081  0.5835  0.0093
  171SAPE    HY19339   2.197   3.053   6.556 -0.2217  2.2037 -1.5971
  171SAPE   O3119340   2.296   3.004   6.746 -0.3601  0.1958 -0.0996
  171SAPE   C3119341   2.423   2.971   6.782 -0.2709 -0.2689  0.8253
  171SAPE   O3219342   2.524   3.017   6.727 -0.3377  0.3009  0.1385
  171SAPE   C3219343   2.426   2.882   6.898  0.6763  0.3773  0.2853
  171SAPE   H2X19344   2.365   2.789   6.885  0.5959  0.5623 -0.7555
  171SAPE   H2Y19345   2.368   2.936   6.975  0.7717  1.2379 -0.2310
  171SAPE   C2319346   2.482   3.241   7.016 -0.1747 -0.4431  0.3896
  171SAPE   H3R19347   2.568   3.245   7.086 -1.0230  0.5139  1.4169
  171SAPE   H3S19348   2.494   3.151   6.951 -0.1165 -1.4263  1.7360
  171SAPE   C2419349   2.353   3.231   7.091  0.2459 -0.0358 -0.1966
  171SAPE   H4R19350   2.356   3.135   7.147 -0.9596  0.1164  0.1407
  171SAPE   H4S19351   2.262   3.223   7.028 -0.2278 -0.1647  0.4984
  171SAPE   C2519352   2.331   3.349   7.192  1.4873 -0.2519  0.6885
  171SAPE   H5R19353   2.337   3.451   7.152 -0.8243  0.5907  2.2885
  171SAPE   C2619354   2.338   3.340   7.319 -0.3218 -0.5478 -0.2934
  171SAPE   H6R19355   2.330   3.436   7.372  1.7847 -1.1882  1.3023
  171SAPE   C2719356   2.361   3.213   7.405 -0.3835  0.3497 -0.6219
  171SAPE   H7R19357   2.370   3.124   7.339  0.8663  0.6427 -0.8775
  171SAPE   H7S19358   2.285   3.189   7.482 -0.2760 -3.1290 -1.4127
  171SAPE   C2819359   2.497   3.228   7.484  0.9525  0.3980 -0.0272
  171SAPE   H8R19360   2.585   3.179   7.440  0.7802  1.1433 -1.2569
  171SAPE   C2919361   2.521   3.284   7.605 -0.2793  0.1373 -0.4076
  171SAPE   H9R19362   2.622   3.301   7.646  0.2304 -1.5873 -0.8573
  171SAPE  C21019363   2.419   3.356   7.686 -0.7969  0.0046 -0.0239
  171SAPE  H10R19364   2.322   3.372   7.633 -0.6761 -2.9092 -1.3276
  171SAPE  H10S19365   2.465   3.456   7.697 -1.9264  0.5617 -0.1643
  171SAPE  C21119366   2.396   3.286   7.813  0.2613  0.0849  0.5814
  171SAPE  H11R19367   2.330   3.200   7.796 -2.7836  2.4512 -0.3511
  171SAPE  C21219368   2.449   3.300   7.935 -0.0633  0.4004  0.2440
  171SAPE  H12R19369   2.409   3.242   8.020 -0.5428 -1.0266 -0.9012
  171SAPE  C21319370   2.538   3.410   7.983  0.6770  0.9612 -0.1717
  171SAPE  H13R19371   2.509   3.448   8.084 -1.3018 -0.5682 -0.1100
  171SAPE  H13S19372   2.519   3.501   7.922  1.0504  0.8535 -0.4537
  171SAPE  C21419373   2.684   3.359   7.983 -0.2471 -0.5841 -0.0387
  171SAPE  H14R19374   2.734   3.368   7.885 -0.3059  1.3508  0.0685
  171SAPE  C21519375   2.739   3.288   8.082  0.5978  0.2865 -0.0856
  171SAPE  H15R19376   2.841   3.246   8.070  1.4115  1.9646  0.6306
  171SAPE  C21619377   2.658   3.249   8.205  0.0046 -0.2495  0.4258
  171SAPE  H16R19378   2.563   3.213   8.160  1.3866  0.1625 -3.1560
  171SAPE  H16S19379   2.627   3.340   8.261 -0.9837  0.0731 -0.6056
  171SAPE  C21719380   2.728   3.142   8.296 -1.1126 -0.1127  0.2722
  171SAPE  H17R19381   2.838   3.152   8.285 -0.8193 -2.1076  1.0098
  171SAPE  H17S19382   2.710   3.045   8.246  0.0246 -0.9558  1.4311
  171SAPE  C21819383   2.668   3.146   8.438 -0.0803 -0.2166  0.6618
  171SAPE  H18R19384   2.557   3.144   8.438 -0.1157 -1.2347 -1.6449
  171SAPE  H18S19385   2.686   3.244   8.487 -1.0168 -0.5940  1.8196
  171SAPE  C21919386   2.699   3.023   8.515  0.5041 -0.4052 -0.1680
  171SAPE  H19R19387   2.806   3.012   8.543  0.1921 -0.0407  1.2105
  171SAPE  H19S19388   2.663   2.940   8.450  0.1052  0.0115 -0.4849
  171SAPE  C22019389   2.607   3.022   8.640 -0.1768  0.3809  0.1912
  171SAPE  H20R19390   2.602   3.115   8.701  0.8193 -0.7952  2.1872
  171SAPE  H20S19391   2.652   2.945   8.706  1.0609 -1.2931 -2.4348
  171SAPE  H20T19392   2.504   2.999   8.605  0.1055 -0.3558 -0.1759
  171SAPE   C3319393   2.570   2.848   6.944  0.5752 -0.1076  0.2935
  171SAPE   H3X19394   2.617   2.930   7.002  0.2611 -0.6218  1.3068
  171SAPE   H3Y19395   2.629   2.818   6.856  1.9775  1.0259  0.8136
  171SAPE   C3419396   2.580   2.724   7.029 -0.7173  0.4385  0.0038
  171SAPE   H4X19397   2.689   2.705   7.043 -0.3920  2.4266  0.5611
  171SAPE   H4Y19398   2.552   2.638   6.965  0.8893  0.5406 -0.9033
  171SAPE   C3519399   2.496   2.725   7.154  0.4020 -0.1110 -0.0412
  171SAPE   H5X19400   2.488   2.618   7.183  0.4058 -0.4131 -1.1235
  171SAPE   H5Y19401   2.392   2.754   7.128  0.4444  3.1163  2.7278
  171SAPE   C3619402   2.563   2.807   7.271 -0.4529  0.2062  0.1050
  171SAPE   H6X19403   2.551   2.914   7.241  0.2630  0.0911 -0.6586
  171SAPE   H6Y19404   2.672   2.787   7.272 -0.4162  0.2755  2.2782
  171SAPE   C3719405   2.499   2.779   7.396 -0.7656  0.9806 -0.1252
  171SAPE   H7X19406   2.503   2.670   7.417 -2.3108  0.8705 -0.2402
  171SAPE   H7Y19407   2.394   2.816   7.404 -0.8110  0.4507  3.2221
  171SAPE   C3819408   2.567   2.837   7.523 -0.6535  0.4032  0.5124
  171SAPE   H8X19409   2.582   2.945   7.505 -4.7201  1.1068  0.4735
  171SAPE   H8Y19410   2.662   2.790   7.555  0.5289  1.7295 -0.9057
  171SAPE   C3919411   2.471   2.810   7.640 -0.4297  0.5628  0.0806
  171SAPE   H9X19412   2.479   2.700   7.650  2.2016  0.5707 -1.1328
  171SAPE   H9Y19413   2.367   2.845   7.623 -1.3638 -1.5191  1.1526
  171SAPE  C31019414   2.515   2.883   7.769  0.4132 -0.3614 -0.3297
  171SAPE  H10X19415   2.500   2.991   7.753  0.8283 -0.3823 -0.8917
  171SAPE  H10Y19416   2.623   2.859   7.786  0.8949  0.5181 -1.9849
  171SAPE  C31119417   2.435   2.852   7.894  0.4882 -0.1357  0.0819
  171SAPE  H11X19418   2.455   2.745   7.916 -0.5264 -0.3589 -0.0313
  171SAPE  H11Y19419   2.329   2.853   7.861  0.9912 -1.8838 -1.7737
  171SAPE  C31219420   2.454   2.932   8.028  0.1610  0.1028  0.2061
  171SAPE  H12X19421   2.445   3.035   7.986 -1.0041 -1.2789 -3.2707
  171SAPE  H12Y19422   2.555   2.906   8.065  0.5856  0.8256 -0.4131
  171SAPE  C31319423   2.350   2.912   8.130  0.2823  0.0454  0.7475
  171SAPE  H13X19424   2.343   2.805   8.160 -1.2290 -0.7548 -2.1572
  171SAPE  H13Y19425   2.253   2.942   8.087  0.1525 -0.7144  0.5050
  171SAPE  C31419426   2.374   2.987   8.262 -0.3312  0.3515  0.2261
  171SAPE  H14X19427   2.372   3.096   8.243 -0.8061  0.6639  1.9385
  171SAPE  H14Y19428   2.480   2.971   8.292 -0.4782  1.1662  1.2085
  171SAPE  C31519429   2.287   2.954   8.381  0.7327  0.3524  0.9099
  171SAPE  H15X19430   2.342   2.874   8.435 -0.3796  0.6430  2.5456
  171SAPE  H15Y19431   2.192   2.910   8.343  1.7797 -0.4643 -0.8882
  171SAPE  C31619432   2.245   3.078   8.453  0.6545  0.3218  0.3070
  171SAPE  H16X19433   2.178   3.133   8.385  2.5664 -0.1025 -2.0747
  171SAPE  H16Y19434   2.329   3.145   8.481  0.6111  0.1584  0.8505
  171SAPE  C31719435   2.172   3.037   8.589 -0.5786 -0.3988  0.1330
  171SAPE  H17X19436   2.115   2.943   8.569  0.3323 -0.9608  0.0785
  171SAPE  H17Y19437   2.114   3.123   8.627  0.9965  1.8885 -2.3421
  171SAPE  C31819438   2.263   3.004   8.708  0.3252  0.4222 -0.8549
  171SAPE  H18X19439   2.349   3.074   8.708 -0.3068  1.2223 -1.5626
  171SAPE  H18Y19440   2.303   2.901   8.703  1.8942  1.0401 -1.8574
  171SAPE  H18Z19441   2.204   3.015   8.801 -3.3439  0.2354 -2.9343
  172SAPE     N19442   1.908   3.716   5.948  0.6039 -0.7430 -0.0673
  172SAPE   HN119443   1.901   3.810   5.903  0.2189 -0.7455 -0.0219
  172SAPE   HN219444   1.913   3.741   6.049 -0.7058  1.7716 -0.5234
  172SAPE   HN319445   1.990   3.662   5.916  1.1496 -0.0114  0.0870
  172SAPE   C1219446   1.781   3.644   5.905  0.1895  0.2252  0.0482
  172SAPE  H12A19447   1.775   3.648   5.794 -0.8054  1.3910  0.1134
  172SAPE  H12B19448   1.698   3.705   5.947 -0.4273 -0.3425 -0.3158
  172SAPE   C1119449   1.773   3.501   5.958 -0.6558  0.2002  0.2545
  172SAPE  H11A19450   1.852   3.439   5.911 -0.0354  0.7974  0.4937
  172SAPE  H11B19451   1.678   3.454   5.923 -0.9729  0.8885  0.1767
  172SAPE     P19452   1.643   3.488   6.180 -0.1715  0.6321 -0.0026
  172SAPE   O1319453   1.574   3.617   6.178  0.5046 -0.6902  0.0046
  172SAPE   O1419454   1.559   3.380   6.128 -0.4075  0.0200 -0.1466
  172SAPE   O1219455   1.777   3.493   6.100 -0.2936 -0.1318  0.3464
  172SAPE   O1119456   1.691   3.447   6.321  0.4236 -0.2331  0.1094
  172SAPE    C119457   1.729   3.545   6.421  0.6009 -0.1710  0.8270
  172SAPE    HA19458   1.838   3.529   6.436  1.3966  0.9675 -2.7095
  172SAPE    HB19459   1.698   3.649   6.396  2.2389  0.3169  0.6785
  172SAPE    C219460   1.660   3.515   6.558 -0.0189  0.1173  0.4566
  172SAPE    HS19461   1.553   3.525   6.529 -0.0562 -1.7544 -0.1855
  172SAPE   O2119462   1.706   3.613   6.652  0.0256  0.5330 -0.7995
  172SAPE   C2119463   1.604   3.671   6.714 -0.8203  0.8634  0.7172
  172SAPE   O2219464   1.490   3.630   6.704  0.4511  0.2563  0.3528
  172SAPE   C2219465   1.643   3.782   6.807  0.1389 -0.5351 -0.4277
  172SAPE   H2R19466   1.754   3.781   6.810  0.1234 -0.4369  0.5823
  172SAPE   H2S19467   1.612   3.878   6.760 -0.8974 -1.0529 -0.8342
  172SAPE    C319468   1.684   3.367   6.607  0.2889  0.3488 -0.7272
  172SAPE    HX19469   1.794   3.361   6.612  0.2295 -1.6793 -0.8749
  172SAPE    HY19470   1.654   3.295   6.527  0.4582  0.4885 -0.9173
  172SAPE   O3119471   1.613   3.341   6.733  0.6003 -0.6906 -0.3240
  172SAPE   C3119472   1.488   3.311   6.717 -0.1763  0.1629  0.4784
  172SAPE   O3219473   1.433   3.291   6.610 -0.1759  0.1437 -0.3313
  172SAPE   C3219474   1.417   3.308   6.853  0.1604  0.0752 -0.2952
  172SAPE   H2X19475   1.386   3.204   6.876 -0.2006  0.0303 -0.9670
  172SAPE   H2Y19476   1.325   3.363   6.827 -0.8433 -0.9078  1.0666
  172SAPE   C2319477   1.585   3.759   6.951  0.2238 -1.0569  0.5104
  172SAPE   H3R19478   1.610   3.662   6.998 -1.3223 -1.5082  0.4499
  172SAPE   H3S19479   1.474   3.762   6.956  0.2623  0.5626  0.9497
  172SAPE   C2419480   1.630   3.871   7.048 -0.7526 -0.3563 -0.4869
  172SAPE   H4R19481   1.572   3.871   7.142  1.0040  2.6914  0.7427
  172SAPE   H4S19482   1.609   3.972   7.008 -0.3116  0.4866  1.3170
  172SAPE   C2519483   1.783   3.866   7.075  0.9367  0.1633 -0.5192
  172SAPE   H5R19484   1.836   3.940   7.012 -1.8262  2.0579 -0.7727
  172SAPE   C2619485   1.854   3.785   7.151 -0.8306 -0.1006  0.3884
  172SAPE   H6R19486   1.963   3.798   7.152 -0.9841  1.6682 -0.9516
  172SAPE   C2719487   1.789   3.680   7.240  0.4178  0.1448  0.0874
  172SAPE   H7R19488   1.679   3.669   7.225  0.6395 -0.3714 -1.2716
  172SAPE   H7S19489   1.800   3.707   7.347  0.2607 -4.0528  1.3200
  172SAPE   C2819490   1.858   3.548   7.223 -0.2449 -0.0821  0.2115
  172SAPE   H8R19491   1.819   3.493   7.136 -2.4710 -2.8321  2.7193
  172SAPE   C2919492   1.959   3.500   7.302  0.6186 -0.0518 -0.1645
  172SAPE   H9R19493   2.003   3.401   7.283  1.3851  0.3389 -0.4715
  172SAPE  C21019494   2.024   3.575   7.415 -0.0537 -0.1181  0.2191
  172SAPE  H10R19495   2.006   3.682   7.393 -0.4481 -0.3816 -0.7874
  172SAPE  H10S19496   2.134   3.566   7.413  0.0813  0.2715  2.4989
  172SAPE  C21119497   1.968   3.542   7.554 -0.3983  0.4223 -0.2366
  172SAPE  H11R19498   1.867   3.498   7.556 -1.3365  2.3587 -1.6791
  172SAPE  C21219499   2.029   3.584   7.669  0.5205  0.4185  0.1948
  172SAPE  H12R19500   1.975   3.568   7.764 -1.5306 -1.3708 -1.1684
  172SAPE  C21319501   2.157   3.668   7.680 -0.1006 -0.3261  0.1064
  172SAPE  H13R19502   2.124   3.772   7.658 -0.4659 -0.6483 -0.9495
  172SAPE  H13S19503   2.224   3.625   7.602  0.8297 -1.9805  1.7633
  172SAPE  C21419504   2.218   3.661   7.818 -0.2736  0.2846 -0.3665
  172SAPE  H14R19505   2.205   3.566   7.872 -0.4347  0.6836  0.3019
  172SAPE  C21519506   2.278   3.769   7.867  0.0237  0.3044 -0.2216
  172SAPE  H15R19507   2.310   3.775   7.972 -2.2321  2.2904  0.4539
  172SAPE  C21619508   2.290   3.904   7.803  0.0347  0.2104  0.0769
  172SAPE  H16R19509   2.189   3.951   7.813 -0.5912 -1.1314  0.3133
  172SAPE  H16S19510   2.318   3.898   7.695 -0.7730  1.1308 -0.2027
  172SAPE  C21719511   2.397   3.998   7.868 -0.1363  0.8335  0.0872
  172SAPE  H17R19512   2.495   3.947   7.852  0.6305  2.7681 -2.0690
  172SAPE  H17S19513   2.382   4.008   7.977 -1.9147  0.2230 -0.0763
  172SAPE  C21819514   2.409   4.140   7.803  0.5547 -0.0479 -0.1111
  172SAPE  H18R19515   2.314   4.194   7.818 -1.1386 -3.3639  2.5624
  172SAPE  H18S19516   2.423   4.128   7.693 -1.5620 -1.6001 -0.2765
  172SAPE  C21919517   2.537   4.207   7.873 -0.2980  0.1900 -0.4391
  172SAPE  H19R19518   2.587   4.276   7.802 -1.2332  0.3214 -0.9787
  172SAPE  H19S19519   2.604   4.124   7.904 -0.8887 -0.2549 -0.3428
  172SAPE  C22019520   2.502   4.286   8.001 -0.6374 -1.0735 -0.0786
  172SAPE  H20R19521   2.432   4.237   8.071 -1.4837 -0.6467 -0.6113
  172SAPE  H20S19522   2.461   4.381   7.962  0.7872 -0.7411 -0.8624
  172SAPE  H20T19523   2.591   4.319   8.059 -1.4987 -1.1449  1.3360
  172SAPE   C3319524   1.490   3.377   6.967  0.3549  0.1495  0.4566
  172SAPE   H3X19525   1.483   3.488   6.972  0.3743  0.0943  2.3479
  172SAPE   H3Y19526   1.598   3.353   6.977  0.6315  2.1319  3.4487
  172SAPE   C3419527   1.438   3.334   7.103 -0.2718 -0.0962 -0.0417
  172SAPE   H4X19528   1.454   3.226   7.124  2.9203  0.2470 -0.1448
  172SAPE   H4Y19529   1.328   3.345   7.094 -0.3977 -0.8658  0.4823
  172SAPE   C3519530   1.498   3.426   7.211 -0.0085  0.5493 -0.6361
  172SAPE   H5X19531   1.478   3.535   7.199 -0.3337  0.3030 -2.7262
  172SAPE   H5Y19532   1.608   3.416   7.207  0.1481 -0.2107  2.6531
  172SAPE   C3619533   1.450   3.390   7.356 -0.3326 -0.0025 -0.2037
  172SAPE   H6X19534   1.464   3.286   7.390  0.9504  0.2508  0.0974
  172SAPE   H6Y19535   1.340   3.410   7.358 -0.7491 -1.3011 -3.5756
  172SAPE   C3719536   1.533   3.473   7.456  0.3493  0.6535  0.3479
  172SAPE   H7X19537   1.539   3.578   7.420 -0.5997  0.1515 -1.3958
  172SAPE   H7Y19538   1.641   3.447   7.453  1.0060  3.2380 -0.5167
  172SAPE   C3819539   1.493   3.455   7.604 -0.1990  0.4261  0.4303
  172SAPE   H8X19540   1.513   3.347   7.622  1.1686  0.8119  1.4181
  172SAPE   H8Y19541   1.385   3.477   7.609 -0.2705  0.0667  0.5064
  172SAPE   C3919542   1.582   3.528   7.700 -0.6005 -0.5361  0.7651
  172SAPE   H9X19543   1.574   3.636   7.675 -0.1317 -0.4419  1.0310
  172SAPE   H9Y19544   1.689   3.501   7.693  0.0701  2.0661 -0.0968
  172SAPE  C31019545   1.531   3.520   7.845 -0.2738 -0.1336 -0.4335
  172SAPE  H10X19546   1.526   3.412   7.870  0.8424 -0.1913 -0.4133
  172SAPE  H10Y19547   1.432   3.564   7.868 -0.2025 -0.6548  0.9605
  172SAPE  C31119548   1.637   3.581   7.940 -0.2102 -0.1499 -0.0578
  172SAPE  H11X19549   1.684   3.675   7.903  1.5590 -1.3563 -1.0226
  172SAPE  H11Y19550   1.730   3.521   7.944 -0.7340 -1.0309 -0.6762
  172SAPE  C31219551   1.597   3.592   8.089 -0.0698  0.2745  0.9152
  172SAPE  H12X19552   1.511   3.661   8.088 -0.3564 -0.0735  1.2593
  172SAPE  H12Y19553   1.686   3.641   8.134 -0.3577  1.9009 -0.2295
  172SAPE  C31319554   1.582   3.461   8.153  0.0364  0.9975  0.0112
  172SAPE  H13X19555   1.684   3.435   8.189  1.1228  3.6109 -0.9703
  172SAPE  H13Y19556   1.543   3.378   8.090 -0.2563 -0.3679  1.9139
  172SAPE  C31419557   1.489   3.466   8.275 -0.2108  0.5216 -0.1599
  172SAPE  H14X19558   1.391   3.503   8.238  0.6948  2.8413 -0.3824
  172SAPE  H14Y19559   1.527   3.539   8.350 -0.0051 -0.8876  1.1672
  172SAPE  C31519560   1.487   3.331   8.348 -0.2491  0.8833 -0.1176
  172SAPE  H15X19561   1.583   3.304   8.396 -1.3950 -2.2269  0.6582
  172SAPE  H15Y19562   1.479   3.255   8.267  0.8631  2.1273 -1.4602
  172SAPE  C31619563   1.374   3.309   8.451  0.3588 -0.5942 -0.1716
  172SAPE  H16X19564   1.275   3.323   8.404  0.9655  0.8582 -1.1323
  172SAPE  H16Y19565   1.371   3.382   8.535 -0.2753 -0.9210  0.0917
  172SAPE  C31719566   1.381   3.167   8.511  0.0772  0.0558  0.2906
  172SAPE  H17X19567   1.479   3.175   8.564  0.2198  0.9935 -0.0848
  172SAPE  H17Y19568   1.384   3.087   8.434  1.1976  0.0152  0.3529
  172SAPE  C31819569   1.282   3.150   8.619  0.1272 -0.1772  0.1930
  172SAPE  H18X19570   1.285   3.224   8.703 -2.2822 -0.9482  1.0585
  172SAPE  H18Y19571   1.296   3.051   8.666  1.2472  1.1879  2.9872
  172SAPE  H18Z19572   1.187   3.164   8.562 -0.7887 -0.8772  1.4826
  173SOPE     N19573   3.834   1.295  10.969 -0.6887 -0.4666 -0.3867
  173SOPE   HN119574   3.804   1.243  11.054 -1.3942  1.9973  0.9860
  173SOPE   HN219575   3.890   1.238  10.903  0.4504  1.4080 -1.1304
  173SOPE   HN319576   3.903   1.365  11.003  1.8450 -3.3405  0.7125
  173SOPE   C1219577   3.716   1.359  10.907 -0.8418  0.3735  0.2659
  173SOPE  H12A19578   3.674   1.431  10.981 -0.5834 -1.1962  2.0217
  173SOPE  H12B19579   3.638   1.281  10.906 -2.1723  1.6606 -0.5318
  173SOPE   C1119580   3.738   1.445  10.780 -1.0539  0.3878  0.1754
  173SOPE  H11A19581   3.645   1.448  10.720  0.7736  0.2499 -2.8227
  173SOPE  H11B19582   3.804   1.391  10.710  1.1772  0.0726  2.3538
  173SOPE     P19583   3.739   1.717  10.786  0.3803 -0.3327  0.1364
  173SOPE   O1319584   3.845   1.812  10.747  0.2906 -0.3079  0.3493
  173SOPE   O1419585   3.657   1.761  10.903  0.1776 -0.0026 -0.0442
  173SOPE   O1219586   3.798   1.577  10.819  0.7480  0.4932 -0.3305
  173SOPE   O1119587   3.644   1.692  10.663 -0.4799 -0.0234  0.1068
  173SOPE    C119588   3.694   1.664  10.529  0.2682 -1.0853  0.3588
  173SOPE    HA19589   3.678   1.556  10.506  0.0972 -1.0821  0.4602
  173SOPE    HB19590   3.799   1.697  10.518 -0.1374 -0.2490 -1.3336
  173SOPE    C219591   3.615   1.765  10.436  0.3447  0.5760  0.4140
  173SOPE    HS19592   3.519   1.716  10.406  0.2106 -1.1099  3.1706
  173SOPE   O2119593   3.695   1.802  10.317 -0.0142  0.0701 -0.0747
  173SOPE   C2119594   3.709   1.705  10.235 -0.0570  0.0667 -1.3670
  173SOPE   O2219595   3.654   1.598  10.239  0.3818  0.3431  0.2343
  173SOPE   C2219596   3.808   1.762  10.134 -0.3932  0.1257  0.5398
  173SOPE   H2R19597   3.904   1.706  10.146 -0.7185 -0.3330  1.0501
  173SOPE   H2S19598   3.824   1.870  10.153  2.4703  0.7342 -3.7652
  173SOPE    C319599   3.570   1.899  10.511  0.3465 -0.1156 -0.4947
  173SOPE    HX19600   3.656   1.963  10.539  2.0945 -1.9156 -1.5071
  173SOPE    HY19601   3.519   1.875  10.607  1.6618 -0.3674  0.1654
  173SOPE   O3119602   3.469   1.961  10.429  0.1490 -0.0786  0.3541
  173SOPE   C3119603   3.496   2.082  10.375  0.8496  0.0608 -0.0245
  173SOPE   O3219604   3.603   2.137  10.385  0.4083  0.0737 -0.6273
  173SOPE   C3219605   3.366   2.129  10.312  0.3688 -0.8112 -0.2551
  173SOPE   H2X19606   3.379   2.239  10.302 -1.3777 -0.4870  0.6417
  173SOPE   H2Y19607   3.290   2.118  10.391  1.3108  1.2433  1.0011
  173SOPE   C2319608   3.739   1.749   9.995 -0.3722 -0.2643  0.2148
  173SOPE   H3R19609   3.631   1.766  10.015 -1.0450 -3.7119  0.0830
  173SOPE   H3S19610   3.762   1.643   9.971 -2.2536 -1.4648  3.1038
  173SOPE   C2419611   3.804   1.833   9.875 -0.1699  0.6750  0.0084
  173SOPE   H4R19612   3.757   1.933   9.870 -1.2341  0.2099  0.3938
  173SOPE   H4S19613   3.913   1.843   9.891  0.3468  0.3796 -2.8704
  173SOPE   C2519614   3.787   1.762   9.741  0.6113 -0.5013  0.3188
  173SOPE   H5R19615   3.803   1.654   9.759  2.2855 -0.8295 -2.6217
  173SOPE   H5S19616   3.684   1.775   9.701  1.1108 -0.0101 -0.8681
  173SOPE   C2619617   3.885   1.798   9.628  0.1108  0.1970  0.0143
  173SOPE   H6R19618   3.989   1.783   9.665  0.0938  1.9192  0.8892
  173SOPE   H6S19619   3.865   1.741   9.535 -0.4282 -0.2781  0.4174
  173SOPE   C2719620   3.856   1.942   9.577 -0.7405 -0.6377 -0.2165
  173SOPE   H7R19621   3.749   1.955   9.552 -0.8796 -4.0728 -2.0665
  173SOPE   H7S19622   3.891   2.013   9.654  1.8925 -0.3258 -1.5728
  173SOPE   C2819623   3.939   1.976   9.446 -0.1192 -0.4071  0.1294
  173SOPE   H8R19624   3.942   2.087   9.440  2.2088 -0.4509 -0.3816
  173SOPE   H8S19625   4.045   1.946   9.440  0.0717  0.4541 -1.3284
  173SOPE   C2919626   3.887   1.924   9.316 -1.0103 -0.1440  0.8649
  173SOPE   H9119627   3.813   1.990   9.268  1.3880  0.7839 -1.9299
  173SOPE  C21019628   3.902   1.810   9.247  0.1535 -1.0722  0.4727
  173SOPE  H10119629   3.832   1.804   9.162  0.7708  0.3475 -0.1567
  173SOPE  C21119630   3.986   1.695   9.295  0.4113  0.4720 -0.6607
  173SOPE  H11R19631   3.925   1.624   9.355  1.2608 -0.7533 -1.1831
  173SOPE  H11S19632   4.064   1.729   9.367  0.0044 -2.3521  1.3035
  173SOPE  C21219633   4.059   1.605   9.192 -0.8005  0.4866  0.1349
  173SOPE  H12R19634   4.124   1.529   9.242 -0.5587 -0.9451 -2.2145
  173SOPE  H12S19635   4.120   1.665   9.121 -0.5202 -0.3354 -0.3218
  173SOPE  C21319636   3.967   1.537   9.098 -0.0959  0.1028  0.3920
  173SOPE  H13R19637   3.895   1.603   9.044 -1.3917 -2.2519 -0.9470
  173SOPE  H13S19638   3.893   1.488   9.165 -0.6462 -2.2596 -1.7925
  173SOPE  C21419639   4.024   1.441   8.998 -0.0078 -0.2545 -0.3191
  173SOPE  H14R19640   4.099   1.375   9.048  0.3185 -1.3865 -2.2140
  173SOPE  H14S19641   4.079   1.498   8.920  2.5873  0.0857  1.6070
  173SOPE  C21519642   3.913   1.347   8.944 -0.3380 -0.7468  0.7112
  173SOPE  H15R19643   3.837   1.412   8.896 -1.4185 -1.8629  0.8810
  173SOPE  H15S19644   3.859   1.295   9.025 -2.8023  0.3565 -0.1423
  173SOPE  C21619645   3.971   1.241   8.844 -0.5843 -0.2969  1.0193
  173SOPE  H16R19646   4.032   1.168   8.901  2.1587 -0.0981 -1.3773
  173SOPE  H16S19647   4.046   1.283   8.773 -0.6842 -0.3015  0.9107
  173SOPE  C21719648   3.862   1.154   8.774 -0.9503  1.0501  0.0949
  173SOPE  H17R19649   3.911   1.084   8.703 -3.3987  0.9612 -1.6543
  173SOPE  H17S19650   3.785   1.208   8.715  0.0972  1.3833 -1.0253
  173SOPE  C21819651   3.786   1.067   8.872 -0.2627 -0.1252 -0.2864
  173SOPE  H18R19652   3.708   1.012   8.817 -0.0754  0.5522 -1.2722
  173SOPE  H18S19653   3.740   1.129   8.953  0.5859  0.1712 -0.0136
  173SOPE  H18T19654   3.857   0.992   8.914 -0.5506 -0.4496 -0.3854
  173SOPE   C3319655   3.329   2.076  10.177 -0.2870 -0.5858  0.6405
  173SOPE   H3X19656   3.232   2.122  10.147 -1.5514 -1.8674  2.5093
  173SOPE   H3Y19657   3.317   1.966  10.176  0.0703 -0.6262 -1.1272
  173SOPE   C3419658   3.428   2.091  10.067 -0.8009 -0.2662 -0.1427
  173SOPE   H4X19659   3.517   2.031  10.096 -0.7502 -0.3221 -0.4088
  173SOPE   H4Y19660   3.439   2.202  10.064 -0.7429 -0.1509  2.5245
  173SOPE   C3519661   3.363   2.033   9.935 -0.5913  0.6358 -0.3084
  173SOPE   H5X19662   3.286   2.109   9.907  1.2961  2.5243 -0.6042
  173SOPE   H5Y19663   3.314   1.936   9.959 -0.0356  0.8897  2.1840
  173SOPE   C3619664   3.460   2.020   9.818  0.8977  0.1905 -1.1507
  173SOPE   H6X19665   3.539   1.942   9.827  0.3593 -0.2228  0.2504
  173SOPE   H6Y19666   3.513   2.117   9.804  1.1230  0.1333 -0.7034
  173SOPE   C3719667   3.393   1.974   9.688  0.0616 -0.4092  0.7411
  173SOPE   H7X19668   3.300   2.033   9.673 -0.1171 -0.9517 -0.3612
  173SOPE   H7Y19669   3.364   1.866   9.685  0.0492 -0.3826 -2.2848
  173SOPE   C3819670   3.486   2.002   9.571  0.1713 -0.4296  0.3167
  173SOPE   H8X19671   3.562   1.921   9.586 -0.2814 -0.8460  0.3705
  173SOPE   H8Y19672   3.532   2.103   9.576  0.2061 -0.2298 -2.3367
  173SOPE   C3919673   3.423   1.982   9.436 -0.1496  0.1642  0.0344
  173SOPE   H9X19674   3.356   2.069   9.420  1.2721  0.9031 -2.6081
  173SOPE   H9Y19675   3.357   1.893   9.440 -1.2390  0.7115 -2.9575
  173SOPE  C31019676   3.541   1.977   9.334 -0.5231  0.2902 -0.5671
  173SOPE  H10X19677   3.601   1.883   9.342  0.2935  0.6392 -2.1272
  173SOPE  H10Y19678   3.612   2.059   9.359  0.0535 -0.0746 -0.9734
  173SOPE  C31119679   3.504   1.985   9.187  0.1943 -1.2006  0.5301
  173SOPE  H11X19680   3.407   1.932   9.173 -0.6890  0.6833 -1.0950
  173SOPE  H11Y19681   3.584   1.938   9.126  0.6587  0.5736 -0.3014
  173SOPE  C31219682   3.483   2.130   9.139  0.4331 -0.6823  0.9626
  173SOPE  H12X19683   3.578   2.185   9.154  0.2752  0.1797 -1.0050
  173SOPE  H12Y19684   3.398   2.156   9.206  0.1155 -0.7540  0.5870
  173SOPE  C31319685   3.451   2.144   8.988  0.4530  0.2409 -0.1251
  173SOPE  H13X19686   3.360   2.086   8.959  0.8287  0.3228 -1.5683
  173SOPE  H13Y19687   3.543   2.099   8.944  0.3835 -0.9680  0.9154
  173SOPE  C31419688   3.440   2.281   8.929  0.7713 -0.1342  0.2717
  173SOPE  H14X19689   3.531   2.338   8.960  1.6426 -1.7079  0.7327
  173SOPE  H14Y19690   3.351   2.329   8.975  2.1142  2.0333  0.7582
  173SOPE  C31519691   3.425   2.285   8.781 -0.0299 -0.0118 -0.5483
  173SOPE  H15X19692   3.327   2.237   8.758 -1.0689  1.6712  0.1918
  173SOPE  H15Y19693   3.500   2.231   8.720 -1.7012 -1.1512 -1.7051
  173SOPE  C31619694   3.438   2.433   8.722  0.1819  0.4035 -0.4621
  173SOPE  H16X19695   3.534   2.488   8.731 -0.7160  2.4392 -2.4918
  173SOPE  H16Y19696   3.371   2.490   8.790  0.1811  0.0930 -0.1948
  173SOPE  C31719697   3.375   2.435   8.585 -0.0449  0.2830 -0.6895
  173SOPE  H17X19698   3.286   2.368   8.583  1.0298 -1.2598  0.2737
  173SOPE  H17Y19699   3.445   2.383   8.515 -0.7600 -0.4652 -0.8690
  173SOPE  C31819700   3.347   2.573   8.522 -0.1448  0.2762 -0.4345
  173SOPE  H18X19701   3.427   2.648   8.537 -0.3567  0.4572 -0.2080
  173SOPE  H18Y19702   3.247   2.610   8.552  0.7384  0.8368  2.0471
  173SOPE  H18Z19703   3.343   2.555   8.412  2.1263 -1.5982 -0.2884
  174SOPE     N19704   3.181   6.531  10.900 -0.7930  0.2309  0.4987
  174SOPE   HN119705   3.188   6.427  10.907  0.2195  0.0939 -1.6243
  174SOPE   HN219706   3.193   6.572  10.995 -0.4986  3.6087 -0.8597
  174SOPE   HN319707   3.083   6.554  10.878 -0.6083 -0.2394 -0.9049
  174SOPE   C1219708   3.290   6.592  10.813 -0.3595  0.6214 -0.2303
  174SOPE  H12A19709   3.264   6.700  10.815 -0.6267  0.5566  0.7635
  174SOPE  H12B19710   3.283   6.544  10.713  1.1936 -0.3948  0.1084
  174SOPE   C1119711   3.424   6.551  10.889 -0.1096 -0.2256 -0.9730
  174SOPE  H11A19712   3.425   6.585  10.994  3.0533  0.2333 -1.0663
  174SOPE  H11B19713   3.512   6.603  10.845  1.7973 -0.4498  2.3011
  174SOPE     P19714   3.488   6.333  10.754  0.3356 -0.1357 -0.1203
  174SOPE   O1319715   3.394   6.217  10.735 -0.1895  0.8613 -0.5726
  174SOPE   O1419716   3.633   6.296  10.758 -0.0297  0.5877 -0.1593
  174SOPE   O1219717   3.449   6.410  10.888  0.4409  0.2633 -0.0201
  174SOPE   O1119718   3.462   6.440  10.640 -0.1854  0.0764  0.0626
  174SOPE    C119719   3.574   6.480  10.565 -0.5488  0.3110  0.0975
  174SOPE    HA19720   3.620   6.391  10.517 -1.5080  1.6088 -3.6608
  174SOPE    HB19721   3.646   6.530  10.633 -0.2779  3.1457 -2.0566
  174SOPE    C219722   3.538   6.575  10.451 -0.6392  0.0460  0.0950
  174SOPE    HS19723   3.500   6.670  10.495 -0.3344  1.7255 -3.0099
  174SOPE   O2119724   3.434   6.518  10.369  0.2650  0.0933  0.0203
  174SOPE   C2119725   3.312   6.552  10.393  0.0626 -0.9843 -0.2075
  174SOPE   O2219726   3.271   6.615  10.492 -0.3744 -0.1536  0.9105
  174SOPE   C2219727   3.220   6.520  10.269 -0.2515 -0.3049  0.1830
  174SOPE   H2R19728   3.128   6.580  10.288 -0.4856 -0.5347 -0.2332
  174SOPE   H2S19729   3.197   6.412  10.277 -3.9017  0.2663 -0.5530
  174SOPE    C319730   3.672   6.603  10.366 -0.0090 -0.8740 -0.3244
  174SOPE    HX19731   3.743   6.649  10.437  1.2522  0.4085 -2.3099
  174SOPE    HY19732   3.640   6.680  10.292  2.6716  0.9162  0.2421
  174SOPE   O3119733   3.739   6.493  10.305 -0.0362  0.0270 -0.4019
  174SOPE   C3119734   3.863   6.511  10.264 -0.6624 -0.6783 -0.2426
  174SOPE   O3219735   3.924   6.621  10.270 -0.1262  0.9705 -0.5760
  174SOPE   C3219736   3.932   6.380  10.218  0.1780 -0.4433  0.2382
  174SOPE   H2X19737   3.861   6.330  10.149 -1.1176  1.0305  0.4491
  174SOPE   H2Y19738   3.955   6.317  10.306  1.0145  1.2762  1.3119
  174SOPE   C2319739   3.283   6.547  10.128  0.1503  0.0868 -0.2695
  174SOPE   H3R19740   3.361   6.472  10.104 -0.7462 -1.1573  0.5383
  174SOPE   H3S19741   3.315   6.653  10.117 -2.3279  0.9766  0.3937
  174SOPE   C2419742   3.186   6.535  10.008 -0.5918 -0.4865 -1.0679
  174SOPE   H4R19743   3.146   6.432  10.015 -0.5650 -0.6064 -2.4024
  174SOPE   H4S19744   3.106   6.612  10.003  2.0589  2.5302 -0.4701
  174SOPE   C2519745   3.262   6.529   9.878  0.3446  0.0233  0.2460
  174SOPE   H5R19746   3.308   6.629   9.862  0.1151  0.7097  3.1970
  174SOPE   H5S19747   3.333   6.443   9.888  1.7673  1.1862  0.5183
  174SOPE   C2619748   3.176   6.504   9.753  0.1203 -0.1771  0.5396
  174SOPE   H6R19749   3.110   6.416   9.772 -0.1063 -0.0570  0.3151
  174SOPE   H6S19750   3.105   6.586   9.728  0.7683 -0.2575 -1.7358
  174SOPE   C2719751   3.261   6.483   9.632  0.1242 -0.0854 -0.5041
  174SOPE   H7R19752   3.281   6.582   9.585  1.3307  0.0705  0.3060
  174SOPE   H7S19753   3.363   6.445   9.655  0.6745  2.4129  1.7077
  174SOPE   C2819754   3.193   6.391   9.534 -0.2608 -0.1245  0.0939
  174SOPE   H8R19755   3.200   6.297   9.592 -1.4648  1.4652  3.0312
  174SOPE   H8S19756   3.085   6.412   9.519  0.0987  0.3977 -2.1997
  174SOPE   C2919757   3.256   6.367   9.401 -0.0738 -0.9093 -0.4987
  174SOPE   H9119758   3.320   6.277   9.401 -3.3650 -3.5724  1.9307
  174SOPE  C21019759   3.238   6.438   9.288 -0.3121  0.1085  0.0503
  174SOPE  H10119760   3.306   6.431   9.201  1.4452  0.3068  1.3624
  174SOPE  C21119761   3.134   6.550   9.274  0.7139 -0.1160  0.2063
  174SOPE  H11R19762   3.138   6.621   9.358 -0.1462 -1.6419  1.5955
  174SOPE  H11S19763   3.029   6.514   9.266  0.3787  0.8926  0.0249
  174SOPE  C21219764   3.147   6.639   9.145 -0.5893  0.0637  0.8250
  174SOPE  H12R19765   3.242   6.697   9.153 -1.4853  1.3545  3.0868
  174SOPE  H12S19766   3.067   6.717   9.147  0.4618  1.2882 -1.1054
  174SOPE  C21319767   3.131   6.567   9.012  0.2667 -0.0939 -0.2989
  174SOPE  H13R19768   3.025   6.534   9.005  0.2854 -0.0163 -1.0757
  174SOPE  H13S19769   3.191   6.474   9.023  0.0572 -0.2606 -0.5298
  174SOPE  C21419770   3.168   6.644   8.889  0.6618  0.1967  0.2665
  174SOPE  H14R19771   3.267   6.694   8.890 -0.0401  1.6367  0.5898
  174SOPE  H14S19772   3.100   6.732   8.889 -0.2376 -0.4376 -1.9034
  174SOPE  C21519773   3.137   6.566   8.763  0.3809 -0.2315 -0.5596
  174SOPE  H15R19774   3.034   6.526   8.763  1.0894 -2.1468  0.5693
  174SOPE  H15S19775   3.200   6.475   8.761  1.9688  0.7384  1.5611
  174SOPE  C21619776   3.154   6.657   8.653 -0.1684  0.5829  0.2999
  174SOPE  H16R19777   3.261   6.688   8.645 -0.0680  0.6679  1.7606
  174SOPE  H16S19778   3.090   6.747   8.666 -0.3009  1.2880 -3.9061
  174SOPE  C21719779   3.095   6.595   8.523 -0.1630 -0.9041 -0.2646
  174SOPE  H17R19780   3.071   6.678   8.452 -1.9033 -0.6611  0.5570
  174SOPE  H17S19781   2.997   6.545   8.542 -0.0740 -0.8413  0.3908
  174SOPE  C21819782   3.188   6.501   8.447 -0.2298 -0.1095 -0.5414
  174SOPE  H18R19783   3.147   6.477   8.346 -0.8477  0.6297 -0.4793
  174SOPE  H18S19784   3.196   6.410   8.510 -0.9608  0.9576  1.1571
  174SOPE  H18T19785   3.290   6.543   8.435 -0.3191  0.3915  0.3685
  174SOPE   C3319786   4.057   6.414  10.137  0.3109 -0.3748 -0.2299
  174SOPE   H3X19787   4.142   6.349  10.166  0.0605 -0.2697  0.7616
  174SOPE   H3Y19788   4.089   6.521  10.143 -3.7335  1.0505 -1.0191
  174SOPE   C3419789   4.035   6.399   9.985 -0.1350  0.4036  1.0706
  174SOPE   H4X19790   3.967   6.314   9.963  0.4661  0.6354 -2.3426
  174SOPE   H4Y19791   4.128   6.375   9.928 -1.4949  0.1623 -1.1629
  174SOPE   C3519792   3.972   6.522   9.915  0.3344 -0.2917 -0.4762
  174SOPE   H5X19793   4.038   6.610   9.903 -2.5210  2.1619  0.6123
  174SOPE   H5Y19794   3.892   6.563   9.981  1.6025  0.9366  0.3459
  174SOPE   C3619795   3.912   6.483   9.781  0.6062  0.4534  0.4019
  174SOPE   H6X19796   3.833   6.553   9.747 -0.7185 -0.9176  0.5681
  174SOPE   H6Y19797   3.876   6.378   9.781  1.5442  0.0308 -2.7331
  174SOPE   C3719798   4.020   6.469   9.668  0.3651 -0.0651 -0.7378
  174SOPE   H7X19799   4.074   6.373   9.676 -0.0496 -0.1862  0.8868
  174SOPE   H7Y19800   4.097   6.549   9.667 -1.1913  1.5153 -0.5677
  174SOPE   C3819801   3.948   6.474   9.531  0.7498 -0.1765  0.5841
  174SOPE   H8X19802   3.907   6.576   9.512  0.3253 -0.5142 -0.4047
  174SOPE   H8Y19803   3.853   6.418   9.529 -1.1542  2.8238 -0.0747
  174SOPE   C3919804   4.045   6.444   9.417 -0.3367  0.2703 -0.0533
  174SOPE   H9X19805   4.097   6.351   9.448  1.3363 -0.1048 -3.4650
  174SOPE   H9Y19806   4.117   6.528   9.408 -0.6655  0.5643  0.0462
  174SOPE  C31019807   3.967   6.420   9.288  0.2001  0.0348  0.5625
  174SOPE  H10X19808   3.910   6.510   9.256  0.2758  0.5122  1.7282
  174SOPE  H10Y19809   3.893   6.339   9.309 -0.5069  1.0255  2.0566
  174SOPE  C31119810   4.052   6.362   9.174 -0.4602 -0.2049  0.5566
  174SOPE  H11X19811   4.108   6.266   9.185  2.5408  1.0899 -1.8683
  174SOPE  H11Y19812   4.142   6.425   9.155  0.6443 -1.1125  2.4174
  174SOPE  C31219813   3.969   6.353   9.042 -0.4097  0.2254 -0.1196
  174SOPE  H12X19814   3.918   6.451   9.045 -0.4427  0.1973  0.3342
  174SOPE  H12Y19815   3.884   6.282   9.049 -1.5368  1.3953 -1.3235
  174SOPE  C31319816   4.048   6.325   8.911 -0.3657 -0.0748 -0.4451
  174SOPE  H13X19817   4.093   6.225   8.928 -1.6441 -0.6764 -0.4798
  174SOPE  H13Y19818   4.124   6.405   8.896  0.3792 -0.3051  1.7776
  174SOPE  C31419819   3.967   6.309   8.782 -0.2296  0.0504  0.0790
  174SOPE  H14X19820   3.909   6.393   8.739 -2.3437 -2.0921 -1.5509
  174SOPE  H14Y19821   3.893   6.226   8.791 -0.2188  0.1366  1.1930
  174SOPE  C31519822   4.055   6.275   8.653 -0.2654  0.3487 -0.3707
  174SOPE  H15X19823   4.111   6.183   8.678 -1.9706 -0.1859  1.7846
  174SOPE  H15Y19824   4.129   6.358   8.643  1.4478 -0.6300  2.8199
  174SOPE  C31619825   3.981   6.257   8.513 -0.0662  0.0084  0.3173
  174SOPE  H16X19826   3.909   6.337   8.487  0.0157 -0.0440 -0.0718
  174SOPE  H16Y19827   3.920   6.166   8.525  0.8037 -0.5868  0.3134
  174SOPE  C31719828   4.085   6.238   8.393 -0.0399 -0.4293 -0.4927
  174SOPE  H17X19829   4.169   6.166   8.400  1.0521  0.9178  1.0728
  174SOPE  H17Y19830   4.144   6.333   8.395  0.9322 -1.0314  0.3917
  174SOPE  C31819831   4.016   6.225   8.263  1.0697  0.2941 -0.6141
  174SOPE  H18X19832   3.957   6.310   8.221  1.9828  0.3504 -1.8306
  174SOPE  H18Y19833   3.945   6.141   8.279  1.2670  0.2890  0.2857
  174SOPE  H18Z19834   4.097   6.207   8.190  1.0714  2.8522 -1.3397
  175SOPE     N19835   5.917   1.057  10.966 -0.3555 -0.4850 -0.8275
  175SOPE   HN119836   5.881   1.088  11.058  0.4956 -0.9182 -0.3439
  175SOPE   HN219837   5.840   1.059  10.895 -0.8967  0.6910 -0.2428
  175SOPE   HN319838   5.955   0.961  10.975  2.2206  0.4630 -0.5797
  175SOPE   C1219839   6.012   1.170  10.917 -0.2907  0.3403  0.2907
  175SOPE  H12A19840   6.103   1.162  10.979 -0.3502  1.2071  0.5111
  175SOPE  H12B19841   5.958   1.267  10.931 -0.7865 -0.1057  1.5813
  175SOPE   C1119842   6.053   1.155  10.767  0.4358  0.1405 -0.3588
  175SOPE  H11A19843   6.097   1.054  10.754 -0.4026 -0.3375  0.3299
  175SOPE  H11B19844   6.124   1.236  10.743 -0.2806  1.2239  1.0226
  175SOPE     P19845   5.898   1.287  10.607 -0.4142  0.0754  0.1079
  175SOPE   O1319846   5.864   1.390  10.706 -0.2238 -0.4173 -0.1021
  175SOPE   O1419847   5.798   1.258  10.498  0.1626 -0.3466 -0.8844
  175SOPE   O1219848   5.938   1.156  10.679  0.5048  0.9864 -0.1330
  175SOPE   O1119849   6.031   1.336  10.542 -0.0311  0.7542  0.0605
  175SOPE    C119850   6.097   1.254  10.441  0.0611 -0.9288  0.4552
  175SOPE    HA19851   6.046   1.156  10.431  0.2089 -1.0989  1.2628
  175SOPE    HB19852   6.196   1.222  10.478  0.8219  0.3396 -0.3805
  175SOPE    C219853   6.092   1.321  10.304 -0.2257 -0.1802 -0.3666
  175SOPE    HS19854   5.989   1.358  10.287 -0.4423 -1.1678 -1.3428
  175SOPE   O2119855   6.134   1.211  10.217  0.1209  0.4887 -0.0370
  175SOPE   C2119856   6.044   1.178  10.128  0.6344  0.2237 -0.0866
  175SOPE   O2219857   5.923   1.206  10.127  0.6385  0.0321  0.2493
  175SOPE   C2219858   6.121   1.102  10.014 -0.0872 -0.3685 -0.1549
  175SOPE   H2R19859   6.182   1.023  10.063 -0.9859 -0.1525  1.3802
  175SOPE   H2S19860   6.195   1.173   9.971  1.3742 -0.5650  1.8720
  175SOPE    C319861   6.177   1.449  10.284 -0.6227  0.0081  0.2232
  175SOPE    HX19862   6.284   1.431  10.308 -1.1754  0.6669  3.6358
  175SOPE    HY19863   6.160   1.523  10.366 -0.8505 -2.3731  2.4548
  175SOPE   O3119864   6.147   1.521  10.158  0.4268 -0.4752  0.2090
  175SOPE   C3119865   6.248   1.511  10.067 -0.2364  0.4931 -0.5632
  175SOPE   O3219866   6.360   1.477  10.096 -0.4031  0.7399 -0.4775
  175SOPE   C3219867   6.200   1.541   9.926 -0.8267  0.1741  0.1834
  175SOPE   H2X19868   6.284   1.595   9.879 -2.4217  0.7875 -2.1220
  175SOPE   H2Y19869   6.110   1.606   9.929 -1.7384 -1.0265 -0.0894
  175SOPE   C2319870   6.024   1.042   9.902  0.0845 -0.2386 -0.0682
  175SOPE   H3R19871   5.979   1.135   9.861 -0.4911 -0.1363  0.7737
  175SOPE   H3S19872   5.942   0.986   9.952 -1.3059  1.6098 -0.1517
  175SOPE   C2419873   6.091   0.952   9.789 -0.4363 -0.0761 -0.1639
  175SOPE   H4R19874   6.149   1.026   9.730 -0.4360  2.0352  2.3128
  175SOPE   H4S19875   6.160   0.891   9.851 -0.3049  0.2301 -0.0071
  175SOPE   C2519876   6.004   0.855   9.713 -0.2126  0.7440  0.3336
  175SOPE   H5R19877   5.926   0.810   9.780  0.3212  1.8309  1.7267
  175SOPE   H5S19878   5.956   0.909   9.629 -2.4072  0.3302  1.2431
  175SOPE   C2619879   6.087   0.743   9.655 -0.8563 -0.2205 -0.3903
  175SOPE   H6R19880   6.158   0.781   9.578 -0.4187  0.6023  0.4078
  175SOPE   H6S19881   6.150   0.706   9.738  1.1661  1.5025 -1.0621
  175SOPE   C2719882   5.997   0.642   9.585 -0.1201 -0.4005  0.1539
  175SOPE   H7R19883   5.935   0.595   9.664 -1.3839 -1.0205 -1.1478
  175SOPE   H7S19884   5.921   0.690   9.520  0.6367  0.8696  0.1844
  175SOPE   C2819885   6.078   0.543   9.504 -0.3101  0.5098  0.2318
  175SOPE   H8R19886   6.135   0.606   9.432  0.1281  1.5726  1.4678
  175SOPE   H8S19887   6.155   0.500   9.572 -0.8695 -2.3838 -0.8356
  175SOPE   C2919888   5.999   0.439   9.430  0.0132 -0.4056  0.2685
  175SOPE   H9119889   5.992   0.349   9.492  3.6336  0.0839  1.6502
  175SOPE  C21019890   5.964   0.447   9.305  0.0705  0.5870 -0.4026
  175SOPE  H10119891   5.921   0.354   9.265  2.6654 -0.8653 -0.0610
  175SOPE  C21119892   5.992   0.553   9.204 -0.1902 -0.2913 -0.1309
  175SOPE  H11R19893   6.095   0.555   9.161 -0.0724  0.0038  0.1639
  175SOPE  H11S19894   5.996   0.655   9.249  2.1534  0.4342 -1.7706
  175SOPE  C21219895   5.876   0.571   9.095 -0.1055 -0.0468 -0.1395
  175SOPE  H12R19896   5.894   0.657   9.027  1.6248 -0.7858 -0.6731
  175SOPE  H12S19897   5.781   0.587   9.149  0.1653 -2.2683  1.1064
  175SOPE  C21319898   5.852   0.447   9.010  0.2405  0.4784 -0.2237
  175SOPE  H13R19899   5.798   0.368   9.067 -0.4903  1.6982  0.8366
  175SOPE  H13S19900   5.956   0.416   8.990  0.9303  0.6950  2.5443
  175SOPE  C21419901   5.777   0.476   8.880 -0.0475  0.0063 -0.1805
  175SOPE  H14R19902   5.825   0.559   8.824 -0.5548 -0.6058 -1.5658
  175SOPE  H14S19903   5.674   0.513   8.895 -1.2048 -3.3754  1.1287
  175SOPE  C21519904   5.769   0.349   8.793 -0.3030  0.7045  0.2834
  175SOPE  H15R19905   5.710   0.267   8.838  1.3347 -1.3762 -1.1622
  175SOPE  H15S19906   5.873   0.310   8.787 -0.4720 -0.2939  2.7381
  175SOPE  C21619907   5.701   0.399   8.664  0.2257 -0.3375 -0.2534
  175SOPE  H16R19908   5.749   0.494   8.631  0.4994 -0.3370  0.1401
  175SOPE  H16S19909   5.595   0.424   8.687  0.4978  1.4793 -0.7748
  175SOPE  C21719910   5.698   0.288   8.555 -0.3628 -0.1730 -0.4462
  175SOPE  H17R19911   5.803   0.253   8.546 -0.2517 -0.6352  1.9785
  175SOPE  H17S19912   5.677   0.335   8.457 -0.9787  0.1299 -0.1771
  175SOPE  C21819913   5.597   0.185   8.578  0.0926  1.4847  0.0066
  175SOPE  H18R19914   5.619   0.109   8.500 -0.8867 -0.1805  1.2774
  175SOPE  H18S19915   5.496   0.219   8.547 -0.5518 -0.7115 -0.5373
  175SOPE  H18T19916   5.608   0.134   8.676 -0.2994  2.9286  0.8342
  175SOPE   C3319917   6.191   1.415   9.842  0.0333 -0.7359 -0.2977
  175SOPE   H3X19918   6.107   1.347   9.869  0.2969 -1.0512 -0.2732
  175SOPE   H3Y19919   6.275   1.343   9.839 -1.3130 -2.3466 -1.1764
  175SOPE   C3419920   6.168   1.452   9.692 -0.0616  0.0638 -0.0552
  175SOPE   H4X19921   6.259   1.504   9.654  0.3420  0.8910  1.9334
  175SOPE   H4Y19922   6.083   1.522   9.683 -0.3405 -0.2404  0.1682
  175SOPE   C3519923   6.145   1.332   9.595 -1.0141 -0.4569  0.6733
  175SOPE   H5X19924   6.042   1.296   9.617 -0.6436 -1.1703  1.2783
  175SOPE   H5Y19925   6.211   1.252   9.635  0.3288  0.6633  0.7755
  175SOPE   C3619926   6.163   1.358   9.450  0.3386  0.4793  0.4216
  175SOPE   H6X19927   6.257   1.414   9.430 -1.4588  2.8827 -1.9698
  175SOPE   H6Y19928   6.087   1.423   9.402  0.7805  0.1831 -0.7287
  175SOPE   C3719929   6.161   1.234   9.353  0.3542 -0.1796  0.0613
  175SOPE   H7X19930   6.264   1.192   9.347 -0.4358 -2.2721  0.3750
  175SOPE   H7Y19931   6.134   1.260   9.249 -0.6786 -2.2177 -0.2432
  175SOPE   C3819932   6.065   1.120   9.407 -0.5609  0.0422 -0.0235
  175SOPE   H8X19933   5.968   1.171   9.424 -0.1322  0.9785 -0.2923
  175SOPE   H8Y19934   6.102   1.083   9.505  1.4911  1.4323 -0.2055
  175SOPE   C3919935   6.039   0.999   9.307 -0.3785 -0.0902 -0.0034
  175SOPE   H9X19936   5.973   0.934   9.367  0.5756 -0.3749  0.7636
  175SOPE   H9Y19937   6.138   0.951   9.289 -0.1501 -0.0403  1.0945
  175SOPE  C31019938   5.961   1.028   9.177  0.0127 -0.4840  0.3886
  175SOPE  H10X19939   5.929   1.132   9.196  0.5125 -0.5134  1.5251
  175SOPE  H10Y19940   5.871   0.962   9.170 -0.9908  1.0170 -1.7781
  175SOPE  C31119941   6.036   1.026   9.045  0.3191 -0.2752 -0.7793
  175SOPE  H11X19942   6.027   0.925   8.999 -0.5062 -0.1052 -1.0076
  175SOPE  H11Y19943   6.144   1.051   9.051  0.4712 -0.4056 -2.4924
  175SOPE  C31219944   5.996   1.137   8.947  0.1715  0.1500  0.9781
  175SOPE  H12X19945   6.026   1.239   8.979  0.1945 -0.3131  2.5443
  175SOPE  H12Y19946   5.887   1.140   8.931  0.5454  0.9308 -1.9624
  175SOPE  C31319947   6.052   1.113   8.809 -0.3076  0.0718 -0.3092
  175SOPE  H13X19948   6.155   1.070   8.806 -1.1371 -1.9793 -0.8183
  175SOPE  H13Y19949   6.063   1.214   8.762 -1.7037  0.9746  1.2165
  175SOPE  C31419950   5.964   1.022   8.714  0.2919 -0.1029 -0.1402
  175SOPE  H14X19951   5.876   1.088   8.709  0.7386  0.5768  0.6858
  175SOPE  H14Y19952   5.922   0.933   8.765  1.2987 -0.2055  0.5420
  175SOPE  C31519953   6.017   1.002   8.575  0.3292  0.4361  0.3891
  175SOPE  H15X19954   6.050   1.101   8.537 -0.2701  0.1530 -0.9254
  175SOPE  H15Y19955   5.933   0.973   8.508 -0.1400  2.3254  0.1139
  175SOPE  C31619956   6.128   0.892   8.558  0.6027  0.2382 -0.4395
  175SOPE  H16X19957   6.087   0.790   8.573  0.2080  0.0443 -2.5150
  175SOPE  H16Y19958   6.203   0.908   8.638 -0.0297  3.2941 -0.3329
  175SOPE  C31719959   6.192   0.879   8.428  0.0590  0.3392  1.2658
  175SOPE  H17X19960   6.116   0.858   8.350 -1.5026 -1.1060  3.0908
  175SOPE  H17Y19961   6.264   0.794   8.432  0.5646  0.5899 -1.0203
  175SOPE  C31819962   6.255   1.008   8.392  0.3895 -0.3654 -0.0999
  175SOPE  H18X19963   6.334   0.991   8.317 -0.3667 -0.9795 -0.7779
  175SOPE  H18Y19964   6.294   1.059   8.483 -2.1433 -1.0423  1.4852
  175SOPE  H18Z19965   6.187   1.078   8.339 -0.4905 -1.2062 -0.1031
  176SOPE     N19966   4.093   1.895  10.706  0.2221 -0.2498 -0.6881
  176SOPE   HN119967   3.999   1.853  10.693  0.2814  0.2823 -3.2783
  176SOPE   HN219968   4.136   1.857  10.793 -1.2917 -1.0600 -0.2659
  176SOPE   HN319969   4.070   1.994  10.729 -1.5842 -0.6062 -0.8814
  176SOPE   C1219970   4.178   1.886  10.588  0.2140  0.1765  0.0219
  176SOPE  H12A19971   4.109   1.893  10.501 -2.0350  0.2227  1.7292
  176SOPE  H12B19972   4.219   1.783  10.598  0.5720  0.4091  1.0660
  176SOPE   C1119973   4.284   2.000  10.582 -0.1255 -0.0085  0.2498
  176SOPE  H11A19974   4.229   2.093  10.557  1.2593  0.6019 -0.5945
  176SOPE  H11B19975   4.356   1.980  10.500 -0.7608 -1.3213 -0.0239
  176SOPE     P19976   4.483   1.924  10.743  0.1234  0.1311  0.1253
  176SOPE   O1319977   4.431   1.785  10.761 -0.3536 -0.7230 -0.5092
  176SOPE   O1419978   4.559   1.981  10.863 -0.7995 -0.4945  0.0794
  176SOPE   O1219979   4.361   2.018  10.705 -0.2507  0.8161 -0.5246
  176SOPE   O1119980   4.580   1.932  10.607  0.0845  0.0192  0.2408
  176SOPE    C119981   4.689   1.840  10.599  0.0372 -0.5029 -0.8496
  176SOPE    HA19982   4.692   1.779  10.692 -0.1505  2.4687  1.2666
  176SOPE    HB19983   4.786   1.893  10.608  0.1982 -0.8030 -0.8335
  176SOPE    C219984   4.680   1.746  10.483  0.7800 -0.0567  1.4346
  176SOPE    HS19985   4.766   1.676  10.479  0.3894 -0.5164  1.0792
  176SOPE   O2119986   4.692   1.816  10.357 -0.0986  0.5391 -0.2579
  176SOPE   C2119987   4.791   1.908  10.344 -0.0871 -0.3602 -0.0845
  176SOPE   O2219988   4.894   1.917  10.406  0.2752 -0.0899 -0.0855
  176SOPE   C2219989   4.755   1.997  10.228  1.0610 -0.0263  0.3214
  176SOPE   H2R19990   4.671   2.065  10.253 -0.6241 -0.9650 -2.3006
  176SOPE   H2S19991   4.712   1.937  10.144  0.1223  0.3584  0.5154
  176SOPE    C319992   4.553   1.658  10.464 -0.0138  0.2317 -0.2398
  176SOPE    HX19993   4.460   1.713  10.486 -0.6102 -1.0433  0.5419
  176SOPE    HY19994   4.556   1.584  10.547  0.2763  0.4433 -0.0590
  176SOPE   O3119995   4.537   1.596  10.336  0.3059  0.2380 -0.0990
  176SOPE   C3119996   4.622   1.489  10.308 -0.2405 -0.2484  0.8557
  176SOPE   O3219997   4.694   1.434  10.386  0.5174 -0.0429 -0.1577
  176SOPE   C3219998   4.605   1.443  10.169 -0.9045  0.1720 -0.0334
  176SOPE   H2X19999   4.702   1.391  10.152 -0.5309  0.0562  2.1228
  176SOPE   H2Y20000   4.591   1.528  10.100 -0.3282 -0.4004 -0.8765
  176SOPE   C2320001   4.870   2.079  10.173  0.4270 -0.0783  0.8415
  176SOPE   H3R20002   4.956   2.012  10.152  1.5844  1.4129  0.6734
  176SOPE   H3S20003   4.904   2.153  10.248  0.6968  0.4200  0.2415
  176SOPE   C2420004   4.845   2.161  10.045 -0.1911  0.0819 -0.3603
  176SOPE   H4R20005   4.772   2.242  10.067 -0.2820  0.4232 -1.7871
  176SOPE   H4S20006   4.945   2.209  10.037 -0.4656  1.3293  2.4882
  176SOPE   C2520007   4.807   2.078   9.916 -0.3491 -0.1293  0.0324
  176SOPE   H5R20008   4.883   1.998   9.905 -0.2225  0.1335 -1.1964
  176SOPE   H5S20009   4.707   2.040   9.945 -0.6153  0.9551  0.6228
  176SOPE   C2620010   4.815   2.158   9.778 -0.6499  0.2361  0.5240
  176SOPE   H6R20011   4.757   2.252   9.785  0.1227  0.6905  0.9414
  176SOPE   H6S20012   4.917   2.196   9.757 -0.8084  0.7397  0.6536
  176SOPE   C2720013   4.759   2.069   9.662  0.2593 -0.3657 -0.2654
  176SOPE   H7R20014   4.821   1.977   9.656 -0.7886 -1.0344 -1.5194
  176SOPE   H7S20015   4.653   2.038   9.680 -0.1741  1.0003 -0.4064
  176SOPE   C2820016   4.777   2.135   9.518  0.0421  0.0492  0.1004
  176SOPE   H8R20017   4.725   2.233   9.523 -1.7234 -0.8768  1.1225
  176SOPE   H8S20018   4.883   2.168   9.509  0.0567 -0.4130 -1.8837
  176SOPE   C2920019   4.728   2.041   9.405 -0.4531  0.2333 -0.4210
  176SOPE   H9120020   4.741   1.939   9.442 -0.3321  0.9061  1.5387
  176SOPE  C21020021   4.683   2.077   9.283 -0.5714 -0.5893 -0.9453
  176SOPE  H10120022   4.664   2.003   9.205  1.5683  0.7341 -2.8508
  176SOPE  C21120023   4.659   2.215   9.241  0.3540  0.1014 -0.3909
  176SOPE  H11R20024   4.623   2.277   9.325  3.2463 -0.5533  1.4580
  176SOPE  H11S20025   4.570   2.211   9.174 -0.8310 -0.1328  1.1634
  176SOPE  C21220026   4.783   2.287   9.177  0.5977 -0.3061  0.2625
  176SOPE  H12R20027   4.861   2.276   9.256  0.0577  0.1661  0.8669
  176SOPE  H12S20028   4.737   2.387   9.161 -0.9531 -1.0071  0.1003
  176SOPE  C21320029   4.806   2.224   9.041  0.6021  0.2419 -0.4426
  176SOPE  H13R20030   4.707   2.201   8.997 -0.2985 -1.5366  2.2527
  176SOPE  H13S20031   4.860   2.129   9.058  0.7550  0.4889  0.5274
  176SOPE  C21420032   4.893   2.316   8.960 -0.1186 -0.3233  0.2888
  176SOPE  H14R20033   4.994   2.302   9.004 -0.4587 -0.8648  0.9310
  176SOPE  H14S20034   4.860   2.422   8.971 -1.8071 -0.6983 -0.8732
  176SOPE  C21520035   4.903   2.277   8.808  0.3015 -0.0561 -0.0073
  176SOPE  H15R20036   4.813   2.314   8.754  0.9424 -1.3049 -2.0315
  176SOPE  H15S20037   4.901   2.167   8.794 -3.3147 -0.2079  0.5615
  176SOPE  C21620038   5.033   2.318   8.752  0.3755  0.5857 -0.4733
  176SOPE  H16R20039   5.111   2.258   8.804 -0.7888 -1.9349 -1.4497
  176SOPE  H16S20040   5.035   2.427   8.772 -0.8465 -0.0111  4.3551
  176SOPE  C21720041   5.052   2.283   8.603  0.6995 -0.1742  0.1037
  176SOPE  H17R20042   5.083   2.176   8.606  0.7557 -0.1704  3.1440
  176SOPE  H17S20043   5.136   2.344   8.566  0.4429  0.8473  1.1533
  176SOPE  C21820044   4.930   2.305   8.513 -0.2035  0.3694  0.0407
  176SOPE  H18R20045   4.966   2.279   8.411 -1.1545  0.1909 -0.2529
  176SOPE  H18S20046   4.894   2.410   8.518  1.3464  0.9287  0.0233
  176SOPE  H18T20047   4.849   2.236   8.545  0.9748 -0.4307  1.4171
  176SOPE   C3320048   4.493   1.334  10.141  0.2715 -0.9426 -0.0252
  176SOPE   H3X20049   4.407   1.381  10.194  0.0325 -0.9133 -0.4374
  176SOPE   H3Y20050   4.520   1.236  10.185 -1.4393 -1.0247  0.9188
  176SOPE   C3420051   4.455   1.333   9.997  0.5684  0.7329 -0.2654
  176SOPE   H4X20052   4.416   1.429   9.958 -2.3799  0.0302  0.7296
  176SOPE   H4Y20053   4.375   1.259   9.974  3.4418 -2.9033  0.4728
  176SOPE   C3520054   4.569   1.282   9.908  0.4173  1.4691  0.5055
  176SOPE   H5X20055   4.616   1.195   9.959 -1.3393  0.4350  0.4545
  176SOPE   H5Y20056   4.648   1.360   9.906  0.0921  2.0325  3.6080
  176SOPE   C3620057   4.531   1.212   9.775 -0.8366 -0.6956 -0.5418
  176SOPE   H6X20058   4.426   1.179   9.787 -0.6066 -1.0679  0.5964
  176SOPE   H6Y20059   4.595   1.121   9.770 -2.0288 -1.8156  2.3574
  176SOPE   C3720060   4.569   1.298   9.655  0.4380  0.3730  0.4482
  176SOPE   H7X20061   4.675   1.277   9.627 -0.1178 -3.6032  0.7322
  176SOPE   H7Y20062   4.551   1.403   9.685 -3.5298 -0.6022  2.0815
  176SOPE   C3820063   4.480   1.262   9.533 -0.8200  0.1610  0.0693
  176SOPE   H8X20064   4.381   1.313   9.536 -0.8813  0.0568 -0.1964
  176SOPE   H8Y20065   4.459   1.153   9.543  0.8734 -0.3699 -1.5741
  176SOPE   C3920066   4.547   1.288   9.405 -0.2066  0.7522  0.4521
  176SOPE   H9X20067   4.639   1.229   9.385  0.1496  1.0814  1.0896
  176SOPE   H9Y20068   4.579   1.395   9.409  0.1381  1.1800 -5.3156
  176SOPE  C31020069   4.459   1.274   9.282  0.5749  0.5542 -0.0346
  176SOPE  H10X20070   4.364   1.329   9.297  1.3582  2.1751 -0.7453
  176SOPE  H10Y20071   4.443   1.164   9.271  1.7975  0.3628 -0.0080
  176SOPE  C31120072   4.523   1.329   9.150  0.1930  0.0168 -0.2383
  176SOPE  H11X20073   4.614   1.279   9.113 -1.5845 -1.6311 -2.6664
  176SOPE  H11Y20074   4.542   1.438   9.156 -0.7570  0.1452  0.7402
  176SOPE  C31220075   4.414   1.315   9.039 -0.3010 -0.4139  0.4367
  176SOPE  H12X20076   4.324   1.374   9.065 -1.5980 -1.3401 -1.6935
  176SOPE  H12Y20077   4.385   1.208   9.033  1.0412 -0.7368 -1.1822
  176SOPE  C31320078   4.463   1.338   8.898 -0.3554 -0.0288 -0.0256
  176SOPE  H13X20079   4.562   1.292   8.884  0.1371  1.5202 -2.1207
  176SOPE  H13Y20080   4.490   1.446   8.889  0.8536 -0.2264  0.9543
  176SOPE  C31420081   4.363   1.300   8.792  0.7423  0.2543 -0.4935
  176SOPE  H14X20082   4.281   1.375   8.789 -0.3346 -0.9064 -1.6333
  176SOPE  H14Y20083   4.319   1.199   8.807  0.3610  0.7424  1.9579
  176SOPE  C31520084   4.431   1.296   8.654 -0.3113 -0.3235 -0.2254
  176SOPE  H15X20085   4.501   1.211   8.645 -0.3021 -0.2507 -0.9035
  176SOPE  H15Y20086   4.488   1.391   8.658 -0.9645  0.0465  0.7121
  176SOPE  C31620087   4.323   1.296   8.543 -0.0709 -0.6606 -0.6346
  176SOPE  H16X20088   4.379   1.312   8.448 -0.3176  0.4784 -0.6086
  176SOPE  H16Y20089   4.258   1.386   8.546  0.3158 -0.3817 -0.3960
  176SOPE  C31720090   4.232   1.166   8.535  0.3940  0.2415  0.1548
  176SOPE  H17X20091   4.175   1.159   8.630 -1.1573  2.7226 -0.4883
  176SOPE  H17Y20092   4.294   1.075   8.524 -0.5155 -0.5934  1.6255
  176SOPE  C31820093   4.128   1.164   8.413 -0.2188 -0.4827 -0.0142
  176SOPE  H18X20094   4.089   1.061   8.401  1.9633 -1.3133 -0.4534
  176SOPE  H18Y20095   4.172   1.204   8.319 -0.6291  2.1323  0.8260
  176SOPE  H18Z20096   4.039   1.226   8.434  1.1237  1.1411  1.1464
  177SOPE     N20097   3.170   5.526  10.803 -0.3339  0.5442 -0.6410
  177SOPE   HN120098   3.223   5.615  10.809 -0.6301  0.6231  2.1620
  177SOPE   HN220099   3.230   5.463  10.745 -1.6059 -3.2205  1.7631
  177SOPE   HN320100   3.082   5.545  10.750  0.4721  3.1383 -1.1642
  177SOPE   C1220101   3.159   5.475  10.946  0.2442 -0.0617 -0.4279
  177SOPE  H12A20102   3.057   5.486  10.986  0.8960  1.2666  0.9578
  177SOPE  H12B20103   3.229   5.533  11.011  0.1633  0.2237 -0.5969
  177SOPE   C1120104   3.202   5.325  10.953 -0.0951 -0.2896 -0.4744
  177SOPE  H11A20105   3.175   5.294  11.057 -0.8459 -0.5374 -0.7341
  177SOPE  H11B20106   3.310   5.311  10.934  0.4335  1.3988  0.9559
  177SOPE     P20107   3.137   5.090  10.878  0.2757  0.2980 -0.3618
  177SOPE   O1320108   3.005   5.034  10.904 -0.2855  0.3147  0.6313
  177SOPE   O1420109   3.240   5.054  10.976  0.2038 -0.4301 -0.5303
  177SOPE   O1220110   3.129   5.249  10.850  0.5001 -0.0684 -0.1616
  177SOPE   O1120111   3.173   5.020  10.736  0.5463 -0.4159  0.4289
  177SOPE    C120112   3.170   5.102  10.622  0.2017 -1.1152 -0.0327
  177SOPE    HA20113   3.253   5.175  10.616 -0.4280 -0.3841  0.0156
  177SOPE    HB20114   3.075   5.158  10.610 -0.0549 -1.4960  0.2283
  177SOPE    C220115   3.190   5.010  10.494  0.0632 -0.6280 -0.0991
  177SOPE    HS20116   3.125   4.923  10.518 -1.5785  0.3782 -0.6813
  177SOPE   O2120117   3.324   4.979  10.471 -0.3486 -0.5721 -0.2201
  177SOPE   C2120118   3.346   4.864  10.407  0.0720 -0.1261  0.2832
  177SOPE   O2220119   3.259   4.786  10.370  0.0275  0.0083 -0.1599
  177SOPE   C2220120   3.494   4.841  10.385 -0.0764 -0.2547  0.4873
  177SOPE   H2R20121   3.534   4.777  10.467  2.3684 -1.2076 -1.3139
  177SOPE   H2S20122   3.550   4.937  10.381  3.2836 -2.0035  1.2024
  177SOPE    C320123   3.105   5.071  10.373 -0.2375  0.7002  0.4245
  177SOPE    HX20124   3.146   5.172  10.352 -1.7770  0.9882 -1.6232
  177SOPE    HY20125   3.002   5.098  10.405 -0.0537 -0.6646  2.2581
  177SOPE   O3120126   3.119   4.985  10.254  0.2264  0.2958  0.5790
  177SOPE   C3120127   3.016   4.902  10.238  1.2000 -0.2357  0.1763
  177SOPE   O3220128   2.925   4.881  10.320 -0.4546  0.0117 -0.1333
  177SOPE   C3220129   3.030   4.822  10.108  0.1320  0.3347 -0.0032
  177SOPE   H2X20130   2.940   4.760  10.090 -0.8732  2.1531 -1.7377
  177SOPE   H2Y20131   3.125   4.764  10.110  0.5999  0.7488 -3.3713
  177SOPE   C2320132   3.517   4.764  10.256  0.3552  0.0656  0.4667
  177SOPE   H3R20133   3.470   4.664  10.253 -0.0550  0.2841 -1.3498
  177SOPE   H3S20134   3.623   4.731  10.249 -0.4928 -2.3993 -1.8404
  177SOPE   C2420135   3.482   4.839  10.123  0.0826  0.3743 -0.8178
  177SOPE   H4R20136   3.375   4.865  10.112  0.3673  1.4317 -1.2111
  177SOPE   H4S20137   3.533   4.937  10.109  0.1507  0.3144 -0.9913
  177SOPE   C2520138   3.497   4.753   9.998 -0.1730 -0.6118  0.4434
  177SOPE   H5R20139   3.602   4.753   9.961 -0.6782 -0.1755 -1.0726
  177SOPE   H5S20140   3.467   4.650  10.026  0.3853 -1.3159 -1.4467
  177SOPE   C2620141   3.416   4.795   9.871 -0.0778 -0.1242 -0.0283
  177SOPE   H6R20142   3.313   4.758   9.888  0.1626 -1.2713 -0.9240
  177SOPE   H6S20143   3.411   4.906   9.864  1.0478 -0.1601 -2.3692
  177SOPE   C2720144   3.475   4.746   9.734  0.1382  0.2487  0.4955
  177SOPE   H7R20145   3.583   4.768   9.720  0.5788 -2.4534 -1.2867
  177SOPE   H7S20146   3.482   4.635   9.731  1.3207  0.3239 -1.0704
  177SOPE   C2820147   3.393   4.796   9.613  1.3549  0.1424 -0.5062
  177SOPE   H8R20148   3.289   4.761   9.629  2.7756 -3.8639  1.4162
  177SOPE   H8S20149   3.390   4.906   9.597 -0.5424 -0.0567 -1.8420
  177SOPE   C2920150   3.437   4.746   9.479 -0.5739 -0.4612  0.3736
  177SOPE   H9120151   3.536   4.699   9.471  0.1451  1.2645 -2.6686
  177SOPE  C21020152   3.366   4.749   9.363  0.4527 -0.8103  0.9319
  177SOPE  H10120153   3.410   4.714   9.269 -0.1543 -2.4889  1.2318
  177SOPE  C21120154   3.228   4.814   9.347  0.1948 -0.2696  1.1919
  177SOPE  H11R20155   3.182   4.832   9.447 -2.2480  2.1683 -0.2109
  177SOPE  H11S20156   3.167   4.751   9.279  1.0405  0.3797 -0.2036
  177SOPE  C21220157   3.259   4.955   9.282  0.2774 -0.3791 -0.1652
  177SOPE  H12R20158   3.300   5.019   9.364 -2.6369 -0.6260  1.6451
  177SOPE  H12S20159   3.163   4.999   9.246 -1.3096 -1.8831  1.9467
  177SOPE  C21320160   3.348   4.961   9.151 -0.4049  0.5088  0.1553
  177SOPE  H13R20161   3.443   4.906   9.162 -1.7598 -1.7326  1.3922
  177SOPE  H13S20162   3.376   5.062   9.113 -1.3345  0.4992 -0.6075
  177SOPE  C21420163   3.293   4.868   9.041  1.1467 -0.3133  0.2867
  177SOPE  H14R20164   3.189   4.896   9.012  1.2649  1.0531  1.0642
  177SOPE  H14S20165   3.285   4.766   9.083  0.0973 -0.1313  0.5545
  177SOPE  C21520166   3.378   4.861   8.908  0.4473  0.6477  0.3051
  177SOPE  H15R20167   3.465   4.796   8.935  1.4739  1.3101 -1.2126
  177SOPE  H15S20168   3.434   4.952   8.875  1.0095  0.5298  0.9085
  177SOPE  C21620169   3.307   4.805   8.783 -0.4380  0.0931  0.0273
  177SOPE  H16R20170   3.386   4.790   8.707 -2.2512  0.6404 -2.0803
  177SOPE  H16S20171   3.235   4.880   8.742 -0.4498 -0.2062 -0.5085
  177SOPE  C21720172   3.240   4.671   8.801 -0.2068 -0.0381 -0.2693
  177SOPE  H17R20173   3.130   4.682   8.818 -0.2321 -1.4166  0.6360
  177SOPE  H17S20174   3.287   4.615   8.885 -0.4672  0.7198  0.3947
  177SOPE  C21820175   3.245   4.579   8.686  0.3413 -0.2816  0.3521
  177SOPE  H18R20176   3.343   4.531   8.668  0.1938 -1.0207  1.3711
  177SOPE  H18S20177   3.217   4.632   8.593  3.2728  1.5277  0.4048
  177SOPE  H18T20178   3.163   4.504   8.696 -1.1901  1.2433 -0.2750
  177SOPE   C3320179   3.046   4.912   9.986 -0.6668  0.6133  0.4629
  177SOPE   H3X20180   3.098   4.857   9.904 -1.3653 -1.5235  1.3871
  177SOPE   H3Y20181   3.114   4.998  10.001  0.3753 -0.3034  1.2343
  177SOPE   C3420182   2.911   4.965   9.933 -0.5686 -0.3253  0.3429
  177SOPE   H4X20183   2.882   5.030  10.018 -1.6215 -0.2843 -0.0339
  177SOPE   H4Y20184   2.839   4.881   9.920 -0.9273  0.1187 -0.5677
  177SOPE   C3520185   2.932   5.052   9.806 -0.3954 -0.1948  0.0361
  177SOPE   H5X20186   3.037   5.089   9.797 -1.0707  1.2746 -4.0032
  177SOPE   H5Y20187   2.864   5.139   9.798 -0.9758 -0.4818  1.5216
  177SOPE   C3620188   2.928   4.962   9.683 -0.1305  0.1323  0.2712
  177SOPE   H6X20189   2.846   4.888   9.692  0.2664 -0.6174 -1.7074
  177SOPE   H6Y20190   3.027   4.915   9.664 -0.4195 -0.8928  1.2158
  177SOPE   C3720191   2.905   5.051   9.553  0.2592 -0.5579  0.3466
  177SOPE   H7X20192   2.995   5.114   9.538 -0.2415  0.1699  0.3557
  177SOPE   H7Y20193   2.817   5.116   9.568  0.1977 -0.7563  0.8810
  177SOPE   C3820194   2.902   4.969   9.422  0.0373  0.4534  0.4295
  177SOPE   H8X20195   2.816   4.898   9.422  1.2651 -1.1125  1.8153
  177SOPE   H8Y20196   2.993   4.906   9.424  1.3192  2.1715 -0.6456
  177SOPE   C3920197   2.895   5.051   9.296  0.3719 -0.6755  0.6904
  177SOPE   H9X20198   2.991   5.106   9.299 -0.9112  1.6723  1.3805
  177SOPE   H9Y20199   2.807   5.118   9.307 -1.8446 -3.2209 -0.2860
  177SOPE  C31020200   2.875   4.989   9.159  0.2100  0.4062 -0.1183
  177SOPE  H10X20201   2.955   4.917   9.134 -0.4346  0.1068 -1.4144
  177SOPE  H10Y20202   2.892   5.068   9.083  2.1127  0.3441  0.2105
  177SOPE  C31120203   2.734   4.933   9.134  0.4131  0.2056 -0.6507
  177SOPE  H11X20204   2.668   5.019   9.110 -2.3706 -1.5924  0.1048
  177SOPE  H11Y20205   2.694   4.890   9.228  2.3467 -1.3743 -0.4742
  177SOPE  C31220206   2.714   4.827   9.021 -0.6350  0.5763  0.0089
  177SOPE  H12X20207   2.635   4.757   9.055  0.7924 -1.2999 -0.3211
  177SOPE  H12Y20208   2.810   4.772   9.006  0.2540  2.2741 -0.8383
  177SOPE  C31320209   2.678   4.896   8.889 -0.6664 -1.0093 -0.7183
  177SOPE  H13X20210   2.765   4.963   8.874 -1.8497  0.1821 -2.7163
  177SOPE  H13Y20211   2.592   4.964   8.908  0.3817 -0.2995  1.9301
  177SOPE  C31420212   2.646   4.803   8.768 -0.2577 -1.0752 -0.1290
  177SOPE  H14X20213   2.589   4.715   8.804  1.1806 -1.1028  2.2499
  177SOPE  H14Y20214   2.741   4.760   8.730 -1.5993 -2.1394 -2.5168
  177SOPE  C31520215   2.573   4.875   8.658 -0.0808 -0.5147 -0.0711
  177SOPE  H15X20216   2.622   4.970   8.631  0.9075 -0.6605  1.1443
  177SOPE  H15Y20217   2.479   4.891   8.715 -0.5187 -0.1393 -0.8798
  177SOPE  C31620218   2.543   4.800   8.528  0.4302 -0.2056  0.5729
  177SOPE  H16X20219   2.548   4.690   8.540  0.6470 -0.1402  1.1454
  177SOPE  H16Y20220   2.624   4.819   8.455  1.9257  1.6581  2.5544
  177SOPE  C31720221   2.410   4.833   8.475  0.9215  0.0772  0.2231
  177SOPE  H17X20222   2.421   4.940   8.451 -1.4863  0.2788 -0.1946
  177SOPE  H17Y20223   2.336   4.828   8.558  1.1076  2.2913  0.5763
  177SOPE  C31820224   2.370   4.761   8.344 -0.7324  0.5257 -0.3170
  177SOPE  H18X20225   2.384   4.653   8.362 -1.3084  0.3818 -0.7073
  177SOPE  H18Y20226   2.423   4.794   8.253 -0.6432  0.0075 -0.4532
  177SOPE  H18Z20227   2.260   4.760   8.335 -0.9050  1.4624  1.2010
  178SOPE     N20228   0.726   4.478  11.113 -0.1067  0.0769 -0.1527
  178SOPE   HN120229   0.688   4.450  11.206  1.1029 -0.1655  0.2806
  178SOPE   HN220230   0.794   4.401  11.097 -0.8001 -0.6582  0.3662
  178SOPE   HN320231   0.778   4.567  11.122 -1.1772  0.8225 -1.0709
  178SOPE   C1220232   0.617   4.493  11.009  0.2167 -0.5069 -0.2371
  178SOPE  H12A20233   0.569   4.592  11.025  0.6091 -0.0646 -1.6940
  178SOPE  H12B20234   0.547   4.408  11.023  0.5542 -1.3786 -3.2032
  178SOPE   C1120235   0.676   4.482  10.863  0.7766  0.1621  0.0072
  178SOPE  H11A20236   0.785   4.502  10.861  1.0279 -0.8200  1.6225
  178SOPE  H11B20237   0.625   4.561  10.804 -2.2880 -2.3120 -0.9635
  178SOPE     P20238   0.760   4.265  10.753  0.0845 -0.1392  0.3830
  178SOPE   O1320239   0.703   4.131  10.732 -0.5221 -0.5061  0.4789
  178SOPE   O1420240   0.879   4.268  10.840  0.7144  0.2237  0.1062
  178SOPE   O1220241   0.645   4.353  10.806  0.5611  0.3079 -0.0864
  178SOPE   O1120242   0.811   4.334  10.618 -0.0791 -0.1074 -0.2279
  178SOPE    C120243   0.711   4.375  10.515  0.3948 -0.4068 -0.0924
  178SOPE    HA20244   0.753   4.471  10.481 -0.2717  0.5767  1.7292
  178SOPE    HB20245   0.605   4.390  10.545  0.1818 -0.5873 -0.7298
  178SOPE    C220246   0.714   4.267  10.410  0.6517 -0.6137  1.0519
  178SOPE    HS20247   0.675   4.171  10.450  0.7170 -0.8664  0.5198
  178SOPE   O2120248   0.848   4.258  10.365 -0.1038 -0.1491  0.7678
  178SOPE   C2120249   0.891   4.142  10.320 -0.5810  0.2094 -0.0673
  178SOPE   O2220250   0.834   4.033  10.326 -0.5143  0.6792  0.2047
  178SOPE   C2220251   1.027   4.173  10.247  0.2144  0.6237 -0.5020
  178SOPE   H2R20252   1.094   4.110  10.309  1.0660  1.5082 -0.5166
  178SOPE   H2S20253   1.039   4.282  10.263  1.1428  0.2247  1.8433
  178SOPE    C320254   0.631   4.312  10.274  0.7426  0.6816 -0.1008
  178SOPE    HX20255   0.683   4.408  10.251 -1.2250  2.0964  0.9744
  178SOPE    HY20256   0.528   4.337  10.307  0.5899 -0.4698  0.3276
  178SOPE   O3120257   0.640   4.215  10.163  0.5236 -0.3470 -0.8935
  178SOPE   C3120258   0.545   4.128  10.172 -0.1038 -0.3351  0.0971
  178SOPE   O3220259   0.472   4.110  10.266 -0.2539 -0.2817 -1.0412
  178SOPE   C3220260   0.574   4.020  10.066 -0.9946 -0.0903  0.3571
  178SOPE   H2X20261   0.648   3.944  10.099 -1.6903 -0.4667  1.1132
  178SOPE   H2Y20262   0.603   4.064   9.969  1.6053 -0.1268  1.0576
  178SOPE   C2320263   1.044   4.115  10.106  0.0332  0.4326 -0.4911
  178SOPE   H3R20264   0.995   4.016  10.095 -0.3239  0.4484  0.8118
  178SOPE   H3S20265   1.153   4.107  10.083  0.0473 -1.5058  0.0466
  178SOPE   C2420266   0.993   4.208   9.992 -0.7539 -0.4743  0.9141
  178SOPE   H4R20267   0.896   4.261  10.008 -0.6422  0.0985 -0.2403
  178SOPE   H4S20268   1.074   4.281   9.973 -2.2700  1.1392  0.4319
  178SOPE   C2520269   0.991   4.121   9.864 -0.8496  0.8616 -0.6665
  178SOPE   H5R20270   1.090   4.077   9.840  0.1549  1.1425  2.5474
  178SOPE   H5S20271   0.913   4.043   9.873  1.7551 -2.0485 -1.3736
  178SOPE   C2620272   0.949   4.205   9.742 -0.3912  0.5981 -0.0280
  178SOPE   H6R20273   0.874   4.282   9.772 -3.1714 -1.9598  0.1553
  178SOPE   H6S20274   1.041   4.254   9.704 -1.0112  2.3684  0.6204
  178SOPE   C2720275   0.894   4.120   9.631 -0.2372 -0.1763 -0.1263
  178SOPE   H7R20276   0.963   4.034   9.623  0.5991  0.3362  1.3470
  178SOPE   H7S20277   0.798   4.067   9.648 -0.6170  0.1687 -1.1093
  178SOPE   C2820278   0.883   4.199   9.500  0.3418  0.0346  0.1773
  178SOPE   H8R20279   0.985   4.242   9.493 -0.1317  0.9115 -2.3290
  178SOPE   H8S20280   0.871   4.129   9.414 -0.6889  1.6961 -1.1073
  178SOPE   C2920281   0.768   4.302   9.493  0.2141 -0.2026  0.1793
  178SOPE   H9120282   0.672   4.253   9.515  0.4743 -0.0399  1.7657
  178SOPE  C21020283   0.786   4.434   9.492 -0.0238 -0.4827  0.8401
  178SOPE  H10120284   0.702   4.505   9.483  1.8911  1.6318 -2.6500
  178SOPE  C21120285   0.909   4.517   9.483  0.7621 -0.1485 -0.6046
  178SOPE  H11R20286   0.988   4.470   9.421  0.3468 -0.5421 -0.8412
  178SOPE  H11S20287   0.962   4.516   9.581  0.6818  0.1577 -0.5559
  178SOPE  C21220288   0.890   4.657   9.425 -0.3209 -0.2382  0.2723
  178SOPE  H12R20289   0.802   4.710   9.465  0.4609 -0.2875  2.1308
  178SOPE  H12S20290   0.871   4.645   9.316  1.1090 -0.6154  0.0330
  178SOPE  C21320291   1.021   4.743   9.433 -0.1857 -0.4923  0.1157
  178SOPE  H13R20292   1.108   4.694   9.384 -0.1817  1.3057 -1.7908
  178SOPE  H13S20293   1.040   4.753   9.542 -1.3795  1.3719  0.2023
  178SOPE  C21420294   0.990   4.889   9.372  0.2635  0.0060 -0.8092
  178SOPE  H14R20295   0.923   4.944   9.441  0.8350 -1.0743  0.6583
  178SOPE  H14S20296   0.940   4.880   9.273 -0.5401 -2.2890 -0.2560
  178SOPE  C21520297   1.116   4.965   9.330  0.1009  0.0106 -0.0668
  178SOPE  H15R20298   1.081   5.055   9.275 -0.9207 -0.1317  0.3280
  178SOPE  H15S20299   1.168   4.904   9.253 -2.5214 -2.4671 -0.0346
  178SOPE  C21620300   1.202   5.000   9.450  0.2268  0.0096  0.2070
  178SOPE  H16R20301   1.306   5.030   9.422 -0.0522 -0.3652 -1.3060
  178SOPE  H16S20302   1.218   4.916   9.521 -1.3937 -0.9992 -0.5566
  178SOPE  C21720303   1.144   5.125   9.529  0.3046 -0.2488 -0.3534
  178SOPE  H17R20304   1.065   5.086   9.598 -0.0910  1.9149  0.5061
  178SOPE  H17S20305   1.096   5.195   9.457 -0.7491  0.7893  1.2850
  178SOPE  C21820306   1.248   5.205   9.610 -0.1421 -0.2809 -0.3481
  178SOPE  H18R20307   1.216   5.307   9.639 -1.6165 -0.5917 -0.8153
  178SOPE  H18S20308   1.342   5.215   9.552  0.7481  0.3460  1.1198
  178SOPE  H18T20309   1.271   5.137   9.695  0.4928 -0.0640 -0.3437
  178SOPE   C3320310   0.451   3.924  10.045 -0.2379  0.4242 -0.0765
  178SOPE   H3X20311   0.402   3.894  10.140  0.8369  3.0520  1.4091
  178SOPE   H3Y20312   0.507   3.832  10.016 -0.0874  0.1616  1.0135
  178SOPE   C3420313   0.364   3.981   9.929 -0.2183 -0.7422  0.0177
  178SOPE   H4X20314   0.426   3.985   9.837 -0.4232  0.0693 -0.0963
  178SOPE   H4Y20315   0.349   4.090   9.947  2.7611 -0.2268 -0.0846
  178SOPE   C3520316   0.235   3.913   9.888 -0.7081  0.1898  0.2588
  178SOPE   H5X20317   0.272   3.813   9.858  0.7073  1.0942 -1.1848
  178SOPE   H5Y20318   0.178   3.963   9.806 -1.5653 -0.4896  0.4308
  178SOPE   C3620319   0.135   3.890   9.998  0.2969 -0.5325 -0.1970
  178SOPE   H6X20320   0.103   3.996  10.013  1.0577 -0.2301 -0.6313
  178SOPE   H6Y20321   0.191   3.858  10.089 -1.1695  2.3483  1.8963
  178SOPE   C3720322   0.022   3.802   9.953  0.2997 -0.0800  0.6253
  178SOPE   H7X20323  -0.058   3.786  10.029  0.8891 -2.7030  0.7995
  178SOPE   H7Y20324   0.067   3.701   9.951 -1.9315 -1.1842  2.1705
  178SOPE   C3820325  -0.041   3.825   9.813  1.1050  0.0858 -0.0748
  178SOPE   H8X20326  -0.035   3.933   9.787 -3.0625  0.4250 -0.3211
  178SOPE   H8Y20327  -0.149   3.809   9.830  1.1137  2.8905  3.9879
  178SOPE   C3920328   0.015   3.737   9.694  1.0421  0.5218 -1.2043
  178SOPE   H9X20329  -0.020   3.632   9.705  0.7146  0.7448  0.0792
  178SOPE   H9Y20330   0.126   3.733   9.695  1.0968  1.6061 -1.0303
  178SOPE  C31020331  -0.035   3.790   9.555 -0.0979 -0.1362 -0.5383
  178SOPE  H10X20332  -0.144   3.808   9.564  0.1230  1.0659 -0.1733
  178SOPE  H10Y20333  -0.018   3.702   9.489 -0.2502  0.7751 -1.8237
  178SOPE  C31120334   0.033   3.921   9.514 -0.2611 -0.1444  0.0060
  178SOPE  H11X20335   0.143   3.917   9.531 -0.0487  0.7053 -1.0168
  178SOPE  H11Y20336   0.006   4.011   9.573  0.0774  0.4955 -0.7881
  178SOPE  C31220337   0.014   3.959   9.364 -0.1686 -0.3210  0.1643
  178SOPE  H12X20338   0.081   4.046   9.345 -1.0558  0.9713  2.4940
  178SOPE  H12Y20339  -0.089   3.995   9.346 -0.8940 -3.4539 -3.0097
  178SOPE  C31320340   0.035   3.846   9.264  0.1159 -0.8267  0.7164
  178SOPE  H13X20341  -0.054   3.781   9.282 -2.2907  1.0985 -2.8892
  178SOPE  H13Y20342   0.130   3.792   9.282 -0.5162 -2.0298  0.5445
  178SOPE  C31420343   0.021   3.887   9.118  0.4149 -0.0884 -0.1929
  178SOPE  H14X20344  -0.069   3.952   9.109  0.2338 -0.4710 -1.3115
  178SOPE  H14Y20345  -0.001   3.804   9.047 -2.0775 -1.1861  1.6833
  178SOPE  C31520346   0.146   3.973   9.068 -0.3937  0.7074 -0.4922
  178SOPE  H15X20347   0.237   3.913   9.090 -0.2927  1.4033  1.1518
  178SOPE  H15Y20348   0.163   4.068   9.123  0.1975  0.6560 -0.5796
  178SOPE  C31620349   0.128   3.992   8.914 -0.2038 -0.2622  0.6740
  178SOPE  H16X20350   0.046   4.066   8.898  1.2614  1.3113  0.0607
  178SOPE  H16Y20351   0.095   3.898   8.866  0.5420  0.9850 -2.5667
  178SOPE  C31720352   0.257   4.035   8.838  0.7918  0.5948  0.1008
  178SOPE  H17X20353   0.337   3.963   8.863  0.6254  0.2963 -0.2237
  178SOPE  H17Y20354   0.293   4.137   8.865 -0.5362  1.3541 -0.8399
  178SOPE  C31820355   0.229   4.048   8.690  0.5622  0.1339 -0.0310
  178SOPE  H18X20356   0.159   3.968   8.656 -0.8273  0.7469  1.2537
  178SOPE  H18Y20357   0.327   4.038   8.638  0.8662  2.0117  0.1130
  178SOPE  H18Z20358   0.180   4.145   8.668 -1.5642 -0.8867  0.0114
  179SOPE     N20359   6.767   5.138   6.553 -0.4767  0.2440  0.6660
  179SOPE   HN120360   6.745   5.107   6.456 -1.3532 -0.6045  1.1208
  179SOPE   HN220361   6.687   5.124   6.618 -0.1130  2.3224  1.6648
  179SOPE   HN320362   6.803   5.236   6.564  0.2583 -0.0838  1.2841
  179SOPE   C1220363   6.873   5.058   6.614 -0.5200 -0.1593 -0.1422
  179SOPE  H12A20364   6.852   4.950   6.594  0.6373 -0.8393  1.9936
  179SOPE  H12B20365   6.878   5.074   6.723 -0.9229  2.2485 -0.4261
  179SOPE   C1120366   7.004   5.095   6.549 -0.4965  0.4678 -0.1203
  179SOPE  H11A20367   6.998   5.057   6.444 -2.2715 -0.6968  0.3659
  179SOPE  H11B20368   7.092   5.050   6.600 -1.8586 -0.7946  1.2200
  179SOPE     P20369   7.106   5.328   6.642  0.0611  0.2695 -0.0859
  179SOPE   O1320370   7.076   5.467   6.613 -0.3370 -0.7139  0.6944
  179SOPE   O1420371   7.244   5.276   6.626  0.7657 -0.2222 -0.2561
  179SOPE   O1220372   7.017   5.237   6.548 -0.4570  0.0463  0.3261
  179SOPE   O1120373   7.040   5.268   6.775 -0.3409 -0.2931  0.1811
  179SOPE    C120374   7.045   5.329   6.902 -0.5285 -0.2109 -0.0792
  179SOPE    HA20375   6.979   5.276   6.974  0.1999  0.0292  0.7825
  179SOPE    HB20376   7.005   5.433   6.906 -0.2962 -0.1472  2.7712
  179SOPE    C220377   7.184   5.350   6.967 -1.2896 -0.0890  0.2819
  179SOPE    HS20378   7.250   5.408   6.899  1.5808 -2.7362  0.5876
  179SOPE   O2120379   7.244   5.224   7.000 -0.5817 -0.0989 -0.2086
  179SOPE   C2120380   7.371   5.230   7.025 -0.0765  0.5677  0.2869
  179SOPE   O2220381   7.439   5.326   7.011 -0.2454 -1.1508  0.1106
  179SOPE   C2220382   7.423   5.084   7.043  0.7996 -0.5440  0.5059
  179SOPE   H2R20383   7.397   5.024   6.953 -2.6723  0.4589  0.6932
  179SOPE   H2S20384   7.368   5.046   7.131  0.2963  1.0885  0.9289
  179SOPE    C320385   7.177   5.439   7.104  0.3950  0.3306  0.2147
  179SOPE    HX20386   7.146   5.535   7.058 -3.4832 -1.4641 -1.4488
  179SOPE    HY20387   7.277   5.449   7.150  1.3860 -1.5355 -1.3846
  179SOPE   O3120388   7.075   5.395   7.190 -0.3444  0.0659  0.3143
  179SOPE   C3120389   7.118   5.317   7.280  0.0638  1.2194  0.5261
  179SOPE   O3220390   7.232   5.280   7.298 -0.2231  0.5661  0.5024
  179SOPE   C3220391   6.989   5.272   7.360 -0.2875  0.4155 -0.4624
  179SOPE   H2X20392   6.940   5.186   7.310 -2.4674 -0.0586  2.2197
  179SOPE   H2Y20393   6.914   5.354   7.360  0.8494  1.5181 -2.6436
  179SOPE   C2320394   7.572   5.095   7.050 -0.1546 -0.0739  0.6608
  179SOPE   H3R20395   7.592   5.160   7.139  1.9286 -2.3166  1.9315
  179SOPE   H3S20396   7.611   5.146   6.959  1.5180  0.0672  1.4155
  179SOPE   C2420397   7.653   4.968   7.068  0.1555  0.4231 -0.3214
  179SOPE   H4R20398   7.662   4.911   6.974  0.4989 -3.1588  1.7102
  179SOPE   H4S20399   7.748   4.996   7.117  0.0989 -0.7271  0.4818
  179SOPE   C2520400   7.602   4.866   7.174  0.0746 -0.4760  0.0357
  179SOPE   H5R20401   7.500   4.840   7.139  0.1102  0.0798 -0.5036
  179SOPE   H5S20402   7.665   4.775   7.182  0.8523  0.0973  0.5814
  179SOPE   C2620403   7.607   4.920   7.315  0.4892  0.1177  0.1375
  179SOPE   H6R20404   7.707   4.958   7.345  1.4782 -0.9366 -1.5924
  179SOPE   H6S20405   7.538   5.007   7.314  0.1176 -0.1780 -0.3639
  179SOPE   C2720406   7.549   4.815   7.412  0.4050  0.4210 -0.0738
  179SOPE   H7R20407   7.460   4.772   7.360  0.0488  1.4288 -0.3098
  179SOPE   H7S20408   7.619   4.730   7.425 -1.0456 -0.8807 -0.3970
  179SOPE   C2820409   7.520   4.870   7.559  0.2511  0.2632 -0.1491
  179SOPE   H8R20410   7.494   4.789   7.631 -2.0376  1.0464 -0.0339
  179SOPE   H8S20411   7.622   4.904   7.590  0.7667 -2.4112  1.4623
  179SOPE   C2920412   7.401   4.966   7.556 -0.5229  0.6709  0.1298
  179SOPE   H9120413   7.313   4.937   7.496 -1.9681  0.0294  2.4326
  179SOPE  C21020414   7.400   5.083   7.620 -0.1599  0.5015  0.5162
  179SOPE  H10120415   7.307   5.139   7.600  0.5681  1.1445 -1.2759
  179SOPE  C21120416   7.498   5.145   7.721 -0.3245 -0.0308 -0.2773
  179SOPE  H11R20417   7.529   5.245   7.684 -1.3140 -0.5748 -2.7826
  179SOPE  H11S20418   7.583   5.079   7.748  0.3287  1.3757  1.2753
  179SOPE  C21220419   7.422   5.158   7.849  0.1037  0.4519  0.1010
  179SOPE  H12R20420   7.405   5.056   7.889  3.9882 -0.8146 -0.9940
  179SOPE  H12S20421   7.330   5.219   7.841 -1.0190 -0.9748  1.4279
  179SOPE  C21320422   7.498   5.247   7.940 -0.2419 -0.2024 -0.4242
  179SOPE  H13R20423   7.531   5.336   7.882 -1.9297  0.5727 -0.2495
  179SOPE  H13S20424   7.589   5.197   7.979  0.0515  0.6026 -0.0462
  179SOPE  C21420425   7.412   5.291   8.060 -0.1701 -0.0930 -0.2041
  179SOPE  H14R20426   7.344   5.204   8.074 -0.8513  0.7445  2.0252
  179SOPE  H14S20427   7.348   5.373   8.022  1.5117  1.0396 -0.7156
  179SOPE  C21520428   7.484   5.325   8.187  0.4426 -0.1495  0.1689
  179SOPE  H15R20429   7.563   5.393   8.150 -0.0628  0.5652  0.3920
  179SOPE  H15S20430   7.535   5.230   8.217 -0.0858 -0.9001 -1.2222
  179SOPE  C21620431   7.406   5.380   8.303 -0.8014 -0.5486 -0.5637
  179SOPE  H16R20432   7.385   5.487   8.285  0.5462 -0.0590  0.5980
  179SOPE  H16S20433   7.470   5.363   8.393 -1.1253  1.0744  0.0134
  179SOPE  C21720434   7.273   5.316   8.346  0.0451  0.0872  0.8153
  179SOPE  H17R20435   7.296   5.208   8.358 -0.2386 -0.1891 -0.9359
  179SOPE  H17S20436   7.193   5.332   8.271 -2.2603 -0.3211  3.0449
  179SOPE  C21820437   7.226   5.384   8.481  0.0061  0.3638  0.1457
  179SOPE  H18R20438   7.127   5.345   8.512 -0.2792  1.1408  0.2510
  179SOPE  H18S20439   7.222   5.491   8.452  0.8275  0.0802 -1.0979
  179SOPE  H18T20440   7.307   5.375   8.556  0.8285 -2.5009 -0.9630
  179SOPE   C3320441   7.018   5.212   7.501 -0.1053 -0.1495  0.2793
  179SOPE   H3X20442   7.088   5.127   7.484  2.9115  2.1117  0.5534
  179SOPE   H3Y20443   6.915   5.184   7.530 -0.4603  0.7181 -0.1334
  179SOPE   C3420444   7.065   5.302   7.614 -0.2538 -0.0970 -0.6658
  179SOPE   H4X20445   7.009   5.398   7.620  0.7320  0.4643 -0.2231
  179SOPE   H4Y20446   7.165   5.333   7.578 -1.3680  0.7898 -3.1870
  179SOPE   C3520447   7.064   5.245   7.757  0.3576  0.6823  0.6098
  179SOPE   H5X20448   7.100   5.314   7.836 -0.0509  2.5875 -0.8110
  179SOPE   H5Y20449   7.122   5.151   7.771 -0.5372  0.1296  0.6993
  179SOPE   C3620450   6.923   5.198   7.810 -0.6351  0.0247  1.0454
  179SOPE   H6X20451   6.897   5.110   7.748 -2.1584  0.0023  1.6736
  179SOPE   H6Y20452   6.847   5.274   7.783 -1.2154 -1.1253 -0.6616
  179SOPE   C3720453   6.938   5.160   7.962  0.5484  0.2631  0.4994
  179SOPE   H7X20454   7.007   5.076   7.979  0.4592  0.4473  1.8703
  179SOPE   H7Y20455   6.846   5.117   8.007  0.0721  0.5496 -0.1720
  179SOPE   C3820456   6.984   5.276   8.056 -0.8845  0.4130 -0.4333
  179SOPE   H8X20457   7.092   5.292   8.041 -0.3118 -1.7413  0.8665
  179SOPE   H8Y20458   6.955   5.245   8.159 -2.8438  0.1701 -0.9998
  179SOPE   C3920459   6.916   5.417   8.027  0.0082  0.6986  0.1790
  179SOPE   H9X20460   6.806   5.403   8.029 -0.0026  0.6642 -0.6560
  179SOPE   H9Y20461   6.947   5.446   7.925 -1.4557 -1.0363 -0.8288
  179SOPE  C31020462   6.960   5.520   8.138 -0.2449 -0.4304  0.0895
  179SOPE  H10X20463   6.956   5.622   8.095  0.2049 -0.9099 -1.1101
  179SOPE  H10Y20464   7.067   5.506   8.165  0.6809  0.2982 -2.8938
  179SOPE  C31120465   6.875   5.513   8.269  1.2190 -0.2042  0.0085
  179SOPE  H11X20466   6.879   5.408   8.307  1.2029  0.1237  0.9553
  179SOPE  H11Y20467   6.768   5.524   8.242  0.8034  2.1107  2.2060
  179SOPE  C31220468   6.919   5.599   8.389  0.6288  0.2749  0.4582
  179SOPE  H12X20469   7.028   5.588   8.408  0.4224 -0.4808  1.3093
  179SOPE  H12Y20470   6.869   5.551   8.477  4.1833 -1.2821  1.8408
  179SOPE  C31320471   6.874   5.740   8.389  0.0539 -0.0961  1.0078
  179SOPE  H13X20472   6.764   5.753   8.382  0.2329  0.7012 -1.1244
  179SOPE  H13Y20473   6.898   5.787   8.290 -3.6565 -0.3195 -0.1378
  179SOPE  C31420474   6.934   5.831   8.497  0.6562  0.2411 -0.5656
  179SOPE  H14X20475   6.931   5.934   8.456  0.8182  0.3393 -0.3356
  179SOPE  H14Y20476   7.039   5.798   8.509  0.0375 -1.7293 -0.2376
  179SOPE  C31520477   6.866   5.812   8.634 -0.4069  0.2700 -0.0564
  179SOPE  H15X20478   6.894   5.710   8.669 -0.1872 -0.4410 -2.1697
  179SOPE  H15Y20479   6.757   5.798   8.627 -0.5087 -0.8723  2.6426
  179SOPE  C31620480   6.907   5.913   8.741  0.4413 -0.3449  0.8240
  179SOPE  H16X20481   7.018   5.927   8.737  0.1223  2.7297  0.0158
  179SOPE  H16Y20482   6.857   5.888   8.837  0.7351 -0.6664  0.8931
  179SOPE  C31720483   6.852   6.056   8.710  0.3251 -0.1039  0.1802
  179SOPE  H17X20484   6.741   6.056   8.707  0.2878 -0.2443  1.1089
  179SOPE  H17Y20485   6.904   6.078   8.614  2.0200  0.7873  1.2451
  179SOPE  C31820486   6.893   6.160   8.813 -0.1010  0.0236 -0.8233
  179SOPE  H18X20487   6.871   6.131   8.918  2.5589  0.7901  0.0240
  179SOPE  H18Y20488   6.854   6.261   8.786 -0.8912 -0.3034 -0.9340
  179SOPE  H18Z20489   7.002   6.176   8.803  0.5647 -3.6444 -0.8124
  180SOPE     N20490   5.952   4.452   6.399  0.4772  0.5880  0.0135
  180SOPE   HN120491   5.912   4.548   6.402 -2.5843 -0.5633 -0.0217
  180SOPE   HN220492   5.911   4.406   6.482  1.9974 -2.0869 -0.6295
  180SOPE   HN320493   6.055   4.452   6.411  0.3987 -0.9116  0.9135
  180SOPE   C1220494   5.922   4.402   6.264  0.9138  0.7324  0.4743
  180SOPE  H12A20495   5.931   4.291   6.264 -0.3771  0.5650 -1.4782
  180SOPE  H12B20496   5.988   4.447   6.186 -0.5829  1.1080 -0.6370
  180SOPE   C1120497   5.779   4.441   6.223  0.5538 -0.7385  0.1463
  180SOPE  H11A20498   5.761   4.412   6.117 -1.6864  1.0376 -0.0447
  180SOPE  H11B20499   5.779   4.552   6.217 -2.3561 -0.6551  0.2638
  180SOPE     P20500   5.616   4.237   6.275 -0.4157  0.2780  0.2045
  180SOPE   O1320501   5.736   4.143   6.280  0.3125 -0.0682 -0.0621
  180SOPE   O1420502   5.518   4.241   6.163  0.3080 -0.4893  0.2481
  180SOPE   O1220503   5.678   4.384   6.308 -0.1024 -0.1119 -0.0848
  180SOPE   O1120504   5.539   4.210   6.412 -0.4869  0.4991 -0.5335
  180SOPE    C120505   5.430   4.282   6.463 -0.4423 -0.1764  0.0208
  180SOPE    HA20506   5.362   4.302   6.377  0.5150 -1.5936 -1.1248
  180SOPE    HB20507   5.458   4.385   6.493 -0.9050  0.2580 -0.9721
  180SOPE    C220508   5.335   4.217   6.568 -0.2118  0.0380  0.8863
  180SOPE    HS20509   5.245   4.282   6.569 -1.8347 -2.0736 -0.1461
  180SOPE   O2120510   5.396   4.208   6.698  0.4554 -0.1506 -0.3231
  180SOPE   C2120511   5.406   4.318   6.770  0.1010  0.0033  0.1986
  180SOPE   O2220512   5.356   4.422   6.738 -0.1263 -0.8955 -0.0025
  180SOPE   C2220513   5.502   4.305   6.885  0.5797 -0.4318  0.1630
  180SOPE   H2R20514   5.588   4.374   6.869 -1.7856  2.3432 -1.5586
  180SOPE   H2S20515   5.525   4.196   6.881 -2.0375 -1.0288 -1.0870
  180SOPE    C320516   5.284   4.072   6.525  0.0894 -0.0008  0.6388
  180SOPE    HX20517   5.374   4.032   6.473  0.3950 -1.2241  2.0142
  180SOPE    HY20518   5.214   4.084   6.439  2.0332 -2.4219 -1.4463
  180SOPE   O3120519   5.245   3.978   6.623  0.7835  0.5835  0.1383
  180SOPE   C3120520   5.119   3.992   6.661  0.0666 -0.0321 -0.3161
  180SOPE   O3220521   5.033   4.052   6.601  0.1085  0.2418 -0.0111
  180SOPE   C3220522   5.096   3.916   6.787 -0.0883 -0.2480  0.3165
  180SOPE   H2X20523   5.112   3.807   6.778 -0.3258 -0.2234 -0.4521
  180SOPE   H2Y20524   4.986   3.909   6.807 -0.4292  0.4404 -1.1930
  180SOPE   C2320525   5.439   4.329   7.028 -0.2453  0.5692  0.1265
  180SOPE   H3R20526   5.359   4.253   7.043 -1.2363  1.7094  0.7832
  180SOPE   H3S20527   5.389   4.425   7.051 -1.3494 -0.0173  0.2502
  180SOPE   C2420528   5.545   4.299   7.141 -0.4332  0.5677 -0.1856
  180SOPE   H4R20529   5.564   4.191   7.127 -0.3984  0.5837 -0.2654
  180SOPE   H4S20530   5.642   4.351   7.122  0.0638 -0.4901 -0.6061
  180SOPE   C2520531   5.475   4.321   7.275 -0.4142  0.3065  0.1778
  180SOPE   H5R20532   5.428   4.422   7.282 -1.3812  0.1056 -2.3492
  180SOPE   H5S20533   5.389   4.251   7.281 -1.2511  1.1727 -1.0718
  180SOPE   C2620534   5.576   4.290   7.390 -0.4149 -0.1565 -0.4521
  180SOPE   H6R20535   5.519   4.280   7.484  0.2426 -1.1727 -0.1428
  180SOPE   H6S20536   5.620   4.194   7.355 -1.6132 -1.3250  1.1209
  180SOPE   C2720537   5.679   4.400   7.416  0.3204 -0.6860 -0.0394
  180SOPE   H7R20538   5.724   4.433   7.320 -2.0569  2.5179 -0.1912
  180SOPE   H7S20539   5.626   4.491   7.448  1.2487  0.3126 -1.2348
  180SOPE   C2820540   5.775   4.373   7.529  0.1689 -0.6154 -0.8913
  180SOPE   H8R20541   5.844   4.459   7.539 -0.2415 -0.3984  0.2220
  180SOPE   H8S20542   5.722   4.356   7.625  1.9193  0.6768  0.3467
  180SOPE   C2920543   5.860   4.255   7.496 -0.2416 -0.1386 -0.2165
  180SOPE   H9120544   5.853   4.229   7.390 -0.4559  2.5776 -0.9321
  180SOPE  C21020545   5.956   4.204   7.582 -0.5642 -0.2808  0.1774
  180SOPE  H10120546   6.018   4.118   7.553  1.5410  1.0498  0.5337
  180SOPE  C21120547   5.978   4.262   7.716 -0.5337 -0.1003 -0.1855
  180SOPE  H11R20548   5.939   4.366   7.724  0.2392  0.1280  0.8890
  180SOPE  H11S20549   6.087   4.255   7.737 -0.6926 -0.9836  0.4252
  180SOPE  C21220550   5.915   4.173   7.832  0.2287  0.1703  0.1555
  180SOPE  H12R20551   5.951   4.069   7.820  1.6693  0.8726 -2.1000
  180SOPE  H12S20552   5.805   4.176   7.819  0.3595  0.7096 -0.8785
  180SOPE  C21320553   5.947   4.228   7.970  0.1601  0.4176  0.1097
  180SOPE  H13R20554   5.889   4.168   8.043 -0.0803  0.7746  0.2182
  180SOPE  H13S20555   5.904   4.330   7.973  0.4384  0.5059  1.6181
  180SOPE  C21420556   6.095   4.210   8.005 -0.0638  0.6686 -0.0454
  180SOPE  H14R20557   6.160   4.274   7.942  1.2060 -0.8978 -0.3970
  180SOPE  H14S20558   6.126   4.104   7.991 -0.6667  0.8307 -3.3999
  180SOPE  C21520559   6.130   4.246   8.149 -0.1945 -0.0931 -0.3706
  180SOPE  H15R20560   6.084   4.171   8.217 -2.7663  0.0117 -1.8621
  180SOPE  H15S20561   6.080   4.343   8.170  0.6908  0.3815 -0.3813
  180SOPE  C21620562   6.285   4.246   8.169  0.7937  1.1196  0.6123
  180SOPE  H16R20563   6.325   4.296   8.078 -0.0084  1.7986  0.6205
  180SOPE  H16S20564   6.317   4.140   8.166  2.2062  1.5343  0.2838
  180SOPE  C21720565   6.339   4.327   8.292  0.6577  0.4891  0.6375
  180SOPE  H17R20566   6.314   4.267   8.382  2.4557 -1.8581 -0.3002
  180SOPE  H17S20567   6.286   4.424   8.287  1.6772  1.0233 -0.7532
  180SOPE  C21820568   6.489   4.354   8.274  0.2695  0.1704 -0.9823
  180SOPE  H18R20569   6.547   4.259   8.280 -0.0363  0.0185 -0.3694
  180SOPE  H18S20570   6.530   4.425   8.349  0.1608  0.3662 -1.1070
  180SOPE  H18T20571   6.517   4.390   8.173  2.7542 -0.9129 -0.7561
  180SOPE   C3320572   5.167   3.985   6.899  0.2802  0.4173  0.1729
  180SOPE   H3X20573   5.098   4.061   6.941 -3.2305 -2.1325 -0.4439
  180SOPE   H3Y20574   5.262   4.037   6.876  1.5739 -0.1012  3.7312
  180SOPE   C3420575   5.192   3.897   7.026 -0.5232 -0.0559  1.0239
  180SOPE   H4X20576   5.248   3.804   7.002 -0.0184  0.0919  1.5946
  180SOPE   H4Y20577   5.095   3.863   7.069  0.6957 -0.3565  3.7285
  180SOPE   C3520578   5.265   3.970   7.139 -0.2867 -0.1538 -0.1049
  180SOPE   H5X20579   5.208   4.058   7.175  1.2423  0.6554  0.4610
  180SOPE   H5Y20580   5.360   4.009   7.096  0.0664 -0.4163  0.4217
  180SOPE   C3620581   5.297   3.890   7.268  0.3923 -0.1605  0.1605
  180SOPE   H6X20582   5.344   3.796   7.231 -0.3664 -0.0893 -1.0441
  180SOPE   H6Y20583   5.200   3.862   7.314 -0.4618  0.1447 -1.3708
  180SOPE   C3720584   5.376   3.960   7.378  0.1931 -0.1094  0.5212
  180SOPE   H7X20585   5.373   4.068   7.354  0.9507 -0.4107 -1.0709
  180SOPE   H7Y20586   5.479   3.919   7.371 -0.0905 -0.7445 -0.1068
  180SOPE   C3820587   5.324   3.931   7.515 -0.3172 -0.2325 -0.3487
  180SOPE   H8X20588   5.335   3.821   7.531 -1.2376 -0.4809 -1.3048
  180SOPE   H8Y20589   5.217   3.953   7.534  0.2888  0.4998  2.8045
  180SOPE   C3920590   5.395   4.011   7.626 -1.0122 -0.0673 -0.3536
  180SOPE   H9X20591   5.372   4.119   7.609  0.2833  0.3595  0.4498
  180SOPE   H9Y20592   5.504   3.996   7.610 -1.1376 -1.8158  0.2763
  180SOPE  C31020593   5.347   3.970   7.762 -0.1997  0.3160  0.2303
  180SOPE  H10X20594   5.396   3.873   7.787  0.1256  0.3870 -0.1374
  180SOPE  H10Y20595   5.238   3.948   7.761 -0.0948 -0.2206 -0.7528
  180SOPE  C31120596   5.383   4.068   7.876 -0.0507 -0.2508  0.5332
  180SOPE  H11X20597   5.337   4.033   7.970 -1.3135 -2.9142 -0.9640
  180SOPE  H11Y20598   5.344   4.165   7.839 -1.5052 -1.2319 -0.6299
  180SOPE  C31220599   5.532   4.071   7.904 -0.3389  0.2469 -0.1194
  180SOPE  H12X20600   5.592   4.114   7.822  2.0833 -0.4441  1.2100
  180SOPE  H12Y20601   5.566   3.966   7.914 -0.5094  0.2351  0.3744
  180SOPE  C31320602   5.560   4.142   8.041 -0.2509  0.5397 -0.0581
  180SOPE  H13X20603   5.668   4.129   8.067 -0.4269 -0.7103  0.0970
  180SOPE  H13Y20604   5.509   4.085   8.120 -0.8258  0.3388 -0.5678
  180SOPE  C31420605   5.512   4.292   8.056 -0.6505  0.3003 -0.3001
  180SOPE  H14X20606   5.529   4.316   8.163  0.0091 -2.0363  0.1581
  180SOPE  H14Y20607   5.405   4.306   8.028 -0.7451 -2.3868 -1.5738
  180SOPE  C31520608   5.591   4.388   7.966  0.2866 -0.0279 -0.8605
  180SOPE  H15X20609   5.560   4.369   7.861 -0.6040  0.9370 -0.7865
  180SOPE  H15Y20610   5.701   4.371   7.972  0.2162 -0.7958 -1.6017
  180SOPE  C31620611   5.582   4.540   8.008 -0.1673  0.1736  0.9775
  180SOPE  H16X20612   5.659   4.550   8.087 -0.6560 -0.6482  1.5796
  180SOPE  H16Y20613   5.482   4.567   8.046  0.3640  0.9172  1.8751
  180SOPE  C31720614   5.623   4.632   7.888 -0.4861  0.1345  0.4291
  180SOPE  H17X20615   5.602   4.737   7.918 -0.1298  0.8671 -1.6683
  180SOPE  H17Y20616   5.566   4.614   7.794 -1.6460  0.8260  0.9657
  180SOPE  C31820617   5.767   4.624   7.847  0.7187 -0.4266 -0.3444
  180SOPE  H18X20618   5.823   4.648   7.940  0.0549  0.3189 -0.1302
  180SOPE  H18Y20619   5.784   4.699   7.768  0.0107  0.0841 -0.0183
  180SOPE  H18Z20620   5.799   4.525   7.808  0.4407  0.4885 -3.0850
  181SOPE     N20621   3.724   2.515   5.970  0.4928  0.3051  0.3613
  181SOPE   HN120622   3.677   2.486   5.883 -2.2755  0.0375  1.8253
  181SOPE   HN220623   3.804   2.577   5.948  1.1339 -0.3070  0.9055
  181SOPE   HN320624   3.753   2.430   6.023 -0.8678 -2.1838 -2.6106
  181SOPE   C1220625   3.629   2.602   6.043  0.6146 -0.3116  0.3729
  181SOPE  H12A20626   3.673   2.611   6.145 -0.5231  0.4297  0.8188
  181SOPE  H12B20627   3.529   2.556   6.054  2.3750 -4.5030  0.7461
  181SOPE   C1120628   3.612   2.739   5.976 -0.2050  0.1900  0.0486
  181SOPE  H11A20629   3.541   2.784   6.050 -1.0304  0.6056 -0.9702
  181SOPE  H11B20630   3.564   2.731   5.876 -1.5468 -0.0170  0.6769
  181SOPE     P20631   3.741   2.958   6.039  0.3218 -0.0007  0.2358
  181SOPE   O1320632   3.637   3.040   5.967 -0.0290  0.0265 -0.1093
  181SOPE   O1420633   3.876   3.002   6.034  0.1352  0.2632  0.2927
  181SOPE   O1220634   3.729   2.818   5.970  0.1926 -0.3788  0.1366
  181SOPE   O1120635   3.692   2.929   6.190  0.8963 -0.1481 -0.2099
  181SOPE    C120636   3.770   2.838   6.269  0.1330  0.1252 -0.3169
  181SOPE    HA20637   3.808   2.750   6.212 -2.6045  0.3170 -2.6908
  181SOPE    HB20638   3.698   2.787   6.336  0.5238 -0.7323 -0.5380
  181SOPE    C220639   3.871   2.912   6.363  0.1070 -0.0563  0.7602
  181SOPE    HS20640   3.966   2.919   6.306  0.8918 -0.3120  1.9761
  181SOPE   O2120641   3.895   2.844   6.487  1.0412  0.7199 -0.1032
  181SOPE   C2120642   3.965   2.734   6.481  0.5760  0.1883  0.3642
  181SOPE   O2220643   4.026   2.692   6.384  0.1520  0.6194  0.2302
  181SOPE   C2220644   3.953   2.681   6.627 -0.1634  0.7550  0.2077
  181SOPE   H2R20645   3.970   2.571   6.625 -1.0867  0.5975 -1.5589
  181SOPE   H2S20646   3.844   2.673   6.647 -0.2912 -0.1907 -0.7747
  181SOPE    C320647   3.824   3.053   6.404 -0.4303 -0.6832 -0.4165
  181SOPE    HX20648   3.729   3.034   6.459  0.3574 -1.3101  0.7691
  181SOPE    HY20649   3.809   3.112   6.312 -0.1919  1.3476  0.7852
  181SOPE   O3120650   3.915   3.120   6.499 -0.6060  0.4361 -0.2857
  181SOPE   C3120651   3.867   3.240   6.538  0.1511 -0.0424 -0.8814
  181SOPE   O3220652   3.763   3.290   6.498 -0.1058 -0.5889  0.1068
  181SOPE   C3220653   3.958   3.303   6.633 -0.2196  0.4368  0.9291
  181SOPE   H2X20654   3.927   3.409   6.650 -1.1908  0.0960  1.3531
  181SOPE   H2Y20655   4.054   3.312   6.577 -0.6688  1.1119  0.2608
  181SOPE   C2320656   4.047   2.764   6.718  0.6734 -0.6398  0.1428
  181SOPE   H3R20657   4.099   2.842   6.658 -0.7635  1.5823  1.6370
  181SOPE   H3S20658   4.137   2.706   6.747  2.0917  1.5805  0.4078
  181SOPE   C2420659   3.977   2.812   6.850  0.1295 -0.8645 -0.3275
  181SOPE   H4R20660   3.902   2.885   6.814 -2.3413 -2.9628  0.3047
  181SOPE   H4S20661   3.921   2.725   6.890  1.0082 -1.8424 -1.1607
  181SOPE   C2520662   4.083   2.860   6.951 -0.6433  0.6278  0.6630
  181SOPE   H5R20663   4.150   2.772   6.952 -3.4158 -1.9476 -3.9737
  181SOPE   H5S20664   4.132   2.949   6.905 -1.6610  1.1693  0.5825
  181SOPE   C2620665   4.039   2.878   7.096  0.7076 -0.6596 -0.2582
  181SOPE   H6R20666   4.109   2.936   7.159  0.7253  1.4724 -2.1109
  181SOPE   H6S20667   3.944   2.935   7.095  0.7000 -0.6610  0.1763
  181SOPE   C2720668   4.022   2.739   7.160 -0.1664  0.2484  0.0915
  181SOPE   H7R20669   3.954   2.687   7.090 -0.3319  0.8614 -0.2076
  181SOPE   H7S20670   4.115   2.678   7.159 -1.2193 -1.3996  0.0311
  181SOPE   C2820671   3.970   2.754   7.303 -0.6612  0.1095 -1.3732
  181SOPE   H8R20672   3.887   2.826   7.288 -1.3185 -0.7498 -1.8916
  181SOPE   H8S20673   3.930   2.654   7.327 -0.0441  0.3180  0.8442
  181SOPE   C2920674   4.061   2.821   7.402 -0.0699  0.0665  0.0437
  181SOPE   H9120675   4.110   2.911   7.362  1.6959 -1.2240 -0.8424
  181SOPE  C21020676   4.088   2.779   7.526 -0.3123  0.5351 -0.2419
  181SOPE  H10120677   4.168   2.823   7.586  1.2464 -0.6021 -1.4149
  181SOPE  C21120678   4.035   2.661   7.594  0.2642  0.6459  0.1950
  181SOPE  H11R20679   4.121   2.617   7.649  0.3339 -0.2796 -0.6276
  181SOPE  H11S20680   4.005   2.577   7.527  1.8145  0.7778 -0.7148
  181SOPE  C21220681   3.919   2.699   7.690  0.3916  0.4192 -0.2171
  181SOPE  H12R20682   3.830   2.746   7.642  0.5169  0.8261 -0.0554
  181SOPE  H12S20683   3.961   2.766   7.768 -0.6467 -0.3918  1.0816
  181SOPE  C21320684   3.860   2.580   7.760 -0.1630 -0.7295 -0.9311
  181SOPE  H13R20685   3.817   2.504   7.692  1.7773 -3.4654  0.6592
  181SOPE  H13S20686   3.774   2.609   7.824  0.9141 -2.2269  1.3872
  181SOPE  C21420687   3.939   2.498   7.861  0.0499  0.3365 -0.9578
  181SOPE  H14R20688   3.949   2.547   7.960 -0.1541 -0.8433 -0.3468
  181SOPE  H14S20689   4.045   2.489   7.829 -0.2944  0.9808 -2.3644
  181SOPE  C21520690   3.879   2.361   7.899  0.6294 -0.5002  0.0493
  181SOPE  H15R20691   3.929   2.297   7.974 -1.0547 -0.0110  1.6757
  181SOPE  H15S20692   3.881   2.301   7.805  1.0016 -0.4764  0.0429
  181SOPE  C21620693   3.735   2.372   7.964  0.1525  0.3070 -0.2307
  181SOPE  H16R20694   3.690   2.272   7.982  2.8599 -0.8461  0.6118
  181SOPE  H16S20695   3.674   2.434   7.895  0.8770  0.2911 -0.9018
  181SOPE  C21720696   3.724   2.430   8.105 -0.3325  0.1013 -0.0410
  181SOPE  H17R20697   3.760   2.535   8.099  0.0162  0.1500  1.9793
  181SOPE  H17S20698   3.799   2.381   8.171  0.4125  2.0421  0.6200
  181SOPE  C21820699   3.583   2.429   8.162 -0.2487 -0.5843 -0.4001
  181SOPE  H18R20700   3.559   2.350   8.236  0.1885 -0.8780 -0.5665
  181SOPE  H18S20701   3.512   2.420   8.076 -0.3908 -1.1024 -0.2338
  181SOPE  H18T20702   3.552   2.525   8.209 -1.9714 -2.6431  3.0792
  181SOPE   C3320703   3.970   3.241   6.772 -0.4770 -0.0824  0.2610
  181SOPE   H3X20704   4.060   3.285   6.819  0.6155 -0.9602 -0.9672
  181SOPE   H3Y20705   3.983   3.131   6.760 -1.1622  0.1078 -3.3765
  181SOPE   C3420706   3.854   3.276   6.857  0.1467  0.2504 -0.7416
  181SOPE   H4X20707   3.761   3.251   6.802  0.5475  0.5218 -1.5555
  181SOPE   H4Y20708   3.850   3.385   6.877 -0.2742 -0.2136  2.0947
  181SOPE   C3520709   3.852   3.215   6.999  0.5046  0.0671  0.2516
  181SOPE   H5X20710   3.827   3.108   6.984 -0.1440  0.4146 -1.3155
  181SOPE   H5Y20711   3.772   3.273   7.051 -0.1789 -0.1935 -0.5045
  181SOPE   C3620712   3.990   3.244   7.065 -0.3877  0.4619  1.2484
  181SOPE   H6X20713   4.015   3.352   7.052 -1.7319  0.6677  0.0112
  181SOPE   H6Y20714   4.071   3.179   7.026  0.4790  1.9162  0.5500
  181SOPE   C3720715   3.971   3.219   7.215  0.1311 -0.1966  0.0448
  181SOPE   H7X20716   3.947   3.112   7.232  3.8883 -0.9110  1.8187
  181SOPE   H7Y20717   3.885   3.283   7.247  0.7101 -0.1428  1.5899
  181SOPE   C3820718   4.092   3.263   7.297 -0.7054 -0.0069  0.1250
  181SOPE   H8X20719   4.106   3.372   7.286  1.3448 -0.1556  0.7752
  181SOPE   H8Y20720   4.189   3.218   7.268 -0.8687 -1.6139  1.8364
  181SOPE   C3920721   4.091   3.230   7.449  0.9893  0.6675  0.1563
  181SOPE   H9X20722   4.171   3.292   7.495  0.4091  1.2488  0.3945
  181SOPE   H9Y20723   4.116   3.122   7.460 -1.9853 -0.3715 -1.9298
  181SOPE  C31020724   3.948   3.236   7.516  0.1113  0.0327 -0.8545
  181SOPE  H10X20725   3.890   3.148   7.481  1.4328 -1.2697  0.1485
  181SOPE  H10Y20726   3.885   3.323   7.486  0.1882  0.5021  0.2793
  181SOPE  C31120727   3.946   3.230   7.680 -0.1590 -0.2002  0.1693
  181SOPE  H11X20728   3.860   3.293   7.711  1.8155  2.7693  0.0110
  181SOPE  H11Y20729   4.036   3.281   7.720  0.1698 -0.6228 -0.0183
  181SOPE  C31220730   3.941   3.084   7.725  0.0544 -0.4301  0.6391
  181SOPE  H12X20731   4.037   3.039   7.691 -0.4375 -1.5087  0.6459
  181SOPE  H12Y20732   3.858   3.035   7.671  0.5509  0.0595 -0.6066
  181SOPE  C31320733   3.941   3.063   7.877  0.0952  0.1465 -0.3778
  181SOPE  H13X20734   4.043   3.094   7.909 -0.7572  1.0614  1.5653
  181SOPE  H13Y20735   3.919   2.955   7.896 -1.0688  0.1165 -1.7589
  181SOPE  C31420736   3.839   3.145   7.957 -0.2466  0.0358 -0.4822
  181SOPE  H14X20737   3.749   3.154   7.892  0.6461  0.9784 -1.6615
  181SOPE  H14Y20738   3.889   3.244   7.967 -2.8971  1.2019  3.5773
  181SOPE  C31520739   3.818   3.091   8.100 -0.3722 -0.3019 -0.9688
  181SOPE  H15X20740   3.909   3.093   8.164 -1.1295  0.6175  0.1422
  181SOPE  H15Y20741   3.772   2.990   8.101 -1.9806  0.3900 -0.4426
  181SOPE  C31620742   3.714   3.185   8.163 -0.3883 -0.1193  0.6348
  181SOPE  H16X20743   3.658   3.125   8.238 -1.9855 -1.5156 -1.5255
  181SOPE  H16Y20744   3.632   3.213   8.094 -0.0763  0.7517  0.6022
  181SOPE  C31720745   3.767   3.312   8.236  0.2063  0.6321 -0.1062
  181SOPE  H17X20746   3.677   3.375   8.251  0.3299  0.2049  3.2666
  181SOPE  H17Y20747   3.832   3.371   8.168  0.9763  0.4152  0.4226
  181SOPE  C31820748   3.832   3.288   8.371  0.3084 -0.5465 -0.0560
  181SOPE  H18X20749   3.861   3.391   8.401 -1.4421 -0.1338  0.3203
  181SOPE  H18Y20750   3.926   3.231   8.355  1.4002  1.5521 -1.6148
  181SOPE  H18Z20751   3.761   3.256   8.450  1.0888 -0.4739  0.6878
  182SOPE     N20752   6.405   3.394   6.161 -0.1597 -0.4856 -0.0699
  182SOPE   HN120753   6.328   3.457   6.131  1.0724  2.7229  2.8308
  182SOPE   HN220754   6.491   3.407   6.105 -0.6278  1.5290 -0.3956
  182SOPE   HN320755   6.379   3.293   6.161  0.7406 -0.7327  0.8885
  182SOPE   C1220756   6.414   3.436   6.298 -0.0940 -0.5804 -0.1422
  182SOPE  H12A20757   6.330   3.390   6.353 -0.3339  0.9170  0.8122
  182SOPE  H12B20758   6.400   3.546   6.307 -0.4753 -0.7580  2.1541
  182SOPE   C1120759   6.549   3.387   6.363 -0.1533 -0.3607 -0.2776
  182SOPE  H11A20760   6.559   3.425   6.467 -2.6907  0.2336 -0.1738
  182SOPE  H11B20761   6.628   3.441   6.306  0.5283 -0.2258  0.7660
  182SOPE     P20762   6.701   3.176   6.340  0.2919 -0.5973  0.0134
  182SOPE   O1320763   6.809   3.252   6.411  0.4564  0.4658 -0.4439
  182SOPE   O1420764   6.725   3.151   6.196 -0.3414  0.3868  0.8750
  182SOPE   O1220765   6.560   3.242   6.362  0.3644 -0.5199 -0.8867
  182SOPE   O1120766   6.673   3.042   6.415  0.7195  0.4059 -0.6763
  182SOPE    C120767   6.537   2.984   6.430 -0.1139 -0.7853  0.0980
  182SOPE    HA20768   6.486   2.987   6.331 -1.5263  4.3041  0.7139
  182SOPE    HB20769   6.468   3.037   6.499 -0.8066 -1.6779  0.1149
  182SOPE    C220770   6.538   2.835   6.475 -0.0493 -0.0955 -0.2639
  182SOPE    HS20771   6.433   2.800   6.464 -0.5185  1.6804 -2.2810
  182SOPE   O2120772   6.589   2.822   6.610  0.6532 -0.0627  0.2307
  182SOPE   C2120773   6.488   2.821   6.705 -0.2968  0.8060  0.6825
  182SOPE   O2220774   6.367   2.843   6.692  0.0753 -0.2480 -0.0771
  182SOPE   C2220775   6.550   2.780   6.838  0.3517 -0.0341  0.1395
  182SOPE   H2R20776   6.640   2.838   6.868  0.1382 -0.8410  2.5494
  182SOPE   H2S20777   6.585   2.676   6.825  0.9844  0.3577 -1.5170
  182SOPE    C320778   6.629   2.751   6.375 -0.0681  0.0246  0.0408
  182SOPE    HX20779   6.735   2.778   6.392 -0.3683  0.1736  1.9582
  182SOPE    HY20780   6.603   2.772   6.269  1.1142 -1.9573 -0.6817
  182SOPE   O3120781   6.610   2.613   6.405 -0.3657  0.7358 -0.4367
  182SOPE   C3120782   6.621   2.528   6.304 -0.0988  0.4957  0.2356
  182SOPE   O3220783   6.621   2.556   6.185 -0.2537  0.9327  0.3373
  182SOPE   C3220784   6.637   2.387   6.365 -0.5550  0.3426  0.1300
  182SOPE   H2X20785   6.743   2.369   6.391 -0.0434  0.5381 -1.6614
  182SOPE   H2Y20786   6.605   2.316   6.285  0.0060 -1.2826  1.2866
  182SOPE   C2320787   6.452   2.787   6.953  0.5429 -0.5945 -1.3062
  182SOPE   H3R20788   6.370   2.712   6.945  1.2473 -1.4005 -1.1091
  182SOPE   H3S20789   6.411   2.890   6.951 -1.0244 -1.1150  0.7784
  182SOPE   C2420790   6.520   2.753   7.086  0.1065  0.1030 -0.0110
  182SOPE   H4R20791   6.541   2.644   7.093  0.7318  0.0342 -2.3196
  182SOPE   H4S20792   6.613   2.813   7.095  0.5088 -0.2953 -1.3505
  182SOPE   C2520793   6.439   2.790   7.214 -0.4340  0.0240 -0.3039
  182SOPE   H5R20794   6.423   2.900   7.208  1.3770  0.2945 -0.7502
  182SOPE   H5S20795   6.338   2.749   7.194  0.4990 -0.6291 -4.5876
  182SOPE   C2620796   6.505   2.739   7.340  0.3676 -0.7684 -0.0888
  182SOPE   H6R20797   6.486   2.630   7.349 -0.8934 -0.4084  2.4175
  182SOPE   H6S20798   6.614   2.752   7.352  0.1728 -0.8394  2.1708
  182SOPE   C2720799   6.441   2.805   7.465  0.4912 -1.1191 -1.1306
  182SOPE   H7R20800   6.494   2.779   7.560  0.4451 -2.4321 -1.4412
  182SOPE   H7S20801   6.466   2.913   7.455 -1.5566 -0.4602  0.2833
  182SOPE   C2820802   6.288   2.785   7.472 -0.3735  0.1727 -0.1088
  182SOPE   H8R20803   6.248   2.833   7.381  0.5196 -0.3925 -0.8227
  182SOPE   H8S20804   6.264   2.677   7.458 -2.5473  0.8906 -2.5451
  182SOPE   C2920805   6.224   2.836   7.599  0.1052  0.8287  0.1992
  182SOPE   H9120806   6.178   2.935   7.582 -2.1819  0.4586  3.4064
  182SOPE  C21020807   6.233   2.786   7.720 -0.3260 -0.5456  1.0195
  182SOPE  H10120808   6.181   2.840   7.800 -0.5476  1.1675 -0.2253
  182SOPE  C21120809   6.299   2.663   7.780  0.2834 -0.1892  0.1068
  182SOPE  H11R20810   6.357   2.604   7.705 -0.7054  1.4450 -2.0493
  182SOPE  H11S20811   6.215   2.598   7.810 -2.0822  2.7784  0.3816
  182SOPE  C21220812   6.389   2.688   7.904 -0.1717  0.0892  0.6555
  182SOPE  H12R20813   6.476   2.747   7.869 -0.6022  1.0572  1.1710
  182SOPE  H12S20814   6.431   2.589   7.934  0.3514  0.7039  1.9981
  182SOPE  C21320815   6.325   2.762   8.018 -0.2400  0.1096  0.0729
  182SOPE  H13R20816   6.280   2.858   7.983 -1.3307 -0.3109  0.2872
  182SOPE  H13S20817   6.402   2.802   8.087 -0.6982 -2.2061  2.0730
  182SOPE  C21420818   6.227   2.681   8.098 -0.3001  0.4008  0.5178
  182SOPE  H14R20819   6.270   2.580   8.117  2.0533  0.7821 -2.1883
  182SOPE  H14S20820   6.141   2.647   8.036  0.9617 -1.9712 -0.0477
  182SOPE  C21520821   6.193   2.737   8.232  0.3765 -0.5324  0.0594
  182SOPE  H15R20822   6.274   2.724   8.308 -0.3620  0.9665  1.1594
  182SOPE  H15S20823   6.101   2.689   8.272 -0.6448  2.0799  1.1104
  182SOPE  C21620824   6.162   2.890   8.235  0.1340  0.3745 -0.2274
  182SOPE  H16R20825   6.089   2.914   8.154 -1.9808 -0.8841  1.2038
  182SOPE  H16S20826   6.251   2.951   8.211 -1.0463  1.2350 -2.8153
  182SOPE  C21720827   6.099   2.934   8.368 -0.1757 -0.2018 -0.1189
  182SOPE  H17R20828   6.130   3.041   8.376  0.3452 -0.0846 -2.9278
  182SOPE  H17S20829   6.136   2.872   8.453  0.1738  0.9342  0.5872
  182SOPE  C21820830   5.944   2.917   8.367  0.0566  1.0495 -0.4028
  182SOPE  H18R20831   5.914   2.811   8.353  0.0892  0.6472  2.2152
  182SOPE  H18S20832   5.891   2.976   8.288 -0.5638  0.7420 -0.2228
  182SOPE  H18T20833   5.895   2.955   8.459 -1.0672  3.1104 -1.7585
  182SOPE   C3320834   6.538   2.351   6.473  0.1113  0.2297  0.2157
  182SOPE   H3X20835   6.534   2.240   6.476 -2.4363  0.2342 -0.6618
  182SOPE   H3Y20836   6.438   2.393   6.450 -0.9482 -1.6916  1.0925
  182SOPE   C3420837   6.579   2.406   6.610 -1.0759 -1.1290 -0.2305
  182SOPE   H4X20838   6.491   2.395   6.677 -1.9270 -2.0922 -1.4434
  182SOPE   H4Y20839   6.615   2.511   6.606  1.7357 -2.0308 -0.9346
  182SOPE   C3520840   6.692   2.315   6.666  0.2801 -0.0947 -0.2978
  182SOPE   H5X20841   6.781   2.338   6.604  1.3124 -0.0310  1.1485
  182SOPE   H5Y20842   6.662   2.208   6.655  1.0131 -0.6451  2.3414
  182SOPE   C3620843   6.719   2.344   6.814 -0.6422  0.0684 -0.4137
  182SOPE   H6X20844   6.747   2.449   6.834  1.5070 -0.4690 -0.3503
  182SOPE   H6Y20845   6.810   2.285   6.841 -0.1817  1.4348  1.1808
  182SOPE   C3720846   6.609   2.294   6.909 -0.1107 -0.4937  0.9056
  182SOPE   H7X20847   6.607   2.183   6.917 -1.1623 -0.3724  3.3769
  182SOPE   H7Y20848   6.508   2.323   6.873  0.3920  0.2979  0.0942
  182SOPE   C3820849   6.625   2.340   7.052  0.3161 -0.3828 -0.1136
  182SOPE   H8X20850   6.652   2.447   7.057  1.3200 -0.5931 -0.8591
  182SOPE   H8Y20851   6.705   2.291   7.111 -0.5924 -0.6926  0.8957
  182SOPE   C3920852   6.493   2.313   7.122  0.8803 -0.0677  0.8894
  182SOPE   H9X20853   6.469   2.212   7.081 -4.2066  0.4617  1.8971
  182SOPE   H9Y20854   6.413   2.381   7.085  0.4388 -2.6747 -3.7026
  182SOPE  C31020855   6.495   2.306   7.274 -0.8284  0.2625  0.4517
  182SOPE  H10X20856   6.527   2.407   7.308 -0.7145  0.0437  1.0012
  182SOPE  H10Y20857   6.573   2.233   7.303 -0.0697 -0.3305 -2.7668
  182SOPE  C31120858   6.361   2.268   7.326  0.6107  0.0504 -0.3105
  182SOPE  H11X20859   6.331   2.167   7.294  0.5698 -1.1991  3.2212
  182SOPE  H11Y20860   6.292   2.344   7.282  0.7286 -1.0061 -2.4062
  182SOPE  C31220861   6.349   2.274   7.477 -0.2466  0.4386 -0.5472
  182SOPE  H12X20862   6.391   2.373   7.505 -1.4089  0.4472  1.3245
  182SOPE  H12Y20863   6.410   2.200   7.534  0.8782  1.1324 -0.8306
  182SOPE  C31320864   6.198   2.271   7.520 -0.2448  0.1378  0.0297
  182SOPE  H13X20865   6.162   2.167   7.509  1.7339 -0.6523  0.5237
  182SOPE  H13Y20866   6.139   2.338   7.453 -0.0314  0.6958  0.3853
  182SOPE  C31420867   6.189   2.315   7.669  0.7780  0.1216 -0.1191
  182SOPE  H14X20868   6.080   2.334   7.679  0.9282  1.4637 -0.8073
  182SOPE  H14Y20869   6.242   2.410   7.686 -0.2672  0.9903 -1.4457
  182SOPE  C31520870   6.229   2.218   7.777  0.0397  0.5281  0.2303
  182SOPE  H15X20871   6.336   2.194   7.763 -0.0808 -0.3179  0.6887
  182SOPE  H15Y20872   6.155   2.136   7.767 -1.0528  1.4258  0.6522
  182SOPE  C31620873   6.213   2.273   7.916  0.0651 -0.7697  0.1484
  182SOPE  H16X20874   6.105   2.286   7.938 -0.2843  1.4398 -2.3088
  182SOPE  H16Y20875   6.260   2.371   7.937  0.1161 -0.8834  0.5663
  182SOPE  C31720876   6.262   2.198   8.038  0.3159 -0.3187  0.1843
  182SOPE  H17X20877   6.366   2.160   8.034  0.4209 -0.2518  1.7486
  182SOPE  H17Y20878   6.199   2.106   8.043  1.9928 -1.5501 -0.3933
  182SOPE  C31820879   6.269   2.275   8.167 -0.1992 -0.0244  0.3453
  182SOPE  H18X20880   6.183   2.345   8.168  1.5741  2.3369 -0.6692
  182SOPE  H18Y20881   6.364   2.332   8.178 -0.0309 -0.6841  2.9338
  182SOPE  H18Z20882   6.269   2.202   8.250 -0.1699 -1.1995 -0.6608
  183SOPE     N20883   2.242   1.825   6.400 -0.3093  0.2885  0.0458
  183SOPE   HN120884   2.223   1.829   6.502  1.8073 -1.8415  0.6409
  183SOPE   HN220885   2.326   1.764   6.389 -0.1834  0.5907 -0.7184
  183SOPE   HN320886   2.267   1.917   6.359  2.1416  0.2863  1.3263
  183SOPE   C1220887   2.124   1.773   6.334  0.8174 -0.2180  0.4627
  183SOPE  H12A20888   2.152   1.753   6.229 -0.4965 -0.4338  0.1314
  183SOPE  H12B20889   2.051   1.856   6.322  1.8516  0.7093  0.4403
  183SOPE   C1120890   2.074   1.641   6.400 -0.7835  0.2559  0.0496
  183SOPE  H11A20891   1.982   1.613   6.345 -0.3419 -2.2865  0.4863
  183SOPE  H11B20892   2.052   1.652   6.508  0.6144 -1.5373  0.5597
  183SOPE     P20893   2.165   1.401   6.348 -0.3702  0.3072 -0.4308
  183SOPE   O1320894   2.143   1.391   6.201  0.0600  0.2320  0.3971
  183SOPE   O1420895   2.058   1.334   6.425 -0.3400 -0.0748  0.7120
  183SOPE   O1220896   2.186   1.547   6.390 -0.4289  0.3239  0.1046
  183SOPE   O1120897   2.310   1.336   6.377  0.2795 -0.3535 -0.3095
  183SOPE    C120898   2.336   1.190   6.350 -0.4410  0.3293  0.1325
  183SOPE    HA20899   2.426   1.173   6.286  0.2713  0.8477  0.9731
  183SOPE    HB20900   2.257   1.149   6.283 -0.3005 -0.7320  0.5860
  183SOPE    C220901   2.337   1.108   6.478  0.5216 -0.5304  0.2506
  183SOPE    HS20902   2.230   1.097   6.502  0.0840  1.4478 -0.5760
  183SOPE   O2120903   2.409   1.172   6.581  0.1845  0.3031 -0.4300
  183SOPE   C2120904   2.352   1.189   6.699 -0.5317 -0.3307  0.2250
  183SOPE   O2220905   2.239   1.160   6.732 -0.2030  0.4541  0.5198
  183SOPE   C2220906   2.443   1.259   6.801 -0.8692  0.1501  0.0937
  183SOPE   H2R20907   2.374   1.274   6.886 -0.7781 -0.2039  0.2315
  183SOPE   H2S20908   2.484   1.346   6.745 -1.7109 -0.6610 -1.8765
  183SOPE    C320909   2.395   0.968   6.455  0.5708 -0.3191 -0.2664
  183SOPE    HX20910   2.493   0.989   6.407  0.7584 -2.3034 -0.8628
  183SOPE    HY20911   2.326   0.915   6.386 -1.5790 -0.6592  2.0124
  183SOPE   O3120912   2.402   0.894   6.582 -0.2689 -0.6078  0.3187
  183SOPE   C3120913   2.283   0.839   6.623  0.1225  0.9512  0.5358
  183SOPE   O3220914   2.187   0.828   6.544  0.3429 -0.2734 -0.3286
  183SOPE   C3220915   2.309   0.782   6.754 -0.3974  0.6682 -0.6462
  183SOPE   H2X20916   2.411   0.738   6.761 -0.0951  1.4895  0.2578
  183SOPE   H2Y20917   2.239   0.698   6.778  0.6769 -0.6104 -1.7958
  183SOPE   C2320918   2.572   1.180   6.836 -0.3442  0.1497  0.2966
  183SOPE   H3R20919   2.649   1.180   6.756  0.1348 -0.5853  0.7486
  183SOPE   H3S20920   2.551   1.072   6.849 -1.6066  0.1437 -1.4311
  183SOPE   C2420921   2.632   1.231   6.968  0.0657 -0.1133 -0.1553
  183SOPE   H4R20922   2.667   1.336   6.960 -0.3334  0.0633  0.3945
  183SOPE   H4S20923   2.546   1.228   7.038  0.0027  1.0427 -0.1584
  183SOPE   C2520924   2.743   1.139   7.016  1.2679 -0.6150 -0.0814
  183SOPE   H5R20925   2.694   1.040   7.023 -0.7427  0.4013  1.3712
  183SOPE   H5S20926   2.830   1.130   6.948  1.3665  0.9025 -0.1929
  183SOPE   C2620927   2.786   1.187   7.153  0.1323  0.0796 -0.3496
  183SOPE   H6R20928   2.804   1.297   7.155  1.3982 -0.1197  1.9092
  183SOPE   H6S20929   2.703   1.161   7.222  0.8221 -0.3059  0.3471
  183SOPE   C2720930   2.914   1.114   7.205 -0.2977 -0.0516 -0.1183
  183SOPE   H7R20931   2.906   1.005   7.184 -0.5738 -0.4035  1.6204
  183SOPE   H7S20932   2.999   1.156   7.147 -0.0235 -2.2480 -1.4286
  183SOPE   C2820933   2.944   1.128   7.357 -0.1206  0.2587 -0.4957
  183SOPE   H8R20934   3.045   1.085   7.373 -0.3606  0.2216  1.0442
  183SOPE   H8S20935   2.952   1.238   7.370  0.4486  0.3591 -1.5646
  183SOPE   C2920936   2.839   1.057   7.438 -0.6295  0.1189 -0.0530
  183SOPE   H9120937   2.778   0.987   7.379 -1.8910  0.4127  0.8431
  183SOPE  C21020938   2.817   1.065   7.573  0.3908 -0.6471  0.2419
  183SOPE  H10120939   2.741   1.000   7.619  0.1092 -0.8001 -0.4231
  183SOPE  C21120940   2.890   1.156   7.670 -0.4102 -0.1171  0.1908
  183SOPE  H11R20941   2.845   1.258   7.665 -0.7499 -0.3171 -1.7831
  183SOPE  H11S20942   3.000   1.159   7.652 -0.0391 -1.5498  1.8875
  183SOPE  C21220943   2.867   1.106   7.818  0.0323 -0.2147  0.7791
  183SOPE  H12R20944   2.908   1.004   7.835 -0.2652 -0.4671  0.0124
  183SOPE  H12S20945   2.758   1.115   7.838  0.2475 -1.0031  2.5791
  183SOPE  C21320946   2.933   1.197   7.924  0.1929  0.0608  0.3496
  183SOPE  H13R20947   2.884   1.296   7.933  2.5257  1.1698  1.8001
  183SOPE  H13S20948   3.036   1.213   7.887  0.1414 -1.9466 -0.8443
  183SOPE  C21420949   2.922   1.135   8.062 -0.4847  0.3131 -0.0913
  183SOPE  H14R20950   3.003   1.059   8.075  0.0392  0.3650 -2.6333
  183SOPE  H14S20951   2.828   1.081   8.087 -1.7996  1.8674 -1.4867
  183SOPE  C21520952   2.943   1.253   8.163  0.4408  0.1146  0.3214
  183SOPE  H15R20953   2.849   1.311   8.168  1.4953  2.4606 -2.9656
  183SOPE  H15S20954   3.022   1.319   8.120 -0.4763  1.4925  0.6947
  183SOPE  C21620955   2.997   1.211   8.305 -0.0084  0.2958 -0.8248
  183SOPE  H16R20956   3.088   1.147   8.302 -1.3189 -1.6627  0.0996
  183SOPE  H16S20957   2.917   1.145   8.344  0.6803  0.7932  1.6007
  183SOPE  C21720958   3.013   1.330   8.394  0.1895  0.7698  0.0341
  183SOPE  H17R20959   2.912   1.374   8.405 -0.0825 -0.1145  1.3014
  183SOPE  H17S20960   3.061   1.413   8.337 -1.4734  1.1249 -0.9391
  183SOPE  C21820961   3.075   1.298   8.528  0.5868  0.1675 -0.3449
  183SOPE  H18R20962   3.089   1.389   8.591  1.6206 -1.4643  1.9575
  183SOPE  H18S20963   3.173   1.247   8.513  0.4914 -0.4281  0.9393
  183SOPE  H18T20964   3.009   1.233   8.589  0.4499  0.7939  0.1964
  183SOPE   C3320965   2.298   0.882   6.862 -0.7724 -0.5274 -0.4482
  183SOPE   H3X20966   2.207   0.945   6.854 -0.5141  0.1177  1.2462
  183SOPE   H3Y20967   2.385   0.951   6.868 -0.2260 -1.2931  1.0607
  183SOPE   C3420968   2.292   0.815   7.000 -0.0375 -0.3577 -0.3792
  183SOPE   H4X20969   2.385   0.761   7.027 -0.1270  0.7444  2.4353
  183SOPE   H4Y20970   2.200   0.755   7.010  0.8048 -1.2841  2.6358
  183SOPE   C3520971   2.279   0.921   7.106  0.3402 -0.5810 -0.0925
  183SOPE   H5X20972   2.178   0.967   7.109  0.4588 -0.0066 -2.3649
  183SOPE   H5Y20973   2.351   1.002   7.082  0.1255 -0.7768 -1.5018
  183SOPE   C3620974   2.308   0.863   7.245  0.5139 -0.5308  0.5470
  183SOPE   H6X20975   2.403   0.806   7.251 -0.5102 -2.0941  3.7651
  183SOPE   H6Y20976   2.226   0.793   7.270 -1.0598  0.8397 -0.5449
  183SOPE   C3720977   2.307   0.977   7.349 -0.5065  0.0544 -0.1598
  183SOPE   H7X20978   2.208   1.025   7.367 -1.8572 -2.6703  0.3471
  183SOPE   H7Y20979   2.383   1.054   7.327 -1.3115  0.8031 -0.3759
  183SOPE   C3820980   2.349   0.926   7.483  0.1918  0.4595 -0.5949
  183SOPE   H8X20981   2.424   0.844   7.488 -0.1931  0.1734  1.1071
  183SOPE   H8Y20982   2.256   0.879   7.523  0.0142  2.3747  1.4537
  183SOPE   C3920983   2.389   1.037   7.587  0.1741 -0.6674  0.5375
  183SOPE   H9X20984   2.298   1.101   7.589 -0.5379 -1.4263 -2.3141
  183SOPE   H9Y20985   2.483   1.082   7.550  0.7206 -3.0974 -1.3075
  183SOPE  C31020986   2.406   0.982   7.732  0.6338 -0.0412 -0.2976
  183SOPE  H10X20987   2.495   0.920   7.710  0.5595  0.3394 -1.7984
  183SOPE  H10Y20988   2.319   0.925   7.771 -1.0568  2.0474 -0.7994
  183SOPE  C31120989   2.445   1.094   7.835 -0.9815  0.4601 -0.0239
  183SOPE  H11X20990   2.366   1.170   7.851 -2.3476 -0.8163 -0.4521
  183SOPE  H11Y20991   2.531   1.157   7.805 -1.8119  1.2531 -0.8068
  183SOPE  C31220992   2.485   1.033   7.975 -0.4159 -0.6021  0.8370
  183SOPE  H12X20993   2.569   0.961   7.962 -0.0806 -0.2230  0.8937
  183SOPE  H12Y20994   2.398   0.979   8.018 -2.4315  1.0334 -1.0098
  183SOPE  C31320995   2.533   1.136   8.074  0.0680  0.4469  0.0215
  183SOPE  H13X20996   2.465   1.224   8.076  0.7698  0.9865  0.8779
  183SOPE  H13Y20997   2.633   1.175   8.044  0.2580  0.0415  0.1291
  183SOPE  C31420998   2.566   1.077   8.215 -0.1655 -0.2153  0.2100
  183SOPE  H14X20999   2.629   1.140   8.281  0.3454  1.0860 -1.4255
  183SOPE  H14Y21000   2.617   0.980   8.201  0.5223  0.1668 -0.0017
  183SOPE  C31521001   2.436   1.046   8.286  0.4479 -0.5955 -0.6174
  183SOPE  H15X21002   2.374   0.962   8.248 -1.1495  0.0939  0.3691
  183SOPE  H15Y21003   2.379   1.141   8.286 -0.4385 -1.1136 -1.1925
  183SOPE  C31621004   2.459   1.007   8.443 -0.6702 -0.9115 -0.4100
  183SOPE  H16X21005   2.535   1.080   8.479 -1.3384 -0.0365 -0.7220
  183SOPE  H16Y21006   2.506   0.907   8.449  1.1958 -0.0607 -0.0403
  183SOPE  C31721007   2.338   1.016   8.534 -0.8158 -0.5969 -0.2142
  183SOPE  H17X21008   2.278   1.109   8.521 -0.6480 -0.5276 -0.5106
  183SOPE  H17Y21009   2.380   1.019   8.637 -0.7111 -1.3030 -0.2337
  183SOPE  C31821010   2.238   0.901   8.523 -0.3041  0.1067 -0.0543
  183SOPE  H18X21011   2.286   0.805   8.551 -2.2294 -0.5050  1.4146
  183SOPE  H18Y21012   2.203   0.882   8.420 -0.7655  0.0774  0.1029
  183SOPE  H18Z21013   2.160   0.920   8.600 -0.2639 -1.9658  0.5640
  184SOPE     N21014   0.994   0.665   6.122 -0.2873  0.2721 -0.0934
  184SOPE   HN121015   0.924   0.729   6.079 -1.1107  1.9029  3.2979
  184SOPE   HN221016   1.009   0.585   6.057 -1.1667 -0.7440  0.9080
  184SOPE   HN321017   0.944   0.623   6.203 -1.4242  1.8723  0.0803
  184SOPE   C1221018   1.107   0.749   6.175  0.5359  0.0947 -0.1656
  184SOPE  H12A21019   1.196   0.681   6.175  0.2043 -0.4761 -3.0636
  184SOPE  H12B21020   1.068   0.774   6.276 -1.4035 -0.5412 -0.7143
  184SOPE   C1121021   1.145   0.872   6.090  0.3095  0.2564 -0.1214
  184SOPE  H11A21022   1.189   0.835   5.995 -1.1785  0.3103 -0.8564
  184SOPE  H11B21023   1.217   0.935   6.148 -0.4066 -0.1390  1.2514
  184SOPE     P21024   0.972   1.063   6.145 -0.0234 -0.0766  0.2646
  184SOPE   O1321025   0.866   1.139   6.075  0.4794 -0.4418  0.0783
  184SOPE   O1421026   1.083   1.145   6.200  0.0747 -0.6621 -1.0585
  184SOPE   O1221027   1.038   0.957   6.046  0.0055  0.2375 -0.0785
  184SOPE   O1121028   0.919   0.971   6.264  0.3034 -0.2873  0.2009
  184SOPE    C121029   0.791   0.981   6.325 -0.0162 -0.1012  0.2335
  184SOPE    HA21030   0.783   0.896   6.395  0.4074  0.9950  1.6537
  184SOPE    HB21031   0.711   0.960   6.250 -0.3008  3.0554 -0.5250
  184SOPE    C221032   0.769   1.111   6.407  0.3658  0.0156  0.8973
  184SOPE    HS21033   0.780   1.192   6.331  3.6086  0.8707  2.1258
  184SOPE   O2121034   0.874   1.131   6.501  0.4795  0.2256 -0.7792
  184SOPE   C2121035   0.878   1.253   6.559 -0.3688  0.0285  0.8832
  184SOPE   O2221036   0.808   1.349   6.533  0.1968 -0.8167  0.0278
  184SOPE   C2221037   0.989   1.254   6.661 -0.5242 -0.6483 -0.5763
  184SOPE   H2R21038   0.989   1.347   6.721 -1.9347 -1.5591  0.9174
  184SOPE   H2S21039   1.090   1.242   6.615  2.7492  0.3305  5.4101
  184SOPE    C321040   0.633   1.112   6.476  0.5249  0.2501  0.1481
  184SOPE    HX21041   0.631   1.211   6.527  0.6626  0.8757 -1.0456
  184SOPE    HY21042   0.645   1.041   6.561  3.1975 -1.6980 -1.7137
  184SOPE   O3121043   0.524   1.094   6.388  0.6757  0.1003  0.1313
  184SOPE   C3121044   0.412   1.080   6.452 -0.3969 -0.3282  0.0047
  184SOPE   O3221045   0.404   1.069   6.572  0.6555  0.0653  0.1789
  184SOPE   C3221046   0.301   1.070   6.348 -0.0927 -0.3222 -0.6208
  184SOPE   H2X21047   0.285   0.962   6.332  1.4547 -0.9154  1.4148
  184SOPE   H2Y21048   0.335   1.121   6.255  0.1969  0.0862 -0.2968
  184SOPE   C2321049   0.975   1.135   6.763 -0.3030  0.4312  0.0611
  184SOPE   H3R21050   1.054   1.154   6.839  0.3825 -0.2872 -0.4546
  184SOPE   H3S21051   0.985   1.038   6.709 -3.7347  0.7733 -1.5068
  184SOPE   C2421052   0.829   1.131   6.821  0.2643  0.3530  0.0335
  184SOPE   H4R21053   0.750   1.134   6.742  0.3134 -1.8930 -0.1521
  184SOPE   H4S21054   0.804   1.031   6.862  1.2224  1.6645  4.2148
  184SOPE   C2521055   0.794   1.249   6.905  0.0799 -0.4940 -0.0675
  184SOPE   H5R21056   0.832   1.348   6.871  0.6362 -0.4958  0.5293
  184SOPE   H5S21057   0.684   1.268   6.909  0.2709  0.7897 -0.4073
  184SOPE   C2621058   0.851   1.236   7.050 -0.0299 -0.8293 -0.3995
  184SOPE   H6R21059   0.827   1.144   7.108  1.2222 -0.0450  1.4167
  184SOPE   H6S21060   0.961   1.226   7.045  0.2108 -0.7445  2.8115
  184SOPE   C2721061   0.819   1.362   7.134  0.6911  0.3286  0.4468
  184SOPE   H7R21062   0.827   1.454   7.073  0.8460  0.4473  0.6452
  184SOPE   H7S21063   0.719   1.343   7.177  0.8480 -0.2066  0.5865
  184SOPE   C2821064   0.909   1.363   7.262  0.1704  0.1197  0.3397
  184SOPE   H8R21065   0.910   1.267   7.319  2.6591 -0.4439 -0.5207
  184SOPE   H8S21066   1.012   1.392   7.233  0.0177 -0.6792 -1.0969
  184SOPE   C2921067   0.878   1.475   7.355  0.1167 -0.6237  0.2046
  184SOPE   H9121068   0.895   1.574   7.311 -0.5638  0.7487  2.8082
  184SOPE  C21021069   0.839   1.462   7.486 -0.1182 -0.6879  0.1530
  184SOPE  H10121070   0.821   1.554   7.543 -0.4177 -0.3148 -0.5331
  184SOPE  C21121071   0.817   1.340   7.566 -0.0273 -0.2125 -0.2471
  184SOPE  H11R21072   0.890   1.258   7.548 -1.9177 -1.4606 -3.0233
  184SOPE  H11S21073   0.722   1.294   7.531  0.0073 -0.1673 -0.4002
  184SOPE  C21221074   0.784   1.366   7.715  0.3621  0.0856  0.5878
  184SOPE  H12R21075   0.763   1.269   7.765  1.3243  0.6648  2.2253
  184SOPE  H12S21076   0.687   1.419   7.722  0.6277  0.7787 -0.7921
  184SOPE  C21321077   0.893   1.443   7.788  0.5206  0.1845  0.1738
  184SOPE  H13R21078   0.903   1.547   7.750  1.4002 -0.8487 -2.6242
  184SOPE  H13S21079   0.988   1.389   7.769  0.2930  0.0448 -0.6068
  184SOPE  C21421080   0.869   1.453   7.940  0.3116  0.2756  0.5052
  184SOPE  H14R21081   0.953   1.512   7.981  0.6895 -1.4993  2.4525
  184SOPE  H14S21082   0.872   1.353   7.987  2.0307 -0.4285 -1.0058
  184SOPE  C21521083   0.741   1.521   7.984 -0.9059 -0.1470  0.9293
  184SOPE  H15R21084   0.646   1.466   7.968 -0.4348 -0.4606 -0.9826
  184SOPE  H15S21085   0.729   1.611   7.921  0.6206 -1.3765 -1.2277
  184SOPE  C21621086   0.745   1.567   8.139 -0.3880  0.1502  0.0803
  184SOPE  H16R21087   0.668   1.645   8.159 -0.3746 -0.5010  3.0968
  184SOPE  H16S21088   0.843   1.616   8.161  0.0807 -0.0857 -1.3910
  184SOPE  C21721089   0.725   1.443   8.224 -0.0634 -0.4823  0.0410
  184SOPE  H17R21090   0.822   1.388   8.223  0.5753  0.6011 -0.4899
  184SOPE  H17S21091   0.645   1.369   8.204 -0.3239 -0.0824 -0.4338
  184SOPE  C21821092   0.717   1.495   8.366  0.1616 -0.3355  0.4612
  184SOPE  H18R21093   0.643   1.578   8.361  0.7256  0.1642  0.2357
  184SOPE  H18S21094   0.819   1.529   8.397 -0.3988  2.0556 -0.0635
  184SOPE  H18T21095   0.690   1.410   8.432 -0.4863 -2.5188 -2.4198
  184SOPE   C3321096   0.175   1.151   6.392  0.3584 -0.4236  0.5557
  184SOPE   H3X21097   0.109   1.137   6.304  2.2999 -1.6838 -0.7775
  184SOPE   H3Y21098   0.214   1.255   6.396  0.7295 -0.4857 -0.9438
  184SOPE   C3421099   0.100   1.104   6.519 -0.4618 -0.0232 -0.1369
  184SOPE   H4X21100   0.164   1.138   6.603  2.8677  2.7241 -3.4155
  184SOPE   H4Y21101   0.106   0.993   6.511  0.7252  0.0683 -0.6898
  184SOPE   C3521102  -0.047   1.149   6.532  0.1660  0.1510 -0.7383
  184SOPE   H5X21103  -0.101   1.127   6.438 -2.6380  2.4271  0.1411
  184SOPE   H5Y21104  -0.062   1.255   6.563  1.7675  0.0229  0.6292
  184SOPE   C3621105  -0.115   1.067   6.646  0.6455  0.4654  0.2414
  184SOPE   H6X21106  -0.088   0.960   6.633 -0.5380  0.0732  0.8610
  184SOPE   H6Y21107  -0.224   1.078   6.632  0.6308 -0.3598 -0.3551
  184SOPE   C3721108  -0.059   1.103   6.786  0.2066  0.3083 -0.8150
  184SOPE   H7X21109  -0.063   1.213   6.800  3.4803  0.6986 -2.1330
  184SOPE   H7Y21110   0.051   1.091   6.793  0.1030 -0.3934 -0.1764
  184SOPE   C3821111  -0.119   1.019   6.907 -0.7330 -0.3281  0.2693
  184SOPE   H8X21112  -0.106   0.913   6.877 -1.2481  0.1616 -1.8451
  184SOPE   H8Y21113  -0.225   1.051   6.896 -0.3843  1.0374  0.6023
  184SOPE   C3921114  -0.047   1.050   7.036  0.3400  0.0767  0.4686
  184SOPE   H9X21115  -0.040   1.159   7.056 -1.1289  0.0274  1.4260
  184SOPE   H9Y21116   0.058   1.019   7.018  0.1771  0.8810 -2.3497
  184SOPE  C31021117  -0.114   0.981   7.154  0.1928 -0.6059  0.1630
  184SOPE  H10X21118  -0.093   0.873   7.147  0.0857 -0.7603  1.8659
  184SOPE  H10Y21119  -0.224   0.976   7.136  0.3702 -1.2626 -0.8104
  184SOPE  C31121120  -0.059   1.033   7.288  0.0248 -0.6865 -0.1133
  184SOPE  H11X21121  -0.076   1.142   7.278  0.7868 -0.8101 -4.6672
  184SOPE  H11Y21122   0.049   1.009   7.290  0.4631  0.8243 -2.3016
  184SOPE  C31221123  -0.133   0.994   7.422 -0.4154  0.5099  0.1508
  184SOPE  H12X21124  -0.152   0.884   7.422 -0.1316  0.4375  1.7496
  184SOPE  H12Y21125  -0.229   1.050   7.415 -0.3244  0.8023  1.0876
  184SOPE  C31321126  -0.054   1.047   7.549  0.6333 -0.1365  0.7838
  184SOPE  H13X21127  -0.028   1.153   7.527  0.8330 -0.7074 -2.0919
  184SOPE  H13Y21128   0.043   0.996   7.562 -0.1773 -1.8788  0.3108
  184SOPE  C31421129  -0.139   1.033   7.679 -0.0446  0.1515 -1.0966
  184SOPE  H14X21130  -0.190   0.934   7.676  0.9336 -0.5760  2.2761
  184SOPE  H14Y21131  -0.208   1.120   7.683  0.5291  0.6048 -0.9580
  184SOPE  C31521132  -0.052   1.041   7.800 -0.6699 -1.0485  0.4109
  184SOPE  H15X21133   0.033   1.112   7.792 -1.1058 -0.5563 -0.0296
  184SOPE  H15Y21134  -0.003   0.944   7.817  2.4709  0.1441 -1.1331
  184SOPE  C31621135  -0.131   1.078   7.925  0.6915 -0.2771 -0.2913
  184SOPE  H16X21136  -0.137   1.188   7.935  1.0966 -0.3081  0.3002
  184SOPE  H16Y21137  -0.073   1.058   8.017 -0.0750 -0.4430  0.1656
  184SOPE  C31721138  -0.259   0.997   7.944 -0.0004 -0.1374  0.5506
  184SOPE  H17X21139  -0.249   0.887   7.957 -1.6625 -0.0917  2.8393
  184SOPE  H17Y21140  -0.321   1.019   7.855  0.9653  1.3334  0.2002
  184SOPE  C31821141  -0.340   1.047   8.062 -0.7362  0.2032  0.0058
  184SOPE  H18X21142  -0.436   0.990   8.067  0.1100 -1.3503 -0.7138
  184SOPE  H18Y21143  -0.358   1.156   8.061  2.2960  0.9142  3.1693
  184SOPE  H18Z21144  -0.284   1.026   8.156  0.4867 -1.1547 -0.9819
  185SAPI   C1221145   3.884   0.035  11.230 -0.0788  0.5818 -0.1194
  185SAPI    H221146   3.860   0.142  11.219  0.0506  0.4137 -2.4433
  185SAPI    O221147   3.949   0.027  11.360 -0.3257  0.3150  0.0490
  185SAPI   HO221148   3.931   0.106  11.411  0.1239 -0.6745  1.8644
  185SAPI   C1321149   3.751  -0.043  11.218  0.1280  0.2736 -0.5093
  185SAPI    H321150   3.719  -0.022  11.113  0.0376 -2.4070 -1.0817
  185SAPI    O321151   3.654  -0.007  11.320 -0.3922  0.1178  0.3246
  185SAPI   HO321152   3.633   0.086  11.329 -0.8727  0.0443  0.0247
  185SAPI   C1421153   3.783  -0.185  11.238  0.2052  1.2852  0.9475
  185SAPI    H421154   3.832  -0.203  11.335 -0.7409 -3.4247  0.7761
  185SAPI    O421155   3.667  -0.264  11.245 -0.5977  0.7667  0.6127
  185SAPI   HO421156   3.607  -0.205  11.291 -2.5680  0.8707 -1.8839
  185SAPI   C1521157   3.885  -0.234  11.130  0.0103  0.3783 -0.1940
  185SAPI    H521158   3.838  -0.244  11.030 -0.0392 -2.9027  0.0404
  185SAPI    O521159   3.924  -0.371  11.148  0.1409 -0.5803 -0.4108
  185SAPI   HO521160   4.018  -0.383  11.134  0.1480 -1.3342  0.1877
  185SAPI   C1621161   4.013  -0.147  11.139 -0.1200  0.3989 -0.7121
  185SAPI    H621162   4.055  -0.161  11.241 -2.1805  0.3933  0.1937
  185SAPI    O621163   4.107  -0.193  11.045  0.2094 -0.4981 -0.4583
  185SAPI   HO621164   4.196  -0.175  11.075  0.5294 -1.4821 -0.7602
  185SAPI   C1121165   3.973  -0.009  11.114  0.2436  0.3862  0.3954
  185SAPI    H121166   3.913  -0.017  11.021 -0.1977 -0.5345  0.7441
  185SAPI     P21167   4.057   0.230  11.005  0.0275 -0.0206 -0.0530
  185SAPI   O1321168   4.157   0.324  11.053 -0.2404  0.0749 -0.0306
  185SAPI   O1421169   3.923   0.281  11.018  0.8745  0.2271 -0.3213
  185SAPI   O1221170   4.078   0.090  11.091 -0.3897 -0.0342  0.0425
  185SAPI   O1121171   4.089   0.199  10.857 -0.0998 -0.2867 -0.5548
  185SAPI    C121172   4.098   0.067  10.807  0.2896  0.0097  0.2319
  185SAPI    HA21173   4.193   0.051  10.752  0.0472 -2.6896  0.4491
  185SAPI    HB21174   4.108  -0.013  10.883 -2.2321 -0.6417 -0.0477
  185SAPI    C221175   3.972   0.034  10.712  0.0978 -0.8852 -0.6066
  185SAPI    HS21176   3.975   0.118  10.640  1.1501  1.1837  1.7005
  185SAPI   O2121177   3.854   0.053  10.792  0.6165  0.6436 -0.7102
  185SAPI   C2121178   3.735   0.055  10.743 -0.4141  0.0236  0.6671
  185SAPI   O2221179   3.706   0.020  10.633  0.7370  0.3233  0.2847
  185SAPI   C2221180   3.638   0.109  10.847 -0.1751 -0.0651 -0.1760
  185SAPI   H2R21181   3.616   0.010  10.894  3.6867 -0.9944  0.0073
  185SAPI   H2S21182   3.690   0.182  10.913  1.2241  0.6871 -2.0369
  185SAPI    C321183   3.978  -0.110  10.659 -0.4554  0.2910 -0.0236
  185SAPI    HX21184   3.888  -0.133  10.599  0.4916 -1.0721 -1.0031
  185SAPI    HY21185   3.976  -0.173  10.751 -0.0162 -0.1680 -0.3205
  185SAPI   O3121186   4.096  -0.139  10.584 -0.4026 -0.0339  0.4346
  185SAPI   C3121187   4.096  -0.263  10.534  0.0019 -0.2792  0.4333
  185SAPI   O3221188   4.004  -0.345  10.528 -0.5833 -0.2467 -0.0163
  185SAPI   C3221189   4.239  -0.292  10.486  0.3945  0.1868 -0.0069
  185SAPI   H2X21190   4.238  -0.385  10.425  1.0437 -0.0604  0.3525
  185SAPI   H2Y21191   4.300  -0.318  10.575  0.5104 -1.4540 -0.5371
  185SAPI   C2321192   3.516   0.178  10.781  0.1836  0.4292  0.0564
  185SAPI   H3R21193   3.432   0.206  10.849 -2.2741  0.1416 -2.6784
  185SAPI   H3S21194   3.462   0.112  10.710 -2.5534  2.3345  0.1889
  185SAPI   C2421195   3.562   0.306  10.713  0.6141 -0.3377 -0.1825
  185SAPI   H4R21196   3.649   0.294  10.645  1.3401 -0.3933  0.7258
  185SAPI   H4S21197   3.607   0.365  10.797  1.4410 -2.8765  1.2603
  185SAPI   C2521198   3.454   0.368  10.626  0.1558 -0.1716 -0.1548
  185SAPI   H5R21199   3.371   0.412  10.683  1.0790 -0.3920  1.4179
  185SAPI   C2621200   3.444   0.371  10.491  0.4688 -0.0915  0.6469
  185SAPI   H6R21201   3.356   0.421  10.447 -0.9752 -2.3181  0.8140
  185SAPI   C2721202   3.549   0.306  10.397  0.6962 -0.4019  0.0343
  185SAPI   H7R21203   3.524   0.198  10.392  4.0933 -1.3419  0.8837
  185SAPI   H7S21204   3.654   0.327  10.427  0.4581  0.8936  0.0366
  185SAPI   C2821205   3.533   0.352  10.255 -0.0047 -0.4301  0.5150
  185SAPI   H8R21206   3.543   0.461  10.245  1.9929 -0.6560 -0.3452
  185SAPI   C2921207   3.526   0.278  10.136  0.0590 -0.0412 -0.4389
  185SAPI   H9R21208   3.529   0.338  10.044 -0.4219 -0.5587 -0.8004
  185SAPI  C21021209   3.529   0.127  10.124  0.5486  0.1625 -0.4516
  185SAPI  H10R21210   3.442   0.097  10.061  1.3195 -0.4987 -1.2264
  185SAPI  H10S21211   3.515   0.070  10.218 -1.1818 -2.5760 -2.2256
  185SAPI  C21121212   3.663   0.084  10.071  0.2652 -0.1878  0.3842
  185SAPI  H11R21213   3.739   0.116  10.144 -0.7690  0.2394  1.3100
  185SAPI  C21221214   3.696   0.037   9.951 -0.9203 -0.0944 -0.0331
  185SAPI  H12R21215   3.795  -0.005   9.929 -1.2548 -0.9128 -0.0329
  185SAPI  C21321216   3.599   0.008   9.842 -0.0362 -0.5852  0.5500
  185SAPI  H13R21217   3.505  -0.029   9.889  0.3848 -0.2728  1.6775
  185SAPI  H13S21218   3.631  -0.064   9.764 -2.6612  0.4284 -1.6386
  185SAPI  C21421219   3.567   0.125   9.751  0.6986  0.7581 -0.5168
  185SAPI  H14R21220   3.577   0.223   9.800 -0.5469  0.3903  0.5334
  185SAPI  C21521221   3.526   0.114   9.624  0.5434 -0.5985  0.2304
  185SAPI  H15R21222   3.490   0.205   9.576  0.0704 -1.2152 -0.6123
  185SAPI  C21621223   3.504  -0.011   9.546  0.0682  0.4262 -0.7453
  185SAPI  H16R21224   3.396  -0.011   9.523  0.1852 -0.1652 -1.3459
  185SAPI  H16S21225   3.516  -0.110   9.595  2.5230  0.3488 -1.3740
  185SAPI  C21721226   3.586  -0.011   9.409 -0.1712  0.5150  0.5410
  185SAPI  H17R21227   3.696  -0.019   9.425 -0.1616  0.1465  0.3010
  185SAPI  H17S21228   3.575   0.085   9.354  0.9467 -0.6509 -1.8714
  185SAPI  C21821229   3.539  -0.123   9.318 -0.2245  0.1354  0.3109
  185SAPI  H18R21230   3.428  -0.123   9.324 -0.3179 -1.9717 -0.4175
  185SAPI  H18S21231   3.568  -0.222   9.359 -1.6936 -2.3844 -4.0049
  185SAPI  C21921232   3.594  -0.109   9.174  0.2923 -0.6285  0.4790
  185SAPI  H19R21233   3.704  -0.125   9.172  0.3007 -1.2840 -3.8463
  185SAPI  H19S21234   3.566  -0.008   9.139 -1.9302 -0.6394  2.0173
  185SAPI  C22021235   3.532  -0.202   9.068 -0.4380  0.0563 -0.7547
  185SAPI  H20R21236   3.421  -0.187   9.072 -0.9109 -3.0372 -0.0143
  185SAPI  H20S21237   3.553  -0.307   9.098 -0.9405  0.4561  1.1426
  185SAPI  H20T21238   3.578  -0.182   8.969  1.9893  1.2751  0.5499
  185SAPI   C3321239   4.287  -0.172  10.399  0.2487 -0.0442  0.5533
  185SAPI   H3X21240   4.294  -0.084  10.466  2.2633  0.7173 -0.5887
  185SAPI   H3Y21241   4.212  -0.151  10.319 -0.3522 -1.0904  0.8181
  185SAPI   C3421242   4.431  -0.184  10.348  0.2319  0.0799 -0.1267
  185SAPI   H4X21243   4.485  -0.232  10.433 -1.9880 -2.8934 -0.2427
  185SAPI   H4Y21244   4.475  -0.085  10.324 -0.4157 -0.1043 -2.2712
  185SAPI   C3521245   4.447  -0.271  10.226  0.0011  0.1526 -0.5295
  185SAPI   H5X21246   4.384  -0.361  10.241 -1.6737  0.8609 -2.7166
  185SAPI   H5Y21247   4.555  -0.292  10.209  0.1099  1.0247 -1.0036
  185SAPI   C3621248   4.394  -0.200  10.102  0.8344  0.1958  0.4677
  185SAPI   H6X21249   4.438  -0.099  10.087 -2.4032  1.4293 -1.9744
  185SAPI   H6Y21250   4.286  -0.178  10.116  0.2697 -0.1647 -2.6028
  185SAPI   C3721251   4.401  -0.285   9.969  0.0637  0.6467  0.0227
  185SAPI   H7X21252   4.336  -0.374   9.974  0.8959 -0.0326 -0.9233
  185SAPI   H7Y21253   4.505  -0.322   9.964  0.2646  1.3260 -1.7723
  185SAPI   C3821254   4.377  -0.192   9.851 -0.4146 -0.6020 -0.1177
  185SAPI   H8X21255   4.454  -0.113   9.860  0.3952 -1.4660  0.7434
  185SAPI   H8Y21256   4.279  -0.144   9.874  0.9110  1.2002  2.1761
  185SAPI   C3921257   4.406  -0.267   9.720 -0.3994  0.4671 -0.1762
  185SAPI   H9X21258   4.339  -0.353   9.699  0.5614 -0.1103 -0.9811
  185SAPI   H9Y21259   4.504  -0.317   9.736 -1.0440 -0.4869  0.9652
  185SAPI  C31021260   4.413  -0.170   9.606 -0.5958  0.1344  0.4264
  185SAPI  H10X21261   4.486  -0.091   9.633 -2.2820  1.9165 -0.0424
  185SAPI  H10Y21262   4.314  -0.121   9.596 -0.8875 -0.8046 -2.1958
  185SAPI  C31121263   4.439  -0.223   9.464 -0.0147  0.3844 -0.3681
  185SAPI  H11X21264   4.368  -0.307   9.451 -0.4638  0.2206  2.4666
  185SAPI  H11Y21265   4.538  -0.272   9.451  0.0923  0.1042  1.2279
  185SAPI  C31221266   4.414  -0.122   9.356  0.5436  0.1547 -0.3187
  185SAPI  H12X21267   4.438  -0.023   9.400 -0.9823 -0.0163  0.9637
  185SAPI  H12Y21268   4.306  -0.110   9.333  0.2548 -0.6352  0.5609
  185SAPI  C31321269   4.493  -0.133   9.226 -0.0309  0.1165  0.2936
  185SAPI  H13X21270   4.604  -0.142   9.237  0.0045 -2.1102 -1.2477
  185SAPI  H13Y21271   4.477  -0.036   9.176 -1.4898 -1.5729 -2.7780
  185SAPI  C31421272   4.447  -0.249   9.133 -0.1675  0.1772 -0.2098
  185SAPI  H14X21273   4.339  -0.242   9.107 -0.0204 -2.6464 -1.9972
  185SAPI  H14Y21274   4.450  -0.344   9.189  1.4525  1.4685  2.0829
  185SAPI  C31521275   4.536  -0.275   9.006  0.5154  0.0556 -0.2861
  185SAPI  H15X21276   4.489  -0.365   8.961  1.9154 -0.4533 -0.7671
  185SAPI  H15Y21277   4.635  -0.290   9.053 -0.6973  2.8004  3.7251
  185SAPI  C31621278   4.541  -0.154   8.914 -0.4053  0.2306 -0.9897
  185SAPI  H16X21279   4.614  -0.174   8.833 -1.6629  1.2690 -2.4327
  185SAPI  H16Y21280   4.583  -0.063   8.963  1.1641 -0.3482 -1.1991
  185SAPI  C31721281   4.409  -0.115   8.865 -0.0442  0.0216  0.0676
  185SAPI  H17X21282   4.339  -0.074   8.941 -0.1067  1.1945 -0.5978
  185SAPI  H17Y21283   4.359  -0.197   8.808  0.7610 -0.0999 -0.4876
  185SAPI  C31821284   4.424  -0.002   8.758  0.3518  0.2204 -0.3222
  185SAPI  H18X21285   4.330   0.017   8.703  0.7350 -0.3094 -1.1913
  185SAPI  H18Y21286   4.495  -0.035   8.679 -0.6013  0.3876 -1.2632
  185SAPI  H18Z21287   4.461   0.097   8.793  3.2208 -0.7057 -0.4738
  186SAPI   C1221288   5.465   3.772  11.051  0.5430  0.3994  0.2832
  186SAPI    H221289   5.505   3.804  10.952  1.0494 -1.2416 -0.0788
  186SAPI    O221290   5.574   3.757  11.135 -0.2787 -0.4959  0.2694
  186SAPI   HO221291   5.633   3.705  11.080 -0.4880  1.0780 -1.5771
  186SAPI   C1321292   5.373   3.884  11.110  0.3535 -0.3349  0.3376
  186SAPI    H321293   5.288   3.890  11.039  0.6112 -1.3874 -0.0861
  186SAPI    O321294   5.447   4.005  11.111  0.3068 -0.1279  0.3485
  186SAPI   HO321295   5.508   3.993  11.183  1.6724 -2.0752 -1.0256
  186SAPI   C1421296   5.321   3.849  11.243 -0.0164 -0.7557  0.1938
  186SAPI    H421297   5.403   3.830  11.315 -1.3885  0.0623  2.0390
  186SAPI    O421298   5.243   3.953  11.308  0.0590  0.0355  0.0592
  186SAPI   HO421299   5.305   4.009  11.355  0.5487  0.3135 -0.8926
  186SAPI   C1521300   5.239   3.715  11.227 -0.3577  0.1930 -0.0248
  186SAPI    H521301   5.157   3.735  11.155 -0.0144 -0.0412 -0.4888
  186SAPI    O521302   5.184   3.676  11.352  0.1221 -0.4884  0.2047
  186SAPI   HO521303   5.089   3.686  11.356  0.1941  0.0208  0.6808
  186SAPI   C1621304   5.329   3.605  11.167  0.2944  0.6333 -0.6588
  186SAPI    H621305   5.414   3.579  11.233  0.1813  0.9105 -0.4047
  186SAPI    O621306   5.248   3.486  11.158 -0.3001  0.0892  0.4652
  186SAPI   HO621307   5.182   3.500  11.089  0.2648 -1.2083 -0.3572
  186SAPI   C1121308   5.382   3.649  11.029  0.3486 -0.4665  0.1748
  186SAPI    H121309   5.301   3.685  10.961  2.5245  1.0947 -1.7167
  186SAPI     P21310   5.440   3.513  10.794 -0.0652 -0.2105  0.3053
  186SAPI   O1321311   5.295   3.526  10.764 -0.4221  0.5626 -0.4003
  186SAPI   O1421312   5.502   3.381  10.781  0.0360 -0.0069 -1.3898
  186SAPI   O1221313   5.462   3.550  10.959  0.2620 -0.1665  0.1449
  186SAPI   O1121314   5.527   3.633  10.734  0.1335  0.3109  0.4920
  186SAPI    C121315   5.570   3.634  10.592 -0.5273  0.3918 -0.2515
  186SAPI    HA21316   5.637   3.723  10.591  0.6430 -0.4621  0.2932
  186SAPI    HB21317   5.647   3.556  10.574 -1.1158 -0.4208  0.6230
  186SAPI    C221318   5.454   3.639  10.491 -0.0199 -0.3754 -0.4739
  186SAPI    HS21319   5.381   3.707  10.540 -0.3993  0.4729 -2.1534
  186SAPI   O2121320   5.405   3.507  10.473  0.1538 -0.5873 -0.1681
  186SAPI   C2121321   5.290   3.500  10.414  1.4959 -0.5039  0.6709
  186SAPI   O2221322   5.214   3.599  10.396  0.3566  0.0640  0.3854
  186SAPI   C2221323   5.242   3.362  10.391 -0.5216  0.3832 -0.1269
  186SAPI   H2R21324   5.266   3.300  10.479 -1.2778  1.0827  0.5861
  186SAPI   H2S21325   5.131   3.364  10.393 -0.5470 -0.3851 -0.4947
  186SAPI    C321326   5.492   3.698  10.358 -0.0043 -0.0296 -0.1884
  186SAPI    HX21327   5.513   3.807  10.360  0.1552 -0.0603 -0.1416
  186SAPI    HY21328   5.411   3.691  10.283 -1.8257  1.3949  1.5398
  186SAPI   O3121329   5.616   3.632  10.322 -0.0590 -0.4135  0.1122
  186SAPI   C3121330   5.644   3.593  10.193 -0.3691 -0.4103 -0.1343
  186SAPI   O3221331   5.576   3.615  10.098 -0.2465 -0.0604  0.4171
  186SAPI   C3221332   5.780   3.525  10.189 -0.0654 -0.5920 -0.4121
  186SAPI   H2X21333   5.792   3.470  10.285 -1.0328  1.1283  0.7509
  186SAPI   H2Y21334   5.857   3.606  10.198  1.1207 -1.7511  0.2751
  186SAPI   C2321335   5.287   3.293  10.266 -0.4250 -0.2263  0.3217
  186SAPI   H3R21336   5.396   3.313  10.255 -0.5711  1.9242  2.1344
  186SAPI   H3S21337   5.252   3.345  10.174  0.0953  0.5557  0.5526
  186SAPI   C2421338   5.245   3.142  10.261  0.2190 -0.1174 -0.4132
  186SAPI   H4R21339   5.321   3.082  10.315 -0.0744 -0.4792 -0.3966
  186SAPI   H4S21340   5.253   3.101  10.157  1.9544  0.4631 -0.5298
  186SAPI   C2521341   5.111   3.113  10.322  0.1007  0.3996 -0.5974
  186SAPI   H5R21342   5.118   3.117  10.431  0.1405  1.2249 -0.6239
  186SAPI   C2621343   4.995   3.083  10.256 -0.1285 -0.3118 -0.3509
  186SAPI   H6R21344   4.910   3.048  10.317 -1.1027 -0.8295 -1.9351
  186SAPI   C2721345   4.983   3.088  10.105 -0.6729 -0.9946 -0.1062
  186SAPI   H7R21346   5.075   3.052  10.055  0.2999 -1.6939  2.0526
  186SAPI   H7S21347   4.968   3.195  10.080  0.2813 -0.8451 -0.0417
  186SAPI   C2821348   4.871   3.001  10.059 -0.2817 -0.3937 -0.1518
  186SAPI   H8R21349   4.812   2.950  10.137  2.0492 -1.3553  1.0990
  186SAPI   C2921350   4.833   2.979   9.929  0.2449  0.8663 -0.0575
  186SAPI   H9R21351   4.734   2.935   9.913  0.4722  1.2398 -2.9383
  186SAPI  C21021352   4.893   3.029   9.807 -0.6150 -0.1958  0.5642
  186SAPI  H10R21353   4.974   3.100   9.832 -0.4580 -0.3717  0.5563
  186SAPI  H10S21354   4.817   3.089   9.753  0.2778  0.6823  0.2562
  186SAPI  C21121355   4.975   2.929   9.718  0.3861  0.4554  0.0708
  186SAPI  H11R21356   5.041   2.857   9.769 -1.0009 -1.8672 -1.2772
  186SAPI  C21221357   4.976   2.929   9.583 -0.4687 -0.5860  0.1932
  186SAPI  H12R21358   5.052   2.866   9.535  0.8151 -1.3553  2.9860
  186SAPI  C21321359   4.893   3.017   9.490 -0.2357 -0.2663  0.3802
  186SAPI  H13R21360   4.823   3.083   9.546 -1.8722 -1.0851 -0.6131
  186SAPI  H13S21361   4.824   2.946   9.440 -2.0058  1.6976 -0.0910
  186SAPI  C21421362   4.975   3.098   9.396  0.3937  0.1985 -0.0739
  186SAPI  H14R21363   5.036   3.175   9.446  0.5508 -0.9722  1.6361
  186SAPI  C21521364   4.965   3.106   9.265  0.6243  0.2884 -0.8213
  186SAPI  H15R21365   5.045   3.163   9.216  1.5769 -0.4536 -0.1671
  186SAPI  C21621366   4.876   3.034   9.168 -0.0899  0.4506  0.0836
  186SAPI  H16R21367   4.789   2.985   9.218 -0.8118  1.7965  0.1960
  186SAPI  H16S21368   4.936   2.955   9.119  0.1278 -0.2752  1.4749
  186SAPI  C21721369   4.817   3.137   9.073 -0.0601 -0.4588  0.3911
  186SAPI  H17R21370   4.897   3.212   9.055  1.0223 -1.8524 -0.8457
  186SAPI  H17S21371   4.732   3.189   9.122  0.7169  2.5113 -1.1932
  186SAPI  C21821372   4.760   3.072   8.942 -0.3435  0.1394  0.1441
  186SAPI  H18R21373   4.660   3.025   8.956  0.4301 -1.4725  0.5224
  186SAPI  H18S21374   4.832   2.997   8.902 -0.8708  0.0830 -0.7186
  186SAPI  C21921375   4.726   3.180   8.836  0.0549 -0.0756 -0.3532
  186SAPI  H19R21376   4.655   3.254   8.879 -1.9192 -1.8293 -0.4162
  186SAPI  H19S21377   4.645   3.134   8.776 -1.7343  0.0119  1.8486
  186SAPI  C22021378   4.830   3.247   8.758 -0.5253 -0.4188 -0.0650
  186SAPI  H20R21379   4.799   3.305   8.668  0.5495  0.0527 -0.1425
  186SAPI  H20S21380   4.906   3.174   8.722 -0.5279 -1.0140  1.0915
  186SAPI  H20T21381   4.883   3.324   8.817 -0.5605  0.8941 -1.6759
  186SAPI   C3321382   5.809   3.444  10.062  0.9444 -0.0194 -0.1615
  186SAPI   H3X21383   5.713   3.395  10.035 -0.5330  1.9545  1.2213
  186SAPI   H3Y21384   5.882   3.367  10.095  1.9212  1.3056  0.8819
  186SAPI   C3421385   5.857   3.528   9.939  0.2541 -0.3753  0.0470
  186SAPI   H4X21386   5.937   3.601   9.968 -1.6681  1.6546  0.5092
  186SAPI   H4Y21387   5.766   3.578   9.900 -1.1645 -1.4763  1.8138
  186SAPI   C3521388   5.917   3.447   9.828 -0.0650 -0.2114 -0.3860
  186SAPI   H5X21389   5.874   3.344   9.830 -1.3787  0.2689  3.1074
  186SAPI   H5Y21390   6.024   3.438   9.856  0.4860  0.3457 -2.1655
  186SAPI   C3621391   5.903   3.527   9.697 -0.2450  0.2011 -0.0093
  186SAPI   H6X21392   5.980   3.607   9.705 -2.1060  2.2299 -1.2800
  186SAPI   H6Y21393   5.799   3.562   9.684 -0.7431 -0.7678  1.1556
  186SAPI   C3721394   5.954   3.460   9.570  0.1098  0.5312  0.2127
  186SAPI   H7X21395   5.909   3.360   9.551  0.3330  0.6663 -1.1307
  186SAPI   H7Y21396   6.062   3.441   9.585  0.3529  1.8275  0.1727
  186SAPI   C3821397   5.941   3.558   9.461  0.3822 -0.5623  0.9271
  186SAPI   H8X21398   6.023   3.633   9.473  0.5013 -0.6634  0.7485
  186SAPI   H8Y21399   5.844   3.611   9.460  0.4951 -0.2673  2.6673
  186SAPI   C3921400   5.963   3.491   9.319 -0.0245 -0.0633 -0.2455
  186SAPI   H9X21401   5.888   3.412   9.298  1.3497 -1.7230  0.8025
  186SAPI   H9Y21402   6.058   3.437   9.298 -0.1186 -0.2084 -0.3007
  186SAPI  C31021403   5.949   3.598   9.210 -0.3019 -0.5992  0.6567
  186SAPI  H10X21404   6.033   3.671   9.211 -1.0939  0.3811 -0.7956
  186SAPI  H10Y21405   5.859   3.653   9.244  1.2242  0.9308  2.4398
  186SAPI  C31121406   5.925   3.540   9.068 -0.2704  0.0458  0.3024
  186SAPI  H11X21407   5.822   3.498   9.070 -1.6100  3.1494  2.1204
  186SAPI  H11Y21408   6.004   3.467   9.039 -1.1767 -0.3767 -1.1927
  186SAPI  C31221409   5.919   3.657   8.966 -0.2961 -0.0546  0.0984
  186SAPI  H12X21410   6.018   3.704   8.947 -0.5990 -0.3122 -2.5897
  186SAPI  H12Y21411   5.852   3.743   8.992 -0.4320  0.1548 -0.8945
  186SAPI  C31321412   5.858   3.613   8.833  0.1744 -0.0783  0.1740
  186SAPI  H13X21413   5.753   3.583   8.850  0.1489 -1.7720 -2.4014
  186SAPI  H13Y21414   5.913   3.525   8.794 -0.9840 -0.2240 -1.1767
  186SAPI  C31421415   5.867   3.723   8.720  0.1605  0.5582  0.4214
  186SAPI  H14X21416   5.859   3.664   8.626 -1.1902  2.2989 -0.6269
  186SAPI  H14Y21417   5.967   3.772   8.725  1.0114 -0.7185 -2.2597
  186SAPI  C31521418   5.740   3.813   8.717  0.1388  0.4988 -0.2263
  186SAPI  H15X21419   5.711   3.843   8.820 -0.0978 -0.2491 -0.0627
  186SAPI  H15Y21420   5.663   3.740   8.685 -0.4055  0.6110  0.7813
  186SAPI  C31621421   5.745   3.937   8.623 -0.3700 -0.2413  0.2997
  186SAPI  H16X21422   5.758   3.900   8.519 -0.6808 -1.3237  0.6298
  186SAPI  H16Y21423   5.837   3.993   8.651 -0.4208 -0.2128  0.4119
  186SAPI  C31721424   5.622   4.029   8.621 -0.0345  0.5429 -0.3212
  186SAPI  H17X21425   5.614   4.066   8.725 -1.3727  0.8194 -0.5034
  186SAPI  H17Y21426   5.533   3.964   8.605  1.1819 -0.9164 -1.4888
  186SAPI  C31821427   5.627   4.158   8.532  0.2421  0.0411 -0.3478
  186SAPI  H18X21428   5.721   4.213   8.553  0.7567 -1.3467  1.1444
  186SAPI  H18Y21429   5.527   4.206   8.542 -0.1195 -0.5444 -1.0294
  186SAPI  H18Z21430   5.623   4.127   8.425  0.6895  0.2583 -0.4311
  187SAPI   C1221431   1.600   4.789   6.231 -0.6872 -0.0204 -0.4385
  187SAPI    H221432   1.643   4.809   6.332  1.4633  1.1538 -1.5140
  187SAPI    O221433   1.593   4.647   6.216  0.1602  0.5599 -0.0958
  187SAPI   HO221434   1.671   4.606   6.254 -1.1385 -2.2978 -0.3162
  187SAPI   C1321435   1.470   4.856   6.217  0.2684 -0.1187  0.5399
  187SAPI    H321436   1.484   4.964   6.235 -0.7396  0.4411 -1.6645
  187SAPI    O321437   1.379   4.813   6.316 -0.7149  0.4803 -0.6384
  187SAPI   HO321438   1.388   4.867   6.395  2.5869 -0.3418 -0.3284
  187SAPI   C1421439   1.420   4.833   6.075  0.4818 -0.1038 -0.0245
  187SAPI    H421440   1.414   4.724   6.050 -1.2101 -0.1593  0.4758
  187SAPI    O421441   1.288   4.883   6.053  0.0303 -0.2993  0.6010
  187SAPI   HO421442   1.291   4.978   6.065  0.9027 -0.2644  0.1899
  187SAPI   C1521443   1.526   4.887   5.978 -0.0906 -0.6421 -0.3824
  187SAPI    H521444   1.528   4.996   5.997  0.3472 -0.7000 -0.0731
  187SAPI    O521445   1.503   4.852   5.842 -0.1375 -0.0749 -0.2534
  187SAPI   HO521446   1.421   4.893   5.814 -1.0090 -1.4811  0.1454
  187SAPI   C1621447   1.666   4.830   6.004  0.2398  0.3061  0.0725
  187SAPI    H621448   1.670   4.720   5.987  1.7877  0.5580 -1.5042
  187SAPI    O621449   1.766   4.877   5.916  0.3902  0.2887 -0.0061
  187SAPI   HO621450   1.837   4.933   5.949 -1.1699  2.2262  0.2462
  187SAPI   C1121451   1.706   4.851   6.147 -0.5075  0.0895 -0.5023
  187SAPI    H121452   1.690   4.957   6.175 -0.8286 -0.1008  0.0455
  187SAPI     P21453   1.966   4.884   6.190  0.2183 -0.1305  0.0180
  187SAPI   O1321454   1.962   4.990   6.088  0.5298  0.3884  0.0792
  187SAPI   O1421455   2.086   4.797   6.189  0.6818  0.2359  1.0404
  187SAPI   O1221456   1.833   4.792   6.177 -0.1807 -0.0214 -0.8773
  187SAPI   O1121457   1.948   4.950   6.333  0.4307  0.3647 -0.6261
  187SAPI    C121458   1.957   4.864   6.445 -0.3984  0.3580  0.3382
  187SAPI    HA21459   1.899   4.771   6.431  0.3340 -0.2518  1.2437
  187SAPI    HB21460   2.061   4.833   6.470  0.1550 -0.0918 -2.2539
  187SAPI    C221461   1.901   4.943   6.562 -0.4122 -0.3847 -0.5175
  187SAPI    HS21462   1.961   5.036   6.573  1.3453 -1.6466  1.2579
  187SAPI   O2121463   1.915   4.861   6.681 -0.1999 -0.2506  0.4122
  187SAPI   C2121464   2.033   4.851   6.731  0.4751 -0.7741 -0.3476
  187SAPI   O2221465   2.133   4.912   6.698  0.6411  0.2199 -0.1681
  187SAPI   C2221466   2.022   4.761   6.859  0.1768  0.5869  0.7346
  187SAPI   H2R21467   1.937   4.803   6.915 -1.5776 -1.5654 -0.1562
  187SAPI   H2S21468   1.985   4.663   6.822  1.6668 -0.0901  0.9561
  187SAPI    C321469   1.752   4.999   6.541 -0.4477 -0.6974 -0.2964
  187SAPI    HX21470   1.674   4.920   6.529 -0.6485 -0.5872  0.2924
  187SAPI    HY21471   1.755   5.051   6.442  1.9840  0.1913  0.1814
  187SAPI   O3121472   1.714   5.096   6.635  0.2998  0.4502 -0.2842
  187SAPI   C3121473   1.669   5.046   6.751  0.3199  0.6480 -0.5703
  187SAPI   O3221474   1.646   4.925   6.768 -0.3701 -0.0033 -0.0237
  187SAPI   C3221475   1.642   5.160   6.858 -0.6969  0.0673  0.1368
  187SAPI   H2X21476   1.609   5.246   6.797  2.0653 -1.4786 -3.9682
  187SAPI   H2Y21477   1.742   5.190   6.895 -1.1923  2.2658 -0.1936
  187SAPI   C2321478   2.149   4.764   6.951 -0.2599  0.2850 -0.1947
  187SAPI   H3R21479   2.133   4.852   7.016  0.6559 -1.0914  2.0010
  187SAPI   H3S21480   2.246   4.764   6.896 -0.4170 -1.9412 -0.5634
  187SAPI   C2421481   2.154   4.642   7.055 -0.0286 -0.6024  0.2878
  187SAPI   H4R21482   2.172   4.549   6.997 -1.4429 -1.7554  1.5946
  187SAPI   H4S21483   2.068   4.641   7.125  1.7903  2.2165  2.8554
  187SAPI   C2521484   2.282   4.664   7.137  0.4309  0.4230 -0.1583
  187SAPI   H5R21485   2.380   4.645   7.090  0.6851  0.1276  0.4821
  187SAPI   C2621486   2.274   4.713   7.262  0.1696 -0.1031 -0.2349
  187SAPI   H6R21487   2.364   4.734   7.321  0.3866 -0.6700 -0.3579
  187SAPI   C2721488   2.150   4.753   7.333 -0.2140 -1.0324 -0.6421
  187SAPI   H7R21489   2.096   4.657   7.353 -1.3341 -0.8153 -2.4068
  187SAPI   H7S21490   2.082   4.801   7.260 -0.7116 -0.4544  0.1901
  187SAPI   C2821491   2.154   4.848   7.452  0.0463 -0.4948 -0.8854
  187SAPI   H8R21492   2.165   4.956   7.433  4.6319 -0.0851  2.4618
  187SAPI   C2921493   2.174   4.807   7.578  0.1906  0.3998 -0.1545
  187SAPI   H9R21494   2.187   4.882   7.657  0.6226  0.3448 -0.1678
  187SAPI  C21021495   2.184   4.666   7.633  0.1228  0.2599 -0.7589
  187SAPI  H10R21496   2.246   4.595   7.573  0.8036 -1.0026  1.3111
  187SAPI  H10S21497   2.083   4.622   7.645  0.5090 -0.5413 -0.3385
  187SAPI  C21121498   2.260   4.663   7.762  0.0344 -0.2323 -0.0376
  187SAPI  H11R21499   2.358   4.714   7.757 -0.4185  0.9305  1.9065
  187SAPI  C21221500   2.230   4.612   7.881 -0.0415 -0.2509 -0.8098
  187SAPI  H12R21501   2.302   4.632   7.962 -1.5337 -1.4863  0.8983
  187SAPI  C21321502   2.104   4.541   7.929 -0.6276  0.0103  0.6368
  187SAPI  H13R21503   2.134   4.435   7.914 -0.3296  0.3007 -1.0193
  187SAPI  H13S21504   2.035   4.547   7.842  0.0402 -2.8656 -0.2028
  187SAPI  C21421505   2.051   4.569   8.071  0.2478  0.1107  0.1549
  187SAPI  H14R21506   1.991   4.661   8.074 -0.7334 -0.4429 -1.3109
  187SAPI  C21521507   2.042   4.485   8.173 -0.0927 -0.5326  0.0526
  187SAPI  H15R21508   2.001   4.525   8.267  1.1780  0.7544  0.0912
  187SAPI  C21621509   2.106   4.345   8.171 -0.4162 -0.2037 -1.2098
  187SAPI  H16R21510   2.137   4.317   8.273 -1.6282 -0.6977 -0.9579
  187SAPI  H16S21511   2.198   4.340   8.108  0.4721  0.4688 -0.0030
  187SAPI  C21721512   2.009   4.236   8.139 -0.3267 -0.5144 -0.3730
  187SAPI  H17R21513   2.011   4.216   8.030  0.9246 -2.6668 -0.0205
  187SAPI  H17S21514   1.906   4.250   8.178 -1.3100 -3.5562 -1.5223
  187SAPI  C21821515   2.051   4.099   8.207 -0.1185 -0.3402 -0.4922
  187SAPI  H18R21516   2.015   4.093   8.312 -0.6482  0.1114 -0.6414
  187SAPI  H18S21517   2.161   4.096   8.197  0.1913 -2.0402  2.4146
  187SAPI  C21921518   1.993   3.983   8.135  0.3589  0.2822 -0.6695
  187SAPI  H19R21519   2.023   3.989   8.028 -1.8214 -1.6411 -1.4870
  187SAPI  H19S21520   1.884   3.989   8.153  0.6695  1.2582  1.1522
  187SAPI  C22021521   2.035   3.843   8.194 -0.7062 -0.4457 -0.3915
  187SAPI  H20R21522   2.023   3.826   8.303  2.2216 -2.6841 -0.2864
  187SAPI  H20S21523   2.142   3.824   8.171  0.0430  1.1800  1.4683
  187SAPI  H20T21524   1.976   3.764   8.141 -0.7425 -1.1229  0.6137
  187SAPI   C3321525   1.554   5.113   6.973  0.4669  0.3786 -0.6209
  187SAPI   H3X21526   1.578   5.012   7.011  0.3320 -0.0827 -1.7282
  187SAPI   H3Y21527   1.449   5.095   6.941  0.2331 -0.0781  0.3559
  187SAPI   C3421528   1.552   5.221   7.084 -0.3874  0.0839 -0.7440
  187SAPI   H4X21529   1.502   5.317   7.059 -2.5883 -0.6040  0.6915
  187SAPI   H4Y21530   1.660   5.237   7.106  0.0789 -2.1569 -1.1673
  187SAPI   C3521531   1.485   5.162   7.206 -1.2136  0.0622 -0.7413
  187SAPI   H5X21532   1.551   5.077   7.233 -0.2337  0.2643 -2.3738
  187SAPI   H5Y21533   1.381   5.131   7.185 -1.0190 -0.8830 -0.3568
  187SAPI   C3621534   1.478   5.265   7.318  0.2456 -0.9647  0.2679
  187SAPI   H6X21535   1.432   5.211   7.403 -0.2953 -0.8991  0.0226
  187SAPI   H6Y21536   1.417   5.350   7.279  1.9870 -0.7447 -2.2540
  187SAPI   C3721537   1.611   5.321   7.369  0.7450 -0.0475  0.3669
  187SAPI   H7X21538   1.663   5.374   7.288 -2.9176 -1.2539 -3.1304
  187SAPI   H7Y21539   1.663   5.224   7.383  0.2262 -0.2095  1.3359
  187SAPI   C3821540   1.604   5.403   7.498 -0.0533 -0.0662  0.1792
  187SAPI   H8X21541   1.510   5.461   7.499  0.4287  0.8485 -1.7354
  187SAPI   H8Y21542   1.689   5.475   7.497  0.1205 -0.2658  0.4701
  187SAPI   C3921543   1.627   5.317   7.621  0.6207 -0.2436  0.1154
  187SAPI   H9X21544   1.728   5.272   7.609 -0.5607 -2.6645 -1.6720
  187SAPI   H9Y21545   1.554   5.234   7.605 -1.0438  1.1782 -0.0127
  187SAPI  C31021546   1.604   5.406   7.750  0.3710  0.1616  0.0321
  187SAPI  H10X21547   1.513   5.469   7.737  1.9071  2.3445 -0.7606
  187SAPI  H10Y21548   1.680   5.486   7.759 -0.9400  1.5493 -0.7274
  187SAPI  C31121549   1.587   5.338   7.885 -0.0047  0.3337  0.0094
  187SAPI  H11X21550   1.684   5.285   7.898  0.6493  1.3055 -0.7527
  187SAPI  H11Y21551   1.520   5.249   7.882  0.9026 -0.8098  4.7920
  187SAPI  C31221552   1.546   5.424   8.004  0.1474 -0.1154  0.1894
  187SAPI  H12X21553   1.500   5.519   7.967  0.6468  0.4858  1.0862
  187SAPI  H12Y21554   1.633   5.440   8.070  1.2170  3.4095 -1.7962
  187SAPI  C31321555   1.440   5.351   8.090  0.0554 -0.1211 -0.8933
  187SAPI  H13X21556   1.469   5.246   8.109  1.9488  0.3021 -1.2969
  187SAPI  H13Y21557   1.346   5.335   8.033  0.4792 -2.2348 -1.0605
  187SAPI  C31421558   1.393   5.429   8.218 -0.1533  0.4067 -0.6196
  187SAPI  H14X21559   1.474   5.439   8.295 -1.0020 -2.0535  0.7264
  187SAPI  H14Y21560   1.323   5.360   8.270  0.3153 -0.6887 -1.3997
  187SAPI  C31521561   1.326   5.563   8.188 -0.2348  0.3860  0.0034
  187SAPI  H15X21562   1.262   5.532   8.102  0.4313  0.3056 -0.4695
  187SAPI  H15Y21563   1.406   5.635   8.162 -1.0191  0.9927 -0.8444
  187SAPI  C31621564   1.246   5.622   8.309  0.5423 -0.2677  0.2153
  187SAPI  H16X21565   1.184   5.707   8.274 -1.9503 -1.4320  1.6215
  187SAPI  H16Y21566   1.321   5.656   8.383  0.7659  2.3823 -1.1070
  187SAPI  C31721567   1.139   5.527   8.379 -0.9377 -0.4162  0.2880
  187SAPI  H17X21568   1.189   5.430   8.401  1.2438  0.3918 -0.7252
  187SAPI  H17Y21569   1.051   5.507   8.315 -1.3088  1.9415 -0.0431
  187SAPI  C31821570   1.088   5.586   8.507  0.4664  0.3023  0.1830
  187SAPI  H18X21571   1.056   5.690   8.486  1.1077  0.3864 -0.3901
  187SAPI  H18Y21572   1.168   5.589   8.584  2.1589 -0.6853 -1.4424
  187SAPI  H18Z21573   1.001   5.529   8.546  1.9075 -1.3465  1.1229
  188SAPI   C1221574   3.874   0.761   6.001 -0.0585  0.3689 -0.8903
  188SAPI    H221575   3.968   0.716   6.040  0.3522 -0.7100 -2.9591
  188SAPI    O221576   3.904   0.883   5.941  0.2357 -0.7521  0.2970
  188SAPI   HO221577   3.977   0.867   5.880  0.7602 -1.1833  1.0137
  188SAPI   C1321578   3.809   0.674   5.899 -0.0898 -0.7980 -0.4820
  188SAPI    H321579   3.787   0.576   5.945  0.4130  0.2278  2.1210
  188SAPI    O321580   3.903   0.644   5.792 -0.1470  0.2285 -0.1251
  188SAPI   HO321581   3.933   0.556   5.817 -0.0270  0.7965  1.9335
  188SAPI   C1421582   3.671   0.721   5.856 -0.0886  0.2113 -0.3298
  188SAPI    H421583   3.673   0.824   5.813 -2.2202  1.4565  2.2186
  188SAPI    O421584   3.614   0.628   5.760  0.0038 -0.1881 -0.2225
  188SAPI   HO421585   3.621   0.668   5.674 -0.4106  1.2068  0.3674
  188SAPI   C1521586   3.572   0.723   5.980  0.2996 -0.4276 -0.1253
  188SAPI    H521587   3.560   0.619   6.016  1.7829  0.0951  2.0809
  188SAPI    O521588   3.442   0.769   5.948 -0.1362 -0.4855  0.2544
  188SAPI   HO521589   3.381   0.714   5.996 -0.9552  0.2976  0.1428
  188SAPI   C1621590   3.631   0.812   6.084  0.0270  0.5594 -0.3252
  188SAPI    H621591   3.641   0.913   6.040  1.2059  0.7400  0.3137
  188SAPI    O621592   3.549   0.822   6.196 -0.1071  0.1891 -0.3307
  188SAPI   HO621593   3.523   0.914   6.203 -0.9756 -0.1177  0.5757
  188SAPI   C1121594   3.778   0.769   6.123 -0.6126  0.0188  0.5989
  188SAPI    H121595   3.764   0.666   6.162 -1.1540  0.1678  0.8012
  188SAPI     P21596   3.928   0.776   6.343 -0.1510  0.0952  0.1718
  188SAPI   O1321597   4.019   0.871   6.404 -0.6164  0.6659  0.4860
  188SAPI   O1421598   3.975   0.643   6.301 -0.1344 -0.4035  0.0088
  188SAPI   O1221599   3.844   0.850   6.224  0.6774 -0.4601 -0.2474
  188SAPI   O1121600   3.814   0.748   6.451  0.1175 -0.3510  0.5122
  188SAPI    C121601   3.741   0.865   6.503 -0.1434  0.2398 -0.6608
  188SAPI    HA21602   3.683   0.911   6.419 -3.1400 -2.1243 -0.0536
  188SAPI    HB21603   3.654   0.833   6.564 -0.2718  1.7452  0.0088
  188SAPI    C221604   3.817   0.970   6.590 -0.5606 -0.0209 -0.0427
  188SAPI    HS21605   3.892   1.024   6.528 -2.6480  1.1185 -1.7049
  188SAPI   O2121606   3.877   0.900   6.701 -0.1402 -1.1679 -0.1550
  188SAPI   C2121607   3.983   0.963   6.761  0.0387  0.4923 -0.3307
  188SAPI   O2221608   4.036   1.062   6.716 -0.6260 -0.1503 -0.0977
  188SAPI   C2221609   4.012   0.893   6.894 -0.7972  0.0659  0.3142
  188SAPI   H2R21610   3.927   0.827   6.918 -0.7374  0.8377  3.0569
  188SAPI   H2S21611   4.100   0.833   6.861 -2.5206 -0.9233 -2.9394
  188SAPI    C321612   3.722   1.091   6.641 -0.6341 -0.5151  0.4910
  188SAPI    HX21613   3.662   1.146   6.565 -1.4918 -0.8712  0.8912
  188SAPI    HY21614   3.787   1.171   6.681 -0.1830  0.0726 -1.3019
  188SAPI   O3121615   3.642   1.033   6.745 -0.2978  0.0416 -0.8157
  188SAPI   C3121616   3.522   0.992   6.717 -0.7957  0.0910  0.4087
  188SAPI   O3221617   3.468   0.991   6.609  0.0589 -0.1270 -0.7612
  188SAPI   C3221618   3.451   0.953   6.852 -0.6961 -0.4606  0.5961
  188SAPI   H2X21619   3.494   0.853   6.876 -0.3435 -0.1479  1.2980
  188SAPI   H2Y21620   3.343   0.953   6.828 -0.1001 -1.1819 -2.4832
  188SAPI   C2321621   4.047   0.991   7.006  0.0008  0.6803  0.2789
  188SAPI   H3R21622   4.109   1.075   6.970 -1.1694  2.5591  2.3316
  188SAPI   H3S21623   4.101   0.941   7.089  0.3390  0.0938 -0.2870
  188SAPI   C2421624   3.913   1.039   7.073  0.2908 -0.7191 -0.0514
  188SAPI   H4R21625   3.844   0.958   7.105 -0.4643  1.0885  3.5120
  188SAPI   H4S21626   3.853   1.107   7.009  2.1300  0.1556 -0.9142
  188SAPI   C2521627   3.939   1.130   7.193  0.0252  0.4635  0.3412
  188SAPI   H5R21628   4.020   1.201   7.170  0.9371 -1.7326 -4.7809
  188SAPI   C2621629   3.881   1.134   7.312 -0.1502 -0.1508 -0.3627
  188SAPI   H6R21630   3.919   1.210   7.381 -0.1912  0.1699 -0.6886
  188SAPI   C2721631   3.766   1.056   7.365  0.4255  0.5008 -1.0200
  188SAPI   H7R21632   3.740   0.981   7.288  2.3689 -0.6119 -0.6734
  188SAPI   H7S21633   3.683   1.127   7.382 -0.6635 -1.0941  0.6524
  188SAPI   C2821634   3.796   0.980   7.491  0.0291  0.2679 -0.5626
  188SAPI   H8R21635   3.793   0.872   7.472  1.2468 -0.4034  2.4673
  188SAPI   C2921636   3.810   1.042   7.610 -0.0028  0.4320 -0.4230
  188SAPI   H9R21637   3.814   0.979   7.700  2.6773  1.3649  0.2141
  188SAPI  C21021638   3.806   1.183   7.646  0.7627  0.3173 -0.3353
  188SAPI  H10R21639   3.719   1.190   7.714  0.1339 -2.4992 -0.7284
  188SAPI  H10S21640   3.787   1.257   7.564  0.8893 -1.5136 -2.0910
  188SAPI  C21121641   3.934   1.227   7.710 -0.1001  0.1086 -0.2506
  188SAPI  H11R21642   3.990   1.296   7.645  1.4422 -1.4582 -0.6565
  188SAPI  C21221643   3.985   1.226   7.834  0.2863 -0.2816 -0.7395
  188SAPI  H12R21644   4.083   1.271   7.854  0.1775 -0.4781  0.2745
  188SAPI  C21321645   3.921   1.170   7.963  0.3443 -0.3460 -0.1039
  188SAPI  H13R21646   3.813   1.194   7.963  0.4885  0.3766  1.3328
  188SAPI  H13S21647   3.967   1.231   8.044  2.3812 -1.4950 -0.3416
  188SAPI  C21421648   3.941   1.023   7.991  0.6392 -0.3286 -0.1445
  188SAPI  H14R21649   3.977   0.973   7.900 -2.7360 -0.7809 -1.3747
  188SAPI  C21521650   3.889   0.952   8.094 -0.4516  0.2753 -0.4582
  188SAPI  H15R21651   3.912   0.844   8.101  3.0388  0.9266  0.2065
  188SAPI  C21621652   3.793   1.011   8.197 -0.7224 -0.3640  1.0347
  188SAPI  H16R21653   3.697   1.054   8.160 -0.2666  2.1148  2.5541
  188SAPI  H16S21654   3.851   1.082   8.259  0.1755 -1.4077  1.4370
  188SAPI  C21721655   3.761   0.897   8.292 -0.4100 -0.2297  0.2308
  188SAPI  H17R21656   3.847   0.851   8.345  0.8102 -1.6436 -2.7504
  188SAPI  H17S21657   3.731   0.808   8.233  0.6647 -1.3817  1.3486
  188SAPI  C21821658   3.643   0.930   8.380  0.2174 -0.8400  0.1128
  188SAPI  H18R21659   3.602   0.831   8.410  2.2087 -2.6012 -2.5622
  188SAPI  H18S21660   3.567   0.982   8.317 -0.0951 -1.0561  0.3121
  188SAPI  C21921661   3.678   1.014   8.510  0.4853 -0.3813  0.2460
  188SAPI  H19R21662   3.744   1.101   8.495 -2.1439  1.6595 -0.2870
  188SAPI  H19S21663   3.736   0.948   8.579  1.3560 -1.6869 -1.6401
  188SAPI  C22021664   3.549   1.052   8.572  0.3055 -0.1076 -0.2946
  188SAPI  H20R21665   3.481   0.967   8.596  0.2067  0.6219  2.2995
  188SAPI  H20S21666   3.497   1.114   8.497  1.3476 -1.9184 -2.6245
  188SAPI  H20T21667   3.572   1.100   8.670 -0.9062 -0.9107  0.4208
  188SAPI   C3321668   3.464   1.045   6.976 -0.0785 -0.8991  0.4768
  188SAPI   H3X21669   3.543   1.122   6.958  2.3379 -3.1259  0.8580
  188SAPI   H3Y21670   3.489   0.973   7.057 -0.8399 -1.2273  0.4255
  188SAPI   C3421671   3.331   1.105   7.027  0.6741  0.8931  0.2941
  188SAPI   H4X21672   3.267   1.023   7.065  1.2631 -0.8180 -2.1731
  188SAPI   H4Y21673   3.265   1.150   6.950  0.3600  2.7120  1.5811
  188SAPI   C3521674   3.348   1.222   7.125 -0.1948 -0.5982  0.0507
  188SAPI   H5X21675   3.255   1.282   7.129 -0.1978 -0.6396  0.8289
  188SAPI   H5Y21676   3.432   1.284   7.088  0.3754 -0.4936  1.4750
  188SAPI   C3621677   3.373   1.167   7.265 -0.2440 -0.3320 -0.7881
  188SAPI   H6X21678   3.477   1.127   7.263  0.1647  0.6497 -0.0684
  188SAPI   H6Y21679   3.298   1.087   7.282 -0.1902 -0.2175  0.0334
  188SAPI   C3721680   3.366   1.278   7.377  0.3583  0.0983  0.7346
  188SAPI   H7X21681   3.269   1.332   7.380 -0.0016 -0.5863  3.3789
  188SAPI   H7Y21682   3.443   1.355   7.356  0.3646 -0.6998 -2.8880
  188SAPI   C3821683   3.394   1.223   7.517  0.4692  0.2007  0.2294
  188SAPI   H8X21684   3.479   1.152   7.528  0.9442  0.8444  0.7709
  188SAPI   H8Y21685   3.310   1.160   7.552  0.1201  0.6878  0.2790
  188SAPI   C3921686   3.437   1.334   7.616  0.6851 -0.3979  0.4840
  188SAPI   H9X21687   3.371   1.422   7.600  0.5340 -0.3492  1.3107
  188SAPI   H9Y21688   3.545   1.359   7.607  0.3813  0.7049 -0.3479
  188SAPI  C31021689   3.427   1.285   7.768  0.2621  0.2598  0.4620
  188SAPI  H10X21690   3.500   1.201   7.772  0.8132  0.7493  0.9066
  188SAPI  H10Y21691   3.326   1.246   7.794 -0.0663 -0.5727 -1.8430
  188SAPI  C31121692   3.492   1.383   7.866  0.2094  0.4577  0.2130
  188SAPI  H11X21693   3.453   1.487   7.862  0.5418  0.5717 -0.1167
  188SAPI  H11Y21694   3.598   1.398   7.838  0.2840 -0.6589 -0.1831
  188SAPI  C31221695   3.489   1.336   8.019 -0.3808 -0.0968  0.6466
  188SAPI  H12X21696   3.533   1.234   8.020 -2.1438 -1.0409 -2.6367
  188SAPI  H12Y21697   3.383   1.341   8.051 -1.3460 -0.9349 -2.1288
  188SAPI  C31321698   3.591   1.424   8.095 -0.0216  0.0678  0.0026
  188SAPI  H13X21699   3.562   1.531   8.099  2.0731  0.6348  0.8890
  188SAPI  H13Y21700   3.693   1.416   8.051  0.9673  1.5238  1.9170
  188SAPI  C31421701   3.608   1.379   8.239  0.3007 -0.3282 -0.2671
  188SAPI  H14X21702   3.629   1.270   8.235 -0.9772 -0.6230  0.2915
  188SAPI  H14Y21703   3.513   1.394   8.295  0.6357  1.5933 -0.1599
  188SAPI  C31521704   3.710   1.438   8.334 -0.4797 -0.4802 -0.8071
  188SAPI  H15X21705   3.701   1.404   8.440  1.6272 -2.7148 -1.2466
  188SAPI  H15Y21706   3.690   1.547   8.325 -2.5743 -0.8270 -0.8914
  188SAPI  C31621707   3.851   1.402   8.285  0.3084 -0.0171 -0.2092
  188SAPI  H16X21708   3.874   1.426   8.179 -1.1058  1.5529 -0.2055
  188SAPI  H16Y21709   3.882   1.296   8.298 -0.0797 -0.3926 -2.1331
  188SAPI  C31721710   3.951   1.497   8.354 -0.1137 -0.2746 -0.6633
  188SAPI  H17X21711   3.936   1.600   8.315  0.6383 -1.4214 -4.3462
  188SAPI  H17Y21712   4.053   1.469   8.319  0.7001  2.2075 -0.5057
  188SAPI  C31821713   3.943   1.494   8.509  0.7951 -0.0342  0.4571
  188SAPI  H18X21714   3.956   1.391   8.550 -1.9110 -0.5296  0.2574
  188SAPI  H18Y21715   3.840   1.518   8.543 -0.1720 -0.9311 -1.6843
  188SAPI  H18Z21716   4.023   1.555   8.556 -0.4127  0.9452  1.3164
  189POPC     N21717   2.737   3.838  11.044 -0.7024  0.1159  0.5850
  189POPC   C1221718   2.834   3.778  10.946  0.5960  0.0373  0.7937
  189POPC  H12A21719   2.916   3.729  10.995  1.9249  1.3132 -0.0407
  189POPC  H12B21720   2.879   3.855  10.884 -2.1603  0.6813 -0.5879
  189POPC   C1321721   2.679   3.732  11.133  0.3014 -0.3273  0.3874
  189POPC  H13A21722   2.761   3.692  11.191  2.3282 -1.3835 -2.9476
  189POPC  H13B21723   2.597   3.766  11.196  0.4688  0.3280  0.2599
  189POPC  H13C21724   2.651   3.647  11.073  1.9275  0.6153 -1.8349
  189POPC   C1421725   2.820   3.941  11.120 -0.0869 -0.1902  0.0428
  189POPC  H14A21726   2.774   3.971  11.213 -0.7251  0.4423 -0.4664
  189POPC  H14B21727   2.915   3.901  11.152 -1.0120 -0.9046  2.0520
  189POPC  H14C21728   2.834   4.026  11.054 -0.4714 -1.6461 -2.0209
  189POPC   C1521729   2.629   3.913  10.961 -0.5038  0.8972  0.1975
  189POPC  H15A21730   2.565   3.843  10.910  1.3722 -1.9412  1.4496
  189POPC  H15B21731   2.679   3.973  10.887  0.9187 -1.4612 -0.8892
  189POPC  H15C21732   2.572   3.973  11.030 -1.6978 -1.2455  1.1895
  189POPC   C1121733   2.765   3.671  10.851 -0.2178 -0.2903 -0.3768
  189POPC  H11A21734   2.842   3.647  10.774  2.2428  2.5431  1.0210
  189POPC  H11B21735   2.681   3.706  10.787 -0.4932 -1.1747 -0.5189
  189POPC     P21736   2.772   3.405  10.897 -0.1632  0.0663 -0.5119
  189POPC   O1321737   2.695   3.308  10.982 -0.2655 -0.0681  0.1671
  189POPC   O1421738   2.921   3.414  10.925  0.2145  0.1750  0.1011
  189POPC   O1221739   2.714   3.552  10.916 -0.2534 -0.0538 -0.5375
  189POPC   O1121740   2.738   3.367  10.743  0.0174 -0.0474 -0.0591
  189POPC    C121741   2.604   3.378  10.697 -0.7111 -0.2281  0.6116
  189POPC    HA21742   2.561   3.476  10.725  0.0779  0.6685 -1.1468
  189POPC    HB21743   2.541   3.296  10.737 -0.5261  0.2431  1.9163
  189POPC    C221744   2.592   3.377  10.546 -0.0456 -0.1222  0.1737
  189POPC    HS21745   2.485   3.393  10.521  0.7126  1.4554 -2.4235
  189POPC   O2121746   2.650   3.258  10.489 -0.4631 -0.0854  0.5360
  189POPC   C2121747   2.579   3.156  10.499  0.8766  0.9386 -0.2904
  189POPC   O2221748   2.464   3.148  10.544  0.0833  0.6755 -0.1980
  189POPC   C2221749   2.656   3.035  10.442 -0.0866 -0.4511  0.0958
  189POPC   H2R21750   2.646   2.955  10.519 -0.8832 -1.2988 -0.8524
  189POPC   H2S21751   2.762   3.063  10.425 -0.7902  2.2403 -0.3042
  189POPC    C321752   2.677   3.492  10.481  0.0003  0.2915 -0.9287
  189POPC    HX21753   2.785   3.480  10.505 -0.8240 -1.5632  2.6041
  189POPC    HY21754   2.643   3.588  10.526  0.1875 -1.6705  4.0391
  189POPC   O3121755   2.672   3.491  10.341  0.2223  0.1761 -0.0623
  189POPC   C3121756   2.555   3.513  10.284 -0.3113  0.1334  0.1466
  189POPC   O3221757   2.453   3.546  10.337 -0.8949 -0.4334  0.6096
  189POPC   C3221758   2.579   3.528  10.135 -0.3667 -0.4483 -0.1249
  189POPC   H2X21759   2.654   3.451  10.109 -0.2140 -0.5784  0.6720
  189POPC   H2Y21760   2.630   3.625  10.119 -1.4860  0.1448 -0.2077
  189POPC   C2321761   2.612   2.992  10.303  0.4769  0.0304  0.7226
  189POPC   H3R21762   2.504   2.968  10.317 -0.4711  2.8623 -0.8395
  189POPC   H3S21763   2.660   2.897  10.272 -4.3349 -1.9112 -1.7514
  189POPC   C2421764   2.627   3.093  10.194  0.5341 -0.3497 -0.2694
  189POPC   H4R21765   2.729   3.135  10.181  0.6275 -0.3094  0.5442
  189POPC   H4S21766   2.569   3.183  10.224 -0.5337 -1.1178  0.0307
  189POPC   C2521767   2.600   3.043  10.053  0.3183 -0.2776 -0.5498
  189POPC   H5R21768   2.516   3.101  10.009 -0.9062 -3.2687 -2.5480
  189POPC   H5S21769   2.553   2.942  10.050 -0.6620  0.1216  0.6164
  189POPC   C2621770   2.719   3.039   9.967  0.0197 -0.2014 -0.0946
  189POPC   H6R21771   2.803   2.987  10.018  1.1715  1.1806 -0.5034
  189POPC   H6S21772   2.768   3.139   9.959  1.5122 -0.7033  1.8925
  189POPC   C2721773   2.692   2.970   9.830  0.1329 -0.0375 -0.2920
  189POPC   H7R21774   2.607   3.015   9.775  3.0994  1.6285 -3.9796
  189POPC   H7S21775   2.657   2.866   9.849 -1.4504  0.3313 -1.0025
  189POPC   C2821776   2.818   2.958   9.738  0.0551 -0.0448  0.1079
  189POPC   H8R21777   2.903   2.932   9.806  1.3991  0.0217 -1.4817
  189POPC   H8S21778   2.837   3.059   9.696  0.2382 -0.6188 -1.2191
  189POPC   C2921779   2.792   2.869   9.623 -0.5791 -0.5693 -0.2986
  189POPC   H9121780   2.727   2.782   9.641 -1.0968  0.0236  0.7746
  189POPC  C21021781   2.840   2.886   9.500  0.3255 -0.9450  0.1874
  189POPC  H10121782   2.800   2.824   9.417 -0.9580 -1.8226  1.4162
  189POPC  C21121783   2.916   3.005   9.445  0.4179  0.0137 -0.3646
  189POPC  H11R21784   2.913   3.098   9.506 -0.9969 -0.8556  0.9420
  189POPC  H11S21785   2.890   3.037   9.341 -1.9379  1.8411  0.6959
  189POPC  C21221786   3.068   2.959   9.443  0.3129  0.1466 -0.2744
  189POPC  H12R21787   3.096   2.949   9.550 -1.5423 -0.3551  0.1889
  189POPC  H12S21788   3.137   3.045   9.424  0.7577 -0.3494 -0.9511
  189POPC  C21321789   3.098   2.836   9.361 -0.5281  1.0356 -0.0475
  189POPC  H13R21790   3.029   2.750   9.373  0.3228 -0.2422 -3.1756
  189POPC  H13S21791   3.198   2.803   9.398 -1.8199 -0.7169  2.1704
  189POPC  C21421792   3.106   2.856   9.211 -0.2126 -0.8879 -0.2602
  189POPC  H14R21793   3.177   2.940   9.199 -1.1816  0.0042  0.1198
  189POPC  H14S21794   3.000   2.877   9.186 -0.3328  0.7984  1.4181
  189POPC  C21521795   3.145   2.726   9.139  0.2765  0.1057  0.1010
  189POPC  H15R21796   3.087   2.639   9.177  0.1182  0.3443  0.4112
  189POPC  H15S21797   3.254   2.705   9.144 -0.2737 -3.2425  0.3897
  189POPC  C21621798   3.091   2.751   8.997  0.1840  0.2834 -0.4360
  189POPC  H16R21799   2.983   2.778   9.007 -0.8477 -2.8047 -1.9716
  189POPC  H16S21800   3.082   2.657   8.938  1.7057 -0.2143  0.0944
  189POPC  C21721801   3.166   2.851   8.906  0.7505  1.0540  0.0628
  189POPC  H17R21802   3.271   2.820   8.887  0.7011  0.5013  0.6761
  189POPC  H17S21803   3.168   2.952   8.950 -2.2847  2.1970 -2.0725
  189POPC  C21821804   3.101   2.873   8.765 -0.0676 -0.0140 -0.7390
  189POPC  H18R21805   2.996   2.907   8.777  0.3791  0.5384  2.2818
  189POPC  H18S21806   3.105   2.777   8.710  2.3413  0.0630 -0.8208
  189POPC  H18T21807   3.169   2.943   8.711  0.3096 -0.8069 -1.3141
  189POPC   C3321808   2.454   3.511  10.043 -0.2383 -0.3561  1.2587
  189POPC   H3X21809   2.389   3.601  10.041 -0.4846 -0.5362  0.9982
  189POPC   H3Y21810   2.404   3.416  10.073 -0.5136 -0.4369  0.5716
  189POPC   C3421811   2.487   3.502   9.895 -0.3392  1.2422 -0.7017
  189POPC   H4X21812   2.573   3.568   9.871  0.7899 -0.3749 -1.2595
  189POPC   H4Y21813   2.403   3.535   9.831 -1.5501 -2.6203 -1.3879
  189POPC   C3521814   2.529   3.362   9.849  0.4901 -0.1040  0.1878
  189POPC   H5X21815   2.440   3.295   9.851 -0.8118  1.4278 -2.0848
  189POPC   H5Y21816   2.592   3.321   9.931 -1.1755 -0.4081  1.3729
  189POPC   C3621817   2.616   3.359   9.720  0.2268  0.7677 -0.1253
  189POPC   H6X21818   2.640   3.251   9.705  0.0613  0.7593 -0.3300
  189POPC   H6Y21819   2.710   3.415   9.737  1.2299 -0.6234 -0.8648
  189POPC   C3721820   2.549   3.411   9.596 -0.0031  0.6321  0.7327
  189POPC   H7X21821   2.553   3.522   9.597 -0.4965  0.6655 -0.1031
  189POPC   H7Y21822   2.444   3.376   9.601  0.3524 -0.4434  0.9664
  189POPC   C3821823   2.623   3.383   9.459 -0.1308  0.1070  0.4708
  189POPC   H8X21824   2.638   3.275   9.440 -0.0678  0.0780  0.6832
  189POPC   H8Y21825   2.727   3.416   9.478  0.1989 -1.4407  1.5514
  189POPC   C3921826   2.579   3.460   9.327  0.3176  0.3440  0.4242
  189POPC   H9X21827   2.647   3.434   9.243 -1.7151  2.6213 -2.1064
  189POPC   H9Y21828   2.603   3.568   9.338 -0.5797  0.5094  0.8818
  189POPC  C31021829   2.429   3.427   9.298  0.2673 -0.4882  0.4202
  189POPC  H10X21830   2.365   3.463   9.381 -1.0636  0.2155 -0.8738
  189POPC  H10Y21831   2.411   3.318   9.295  1.2261 -0.6292 -1.7934
  189POPC  C31121832   2.385   3.489   9.172  1.1982 -1.3479  0.9759
  189POPC  H11X21833   2.438   3.586   9.163  0.4835 -1.0524 -0.2447
  189POPC  H11Y21834   2.275   3.506   9.166  1.7418  2.1949 -1.3400
  189POPC  C31221835   2.424   3.413   9.049  0.0539  0.3876  0.3788
  189POPC  H12X21836   2.364   3.320   9.046 -0.1830  0.4361  2.1775
  189POPC  H12Y21837   2.533   3.394   9.039  0.2786  1.4836  0.5532
  189POPC  C31321838   2.381   3.494   8.922 -0.3450  0.1348 -0.0729
  189POPC  H13X21839   2.428   3.592   8.946  3.7658 -1.7626  0.4042
  189POPC  H13Y21840   2.273   3.520   8.913 -0.2745  0.3130 -0.4451
  189POPC  C31421841   2.422   3.433   8.785  0.3458 -0.2120  0.4283
  189POPC  H14X21842   2.366   3.338   8.780 -1.6196  0.7295  2.4820
  189POPC  H14Y21843   2.530   3.408   8.779  0.1205 -1.3035  0.6657
  189POPC  C31521844   2.398   3.526   8.666  0.3710 -0.0203 -0.4569
  189POPC  H15X21845   2.468   3.612   8.675  0.1440  0.1921 -0.7008
  189POPC  H15Y21846   2.298   3.573   8.673  1.3056  2.2524 -1.2650
  189POPC  C31621847   2.419   3.452   8.537  0.0314 -0.0374 -0.2144
  189POPC  H16X21848   2.394   3.522   8.454 -2.0515  0.7789  1.0518
  189POPC  H16Y21849   2.348   3.368   8.525 -1.4530  1.2492 -0.7112
  189POPC  H16Z21850   2.518   3.402   8.527 -0.1328 -0.6770  1.1624
  190POPC     N21851   3.772   6.108  11.084  0.1422 -0.3487  0.2768
  190POPC   C1221852   3.840   6.059  10.957  0.2737  0.1936 -0.1481
  190POPC  H12A21853   3.892   6.142  10.913  0.6719 -0.3335 -0.6987
  190POPC  H12B21854   3.763   6.021  10.891  0.3513  2.4127 -1.6086
  190POPC   C1321855   3.699   6.233  11.048 -0.0196 -0.6392 -0.0177
  190POPC  H13A21856   3.654   6.222  10.951  0.6353 -3.1229 -0.1022
  190POPC  H13B21857   3.624   6.247  11.125  1.0586 -1.1305  1.1641
  190POPC  H13C21858   3.771   6.314  11.050  0.3439 -0.9408 -0.7874
  190POPC   C1421859   3.669   5.995  11.122  0.7916  0.1563  0.1039
  190POPC  H14A21860   3.721   5.903  11.099  0.7441  0.7059 -2.5524
  190POPC  H14B21861   3.623   6.000  11.220  1.3611 -0.6123  0.4190
  190POPC  H14C21862   3.583   6.002  11.057 -0.9554 -0.1522  2.2299
  190POPC   C1521863   3.876   6.123  11.196 -0.4480 -0.2100 -0.4744
  190POPC  H15A21864   3.934   6.036  11.220 -0.8076  0.2556  2.3999
  190POPC  H15B21865   3.839   6.161  11.290 -0.6513  0.9757 -1.0119
  190POPC  H15C21866   3.955   6.183  11.152 -2.2043  0.7330 -2.5829
  190POPC   C1121867   3.949   5.949  10.959 -0.9345 -0.3401  0.1158
  190POPC  H11A21868   4.031   6.003  11.012 -1.1481  0.6798 -0.5719
  190POPC  H11B21869   3.972   5.927  10.852 -0.1213 -2.3432  0.6512
  190POPC     P21870   3.862   5.705  10.983 -0.0808  0.1493 -0.0548
  190POPC   O1321871   3.717   5.724  10.950 -0.5158  0.2293 -0.6037
  190POPC   O1421872   3.892   5.592  11.075  0.1345  0.9788 -0.7307
  190POPC   O1221873   3.928   5.838  11.034 -0.3775 -0.4470 -0.1028
  190POPC   O1121874   3.929   5.678  10.846 -0.1847 -0.2848  0.3939
  190POPC    C121875   4.067   5.648  10.827 -0.3993 -0.0789 -0.3672
  190POPC    HA21876   4.083   5.539  10.836  0.3484 -0.0159 -0.8507
  190POPC    HB21877   4.130   5.709  10.896  0.5410 -0.8758 -0.5004
  190POPC    C221878   4.115   5.684  10.690  0.5022 -0.0387 -0.5879
  190POPC    HS21879   4.216   5.639  10.675 -0.2054 -1.4617 -1.2539
  190POPC   O2121880   4.109   5.826  10.670  0.1506 -0.0700 -0.4412
  190POPC   C2121881   4.213   5.889  10.724  0.3793  0.0217  0.3491
  190POPC   O2221882   4.311   5.831  10.773 -0.2941  0.4214 -0.1191
  190POPC   C2221883   4.209   6.036  10.693 -0.0679 -0.0515  0.9875
  190POPC   H2R21884   4.190   6.093  10.786 -3.8486 -0.1517  0.4507
  190POPC   H2S21885   4.131   6.054  10.615  0.8069  1.2157  0.3794
  190POPC    C321886   4.018   5.607  10.586 -0.1010 -0.0248 -0.1629
  190POPC    HX21887   3.917   5.651  10.600 -0.1181  0.1537 -0.8294
  190POPC    HY21888   4.014   5.498  10.606  0.0680 -0.1887 -1.0071
  190POPC   O3121889   4.061   5.617  10.445 -0.2575  0.2219  0.1806
  190POPC   C3121890   3.979   5.555  10.354  0.6010  0.1079 -0.7203
  190POPC   O3221891   3.872   5.506  10.387  0.4307 -0.2833  0.2757
  190POPC   C3221892   4.031   5.555  10.212 -0.6292  0.0382  0.3167
  190POPC   H2X21893   4.096   5.467  10.197  3.0265  2.6184 -0.3443
  190POPC   H2Y21894   4.087   5.649  10.190 -1.5430  0.0617 -2.2933
  190POPC   C2321895   4.332   6.087  10.616 -0.2557 -0.4510 -0.3205
  190POPC   H3R21896   4.417   6.067  10.685  1.2567 -0.6719 -2.1449
  190POPC   H3S21897   4.320   6.196  10.600  2.6274  0.1645  1.1393
  190POPC   C2421898   4.355   6.025  10.475 -0.4365 -0.5919 -0.3317
  190POPC   H4R21899   4.366   5.917  10.496  2.5519  0.0938  2.4326
  190POPC   H4S21900   4.458   6.051  10.441  0.2573 -2.3864  0.2898
  190POPC   C2521901   4.249   6.075  10.380  0.5043  0.1372  0.4646
  190POPC   H5R21902   4.218   6.182  10.384 -1.6186 -0.4380  0.3634
  190POPC   H5S21903   4.154   6.019  10.394  0.8473 -0.2081  1.4949
  190POPC   C2621904   4.284   6.057  10.228  0.1398  0.3834 -0.3747
  190POPC   H6R21905   4.369   6.124  10.204 -0.4967  1.7374  0.9682
  190POPC   H6S21906   4.194   6.090  10.170 -0.9789 -0.1063  1.0266
  190POPC   C2721907   4.304   5.909  10.179 -0.1330 -0.0093  0.1571
  190POPC   H7R21908   4.216   5.850  10.213  0.7596 -0.3495  2.0031
  190POPC   H7S21909   4.394   5.874  10.235 -0.6287  0.5619  1.3420
  190POPC   C2821910   4.346   5.893  10.028  0.3244  0.4659 -0.0922
  190POPC   H8R21911   4.381   5.788  10.014 -2.2075 -0.3993 -0.3891
  190POPC   H8S21912   4.432   5.962  10.012 -0.0513  1.7572  2.8322
  190POPC   C2921913   4.237   5.937   9.942  1.1356 -0.6026 -0.6933
  190POPC   H9121914   4.142   5.970   9.986  0.6917 -1.0916 -1.2694
  190POPC  C21021915   4.232   5.933   9.810 -0.4045  0.5611  0.4533
  190POPC  H10121916   4.153   5.993   9.764  0.9743  1.6457 -0.5944
  190POPC  C21121917   4.342   5.884   9.720 -0.3312  0.3302  0.1504
  190POPC  H11R21918   4.319   5.778   9.695  1.3689  0.2741 -1.4515
  190POPC  H11S21919   4.447   5.895   9.754  0.0068 -0.2600 -0.6556
  190POPC  C21221920   4.341   5.944   9.580  0.3589 -0.2251  0.5482
  190POPC  H12R21921   4.415   5.893   9.515  0.6111 -2.9452  2.7695
  190POPC  H12S21922   4.353   6.054   9.579 -2.6804  0.2096 -0.1346
  190POPC  C21321923   4.216   5.917   9.497 -0.6723 -0.4643 -0.7957
  190POPC  H13R21924   4.141   5.992   9.528 -2.2322 -0.2274 -4.6176
  190POPC  H13S21925   4.179   5.812   9.505 -0.7475 -0.3729  0.1522
  190POPC  C21421926   4.227   5.944   9.344  0.0161 -0.4223 -0.2070
  190POPC  H14R21927   4.307   5.877   9.306  1.6074 -0.0182  2.2093
  190POPC  H14S21928   4.260   6.051   9.336 -1.5233  0.4541  3.4088
  190POPC  C21521929   4.095   5.924   9.267 -0.2181  0.2167  0.2802
  190POPC  H15R21930   4.012   5.980   9.313  0.8587  1.3772  0.8629
  190POPC  H15S21931   4.072   5.817   9.289  1.2345 -0.5217 -1.4797
  190POPC  C21621932   4.100   5.951   9.118  0.9631  0.3396  0.2272
  190POPC  H16R21933   4.193   5.911   9.072 -0.3084  0.2593 -2.4449
  190POPC  H16S21934   4.107   6.060   9.098  0.2065  0.2034 -0.8526
  190POPC  C21721935   3.970   5.893   9.049  0.8422 -0.3177 -0.4158
  190POPC  H17R21936   3.889   5.910   9.123 -0.7052 -1.5347 -1.7416
  190POPC  H17S21937   3.982   5.782   9.045  1.7319 -0.2804  0.7075
  190POPC  C21821938   3.909   5.966   8.926  0.1476  0.1517 -0.2234
  190POPC  H18R21939   3.905   6.076   8.936  0.7045  0.0691  1.2281
  190POPC  H18S21940   3.800   5.945   8.916 -0.4417  2.1181  1.4655
  190POPC  H18T21941   3.972   5.940   8.839  0.5890  2.5826 -0.6747
  190POPC   C3321942   3.915   5.547  10.109  0.2892  0.1156 -0.1686
  190POPC   H3X21943   3.839   5.628  10.118 -0.3895 -0.6429  1.1463
  190POPC   H3Y21944   3.851   5.457  10.113  0.2916  0.1304  0.3043
  190POPC   C3421945   3.959   5.561   9.970 -0.3384  0.2862 -0.3080
  190POPC   H4X21946   4.038   5.484   9.975 -0.2404  0.4785  2.5116
  190POPC   H4Y21947   4.011   5.658   9.956 -1.8850  1.5930  2.2806
  190POPC   C3521948   3.843   5.530   9.866  0.2066 -0.7912  0.4939
  190POPC   H5X21949   3.763   5.605   9.885  1.2014 -0.4411  3.8372
  190POPC   H5Y21950   3.792   5.434   9.885  1.6180 -1.4229  1.1735
  190POPC   C3621951   3.883   5.526   9.719 -0.2865  0.2036 -0.3336
  190POPC   H6X21952   3.964   5.453   9.695 -1.6968 -1.7377  0.5357
  190POPC   H6Y21953   3.922   5.619   9.673  1.1683 -0.1084  0.2060
  190POPC   C3721954   3.758   5.490   9.642 -0.4530 -0.6675  0.1183
  190POPC   H7X21955   3.675   5.556   9.675  0.9647  0.8245  0.8699
  190POPC   H7Y21956   3.741   5.382   9.660 -0.7849 -0.7596 -0.6948
  190POPC   C3821957   3.782   5.516   9.491  0.0185  0.0230 -0.1749
  190POPC   H8X21958   3.872   5.458   9.459 -1.7122 -2.0716 -1.4655
  190POPC   H8Y21959   3.801   5.624   9.474 -0.5556 -0.2273 -2.7951
  190POPC   C3921960   3.667   5.455   9.403  0.1272 -0.1455 -0.9141
  190POPC   H9X21961   3.569   5.502   9.425 -0.2356 -1.2928  0.0486
  190POPC   H9Y21962   3.644   5.353   9.443  0.7312  1.1044  2.9806
  190POPC  C31021963   3.700   5.449   9.257 -0.0480  0.0870  0.6608
  190POPC  H10X21964   3.624   5.407   9.188  1.6575 -0.6260 -0.8740
  190POPC  H10Y21965   3.776   5.369   9.246 -0.3126 -0.0420 -0.4247
  190POPC  C31121966   3.758   5.580   9.200 -0.6604  0.2617  0.5242
  190POPC  H11X21967   3.786   5.566   9.093 -0.5563 -0.6991  0.6679
  190POPC  H11Y21968   3.845   5.614   9.260  1.2034 -0.8348 -1.3961
  190POPC  C31221969   3.655   5.691   9.192  0.1247 -0.0056 -0.5976
  190POPC  H12X21970   3.698   5.789   9.163  0.7136 -0.2054 -0.4156
  190POPC  H12Y21971   3.610   5.706   9.293 -1.1181 -1.8829 -0.8061
  190POPC  C31321972   3.539   5.657   9.100  0.4388 -0.5159  0.5244
  190POPC  H13X21973   3.454   5.724   9.125  1.1741  0.5651  0.1788
  190POPC  H13Y21974   3.503   5.555   9.124  1.0815 -0.1621  3.4213
  190POPC  C31421975   3.570   5.656   8.949 -0.1323 -0.2105 -0.1065
  190POPC  H14X21976   3.663   5.598   8.931  0.7146  0.8171  0.8147
  190POPC  H14Y21977   3.593   5.762   8.925  1.4592 -0.4837  0.0634
  190POPC  C31521978   3.464   5.625   8.851  0.1251  0.6397  0.0161
  190POPC  H15X21979   3.379   5.696   8.856 -0.1034  0.3644  0.0503
  190POPC  H15Y21980   3.421   5.523   8.863 -1.9830  1.4102 -0.6442
  190POPC  C31621981   3.519   5.629   8.702  0.4406  0.3151 -0.1352
  190POPC  H16X21982   3.578   5.723   8.694 -0.5289  0.8811 -0.7853
  190POPC  H16Y21983   3.436   5.631   8.629  0.1410 -0.5672  0.1707
  190POPC  H16Z21984   3.579   5.539   8.680  1.4626  0.7826  0.6636
  191POPC     N21985   4.713   6.234   6.013  0.0879 -0.2062 -0.4677
  191POPC   C1221986   4.765   6.369   6.072 -0.2031 -1.1390 -0.1568
  191POPC  H12A21987   4.709   6.448   6.025 -1.2515 -1.3068  0.7632
  191POPC  H12B21988   4.863   6.390   6.031  0.0932 -0.7095  0.7399
  191POPC   C1321989   4.812   6.133   6.049  0.6070 -0.5101 -0.4352
  191POPC  H13A21990   4.812   6.129   6.157 -1.6525 -0.3078 -0.3909
  191POPC  H13B21991   4.784   6.033   6.019  1.1281 -0.5641 -0.7672
  191POPC  H13C21992   4.905   6.150   5.996  1.3986 -0.4095  0.9368
  191POPC   C1421993   4.578   6.201   6.073  0.1131  0.6369  0.4677
  191POPC  H14A21994   4.595   6.212   6.179  2.4530 -1.3919  0.4014
  191POPC  H14B21995   4.497   6.261   6.034 -1.2399 -1.4658 -0.1814
  191POPC  H14C21996   4.549   6.097   6.061  2.2957  0.1697 -1.4055
  191POPC   C1521997   4.715   6.233   5.864 -0.5390  0.2811 -0.0128
  191POPC  H15A21998   4.655   6.317   5.830 -1.9266  0.0054  1.6227
  191POPC  H15B21999   4.671   6.143   5.822 -0.6343  0.7647 -0.9829
  191POPC  H15C22000   4.812   6.250   5.820 -0.5104  1.4615  0.4881
  191POPC   C1122001   4.772   6.387   6.224 -0.4083 -0.0180  0.4748
  191POPC  H11A22002   4.678   6.359   6.276 -0.4514 -2.1858 -0.6820
  191POPC  H11B22003   4.785   6.496   6.243  0.1000 -0.0430  0.3035
  191POPC     P22004   5.020   6.350   6.314 -0.0698 -0.1188 -0.4880
  191POPC   O1322005   5.053   6.482   6.265  0.4997  0.4890  0.2352
  191POPC   O1422006   5.108   6.246   6.263  0.1998  0.4952 -0.1675
  191POPC   O1222007   4.876   6.309   6.277 -0.5989  0.2365  0.3258
  191POPC   O1122008   5.025   6.342   6.472 -0.2889 -0.4017 -0.1654
  191POPC    C122009   4.950   6.440   6.554 -0.6144  0.1977  0.0909
  191POPC    HA22010   4.916   6.388   6.646  1.7464 -0.0330  0.8996
  191POPC    HB22011   4.863   6.470   6.490 -1.0383 -1.2098 -0.0371
  191POPC    C222012   5.035   6.560   6.599  0.1867  0.4356  0.3069
  191POPC    HS22013   5.066   6.603   6.501 -1.9263  0.1269 -0.5588
  191POPC   O2122014   5.148   6.521   6.683  0.5008  0.1528  0.2231
  191POPC   C2122015   5.252   6.606   6.678  0.8523  0.5923 -0.4380
  191POPC   O2222016   5.268   6.689   6.591  1.1940  0.2279  0.8352
  191POPC   C2222017   5.357   6.593   6.796  0.3543  0.1580 -0.1421
  191POPC   H2R22018   5.456   6.606   6.747  1.5082 -1.8411  1.5027
  191POPC   H2S22019   5.366   6.492   6.841 -0.0568 -0.7921 -2.0533
  191POPC    C322020   4.943   6.659   6.675  1.3670 -0.2064 -0.2390
  191POPC    HX22021   4.890   6.594   6.748 -2.1320  0.8207 -1.6460
  191POPC    HY22022   4.859   6.686   6.608 -0.4431 -0.4434  1.7979
  191POPC   O3122023   5.005   6.769   6.739 -0.4082  0.0312 -0.3862
  191POPC   C3122024   4.931   6.867   6.775 -0.1835 -0.7613 -0.3260
  191POPC   O3222025   4.809   6.864   6.763 -0.0631  0.0061  0.1356
  191POPC   C3222026   5.009   6.973   6.850 -0.1873  0.4515  0.6113
  191POPC   H2X22027   5.047   7.039   6.769 -2.7401 -0.4287 -1.4389
  191POPC   H2Y22028   5.097   6.930   6.902 -0.9244 -0.2846  1.2820
  191POPC   C2322029   5.311   6.700   6.902  0.6298 -0.1085 -0.2466
  191POPC   H3R22030   5.224   6.659   6.957  1.7074 -2.8824 -0.4448
  191POPC   H3S22031   5.280   6.793   6.848  1.9398  0.0799 -0.7246
  191POPC   C2422032   5.423   6.744   6.998  0.8078  0.3516 -0.3439
  191POPC   H4R22033   5.507   6.778   6.934 -0.1989 -0.1426 -1.9840
  191POPC   H4S22034   5.462   6.667   7.068 -0.8999 -0.5628 -0.3483
  191POPC   C2522035   5.378   6.871   7.079 -0.4042  0.3274  0.7434
  191POPC   H5R22036   5.289   6.858   7.144 -0.6246  0.3015  0.4377
  191POPC   H5S22037   5.341   6.939   6.999  1.3307  0.4030 -0.0373
  191POPC   C2622038   5.490   6.940   7.160 -1.0347  0.3717 -0.8483
  191POPC   H6R22039   5.581   6.942   7.096  1.5365  0.7243  2.5207
  191POPC   H6S22040   5.515   6.871   7.244 -1.2281  1.1668 -0.1299
  191POPC   C2722041   5.456   7.081   7.210  0.1199 -0.0932  0.0178
  191POPC   H7R22042   5.361   7.076   7.268 -0.0840  1.5175 -0.1160
  191POPC   H7S22043   5.428   7.144   7.122 -1.6559  0.4069  0.8869
  191POPC   C2822044   5.561   7.144   7.310  0.0520 -0.2740 -0.0738
  191POPC   H8R22045   5.523   7.246   7.331  0.5681 -0.1055  0.0596
  191POPC   H8S22046   5.658   7.154   7.257  2.1692 -0.1912  3.4816
  191POPC   C2922047   5.585   7.055   7.434  0.8612  0.1833  0.2568
  191POPC   H9122048   5.615   6.951   7.414 -0.0604  0.4893 -3.3055
  191POPC  C21022049   5.570   7.094   7.566 -0.2748  0.1705  0.5683
  191POPC  H10122050   5.592   7.027   7.650 -1.5501 -0.4667  0.4056
  191POPC  C21122051   5.521   7.229   7.601  0.5997 -0.5621 -0.0056
  191POPC  H11R22052   5.467   7.225   7.698  0.6029  2.7111  0.2363
  191POPC  H11S22053   5.456   7.264   7.518  0.3921  0.7408  0.6802
  191POPC  C21222054   5.634   7.332   7.627  0.9942 -0.9475  0.2536
  191POPC  H12R22055   5.589   7.427   7.661 -0.0919 -1.7439  1.1124
  191POPC  H12S22056   5.685   7.348   7.530 -0.3431  2.8234 -0.0021
  191POPC  C21322057   5.735   7.301   7.736 -0.5196 -0.7644 -0.1921
  191POPC  H13R22058   5.815   7.377   7.725 -1.0202 -0.4430 -2.0430
  191POPC  H13S22059   5.788   7.209   7.704  3.0852  0.3526  2.0186
  191POPC  C21422060   5.679   7.293   7.877  0.1126  0.1418  0.1208
  191POPC  H14R22061   5.597   7.221   7.894 -0.4744  0.9802  0.9169
  191POPC  H14S22062   5.640   7.394   7.900  1.2635  0.4297  0.9252
  191POPC  C21522063   5.800   7.267   7.971 -0.1764  0.5174 -0.2160
  191POPC  H15R22064   5.876   7.344   7.947  0.9312  0.1439  1.9258
  191POPC  H15S22065   5.827   7.161   7.957 -1.1287 -0.2424  2.9077
  191POPC  C21622066   5.762   7.281   8.120 -0.0990 -0.2156  0.3249
  191POPC  H16R22067   5.849   7.232   8.169 -0.8042 -1.7962  0.0454
  191POPC  H16S22068   5.665   7.236   8.151  0.2598 -0.8523  0.5329
  191POPC  C21722069   5.771   7.423   8.171 -0.3498  0.1081 -0.0928
  191POPC  H17R22070   5.699   7.489   8.118 -0.5499 -0.0239  0.0121
  191POPC  H17S22071   5.871   7.464   8.145 -0.5041  2.4921  2.6091
  191POPC  C21822072   5.761   7.436   8.324 -0.2415  0.4916  1.1087
  191POPC  H18R22073   5.844   7.389   8.382  0.1828  0.3259  0.3759
  191POPC  H18S22074   5.661   7.399   8.354 -1.3239  0.8862 -1.6913
  191POPC  H18T22075   5.754   7.542   8.354 -0.7053  1.0792 -0.9172
  191POPC   C3322076   4.929   7.056   6.941 -0.5623  0.3491 -0.2424
  191POPC   H3X22077   4.867   7.009   7.019 -0.1012  1.9877  1.1705
  191POPC   H3Y22078   4.857   7.116   6.881 -1.4564 -1.8911 -1.5214
  191POPC   C3422079   5.024   7.141   7.032  0.1186 -0.7936 -0.2157
  191POPC   H4X22080   4.965   7.228   7.066 -0.2777 -0.9617 -0.4613
  191POPC   H4Y22081   5.110   7.162   6.966  0.1737 -1.1783 -0.2693
  191POPC   C3522082   5.064   7.074   7.165  0.4342  0.1845 -0.0235
  191POPC   H5X22083   5.170   7.041   7.162 -0.1703 -2.5517  2.7899
  191POPC   H5Y22084   5.005   6.980   7.162 -1.4013  1.3112 -1.1356
  191POPC   C3622085   5.025   7.154   7.288  0.5210 -0.1120 -0.5565
  191POPC   H6X22086   4.916   7.171   7.298  0.3985 -0.8389 -0.6226
  191POPC   H6Y22087   5.061   7.255   7.259 -0.6469 -0.6235 -4.4218
  191POPC   C3722088   5.080   7.094   7.420  0.5763 -0.3604 -0.9482
  191POPC   H7X22089   5.190   7.085   7.402  1.2936  0.0601  2.4445
  191POPC   H7Y22090   5.050   6.988   7.438 -0.5673  0.4844  3.3188
  191POPC   C3822091   5.040   7.167   7.550  0.1832  0.4281  0.2744
  191POPC   H8X22092   5.073   7.098   7.632  2.0409  1.0604  0.1152
  191POPC   H8Y22093   4.931   7.188   7.544  0.3067  1.4231  1.2071
  191POPC   C3922094   5.112   7.293   7.577  0.4135 -0.2714 -0.7661
  191POPC   H9X22095   5.104   7.356   7.485  0.2685  2.0640  0.7595
  191POPC   H9Y22096   5.220   7.275   7.590  0.3063 -0.8253 -0.6056
  191POPC  C31022097   5.041   7.368   7.688 -0.3133  0.1413  0.0044
  191POPC  H10X22098   4.932   7.362   7.671 -0.2967  1.4891 -0.7441
  191POPC  H10Y22099   5.063   7.477   7.679 -1.8760  0.4349 -0.6131
  191POPC  C31122100   5.070   7.319   7.830 -0.2058  0.0925 -0.4128
  191POPC  H11X22101   5.087   7.211   7.847 -2.1924  0.0751  2.1629
  191POPC  H11Y22102   4.974   7.330   7.886 -1.2653 -3.0030 -1.4326
  191POPC  C31222103   5.186   7.399   7.900 -0.0401  0.1739 -0.1192
  191POPC  H12X22104   5.163   7.508   7.897 -0.9504  0.0793  1.7614
  191POPC  H12Y22105   5.279   7.380   7.843 -0.2792  1.0470 -0.8194
  191POPC  C31322106   5.197   7.351   8.044 -0.5030  0.7233  0.2966
  191POPC  H13X22107   5.203   7.240   8.045  0.4507  0.7634 -0.0396
  191POPC  H13Y22108   5.116   7.390   8.109 -1.4823 -0.6725 -0.0480
  191POPC  C31422109   5.325   7.407   8.115  0.4524  0.1096  0.2785
  191POPC  H14X22110   5.339   7.517   8.113 -0.5476  0.2377 -0.1641
  191POPC  H14Y22111   5.414   7.371   8.061  1.3231  0.6519  1.3103
  191POPC  C31522112   5.329   7.360   8.258  0.1874 -0.1412 -0.4312
  191POPC  H15X22113   5.255   7.418   8.317  0.4705  0.9154 -1.0942
  191POPC  H15Y22114   5.425   7.386   8.306  0.9128 -0.4417 -1.6770
  191POPC  C31622115   5.297   7.207   8.287 -0.6435 -0.2733 -0.2769
  191POPC  H16X22116   5.357   7.141   8.220  1.9831  1.8186 -0.1881
  191POPC  H16Y22117   5.199   7.170   8.250 -0.0472 -1.1325 -1.0694
  191POPC  H16Z22118   5.315   7.182   8.393  2.1642  1.0599 -0.3306
  192POPC     N22119   2.098   2.825   5.927 -0.0437 -0.4568 -0.5712
  192POPC   C1222120   2.202   2.823   5.819 -0.1240 -0.1850  0.6217
  192POPC  H12A22121   2.181   2.903   5.750  1.4534 -1.2309 -1.1664
  192POPC  H12B22122   2.179   2.736   5.759  1.3674 -0.5502  0.5320
  192POPC   C1322123   1.964   2.822   5.861  0.3696  0.0952 -0.2257
  192POPC  H13A22124   1.946   2.914   5.806 -0.0973  1.6212  2.2994
  192POPC  H13B22125   1.951   2.738   5.796 -0.2234 -0.2608  0.3450
  192POPC  H13C22126   1.876   2.821   5.924  0.7673 -1.2229  0.3519
  192POPC   C1422127   2.092   2.701   6.009 -0.2375  0.1194  0.2480
  192POPC  H14A22128   2.018   2.725   6.084 -0.1585  3.1886 -0.5433
  192POPC  H14B22129   2.067   2.605   5.964  0.8529  0.3151 -0.8486
  192POPC  H14C22130   2.183   2.683   6.064 -0.2085  2.0984  0.9135
  192POPC   C1522131   2.114   2.941   6.018  0.3835  0.4243  0.0889
  192POPC  H15A22132   2.213   2.946   6.060  0.3647  2.3988 -0.0390
  192POPC  H15B22133   2.036   2.930   6.091  1.6606 -1.0603  1.3035
  192POPC  H15C22134   2.106   3.036   5.968  2.3050  1.0955  0.9683
  192POPC   C1122135   2.359   2.820   5.852  0.3762 -0.2023 -0.3145
  192POPC  H11A22136   2.374   2.923   5.891 -0.7729 -0.5658  1.1623
  192POPC  H11B22137   2.416   2.806   5.758  2.2280  0.2265  0.6950
  192POPC     P22138   2.469   2.752   6.077 -0.2489  0.2818 -0.2427
  192POPC   O1322139   2.591   2.828   6.037 -0.1877  0.0279  0.0817
  192POPC   O1422140   2.490   2.628   6.159 -0.4800 -0.1402  0.2008
  192POPC   O1222141   2.390   2.715   5.945  0.6583 -0.3815 -0.5595
  192POPC   O1122142   2.365   2.851   6.146 -0.1393  0.4477 -0.1596
  192POPC    C122143   2.397   2.902   6.278  0.3369  0.3095 -0.3477
  192POPC    HA22144   2.354   3.003   6.295  0.0563  0.1747 -0.2576
  192POPC    HB22145   2.506   2.906   6.299  0.7071 -0.1408 -2.0302
  192POPC    C222146   2.338   2.813   6.395 -1.2356 -0.1435  0.2686
  192POPC    HS22147   2.365   2.868   6.488  1.4080 -0.0163 -0.4918
  192POPC   O2122148   2.382   2.674   6.401 -0.2653  0.4420  0.1685
  192POPC   C2122149   2.481   2.650   6.491 -0.3076  0.4875  0.7029
  192POPC   O2222150   2.538   2.734   6.554  0.2995 -0.5055 -0.4787
  192POPC   C2222151   2.521   2.498   6.491 -0.5579 -0.3265 -0.6325
  192POPC   H2R22152   2.597   2.478   6.412  1.0504 -0.7097  0.9509
  192POPC   H2S22153   2.435   2.435   6.461 -1.0885 -0.4541  1.0604
  192POPC    C322154   2.181   2.809   6.389  0.1592  0.0193  0.4982
  192POPC    HX22155   2.151   2.741   6.307 -0.7698 -1.0266  1.6724
  192POPC    HY22156   2.148   2.909   6.352  1.0632 -0.1570 -0.8233
  192POPC   O3122157   2.119   2.774   6.511 -0.2788 -0.0647 -0.6308
  192POPC   C3122158   2.098   2.647   6.536 -0.3035  0.5502 -0.7160
  192POPC   O3222159   2.139   2.552   6.471 -0.2444 -0.7911 -0.3406
  192POPC   C3222160   2.020   2.630   6.669 -0.1060  0.3648 -0.6307
  192POPC   H2X22161   1.945   2.548   6.668  1.1988 -1.0861  3.2325
  192POPC   H2Y22162   1.967   2.727   6.671  1.7121  1.3916  0.6398
  192POPC   C2322163   2.589   2.460   6.626  0.2277  0.5522  0.5564
  192POPC   H3R22164   2.678   2.517   6.660  0.6981  0.2217 -0.1007
  192POPC   H3S22165   2.621   2.359   6.590  2.4676  2.4223 -3.3179
  192POPC   C2422166   2.493   2.442   6.740  0.0068 -0.0402  0.2333
  192POPC   H4R22167   2.392   2.401   6.719 -0.9899  2.0390  0.6869
  192POPC   H4S22168   2.479   2.541   6.790  0.8912 -0.7435  1.9621
  192POPC   C2522169   2.554   2.344   6.838  0.4620  0.1912  0.1206
  192POPC   H5R22170   2.646   2.397   6.871 -0.7611  1.8211  1.0985
  192POPC   H5S22171   2.558   2.244   6.791 -1.0106  0.6357 -1.0121
  192POPC   C2622172   2.463   2.325   6.971 -0.4579  0.0637  0.3184
  192POPC   H6R22173   2.353   2.308   6.963 -0.7006 -0.7459  3.7717
  192POPC   H6S22174   2.470   2.429   7.010  1.3615  0.6144 -1.3091
  192POPC   C2722175   2.524   2.240   7.089  0.4663 -0.3680  0.5385
  192POPC   H7R22176   2.632   2.261   7.101  0.1370  0.4971  2.2120
  192POPC   H7S22177   2.504   2.134   7.060 -0.2400 -0.1447  0.1871
  192POPC   C2822178   2.463   2.269   7.227  1.4713 -0.5553  0.5486
  192POPC   H8R22179   2.356   2.260   7.197  1.6118 -2.1598  0.4423
  192POPC   H8S22180   2.479   2.378   7.242  1.5064 -0.5573  0.5248
  192POPC   C2922181   2.490   2.178   7.342  0.4442  0.1841  0.1548
  192POPC   H9122182   2.483   2.074   7.308  0.0310  0.2096  0.1560
  192POPC  C21022183   2.524   2.216   7.464 -1.0758  0.1148  0.3464
  192POPC  H10122184   2.557   2.139   7.536 -1.6487 -1.5262 -1.0735
  192POPC  C21122185   2.533   2.362   7.517  0.2039  0.7957 -0.4501
  192POPC  H11R22186   2.478   2.435   7.454  0.2409  0.8403 -0.4312
  192POPC  H11S22187   2.636   2.401   7.529  1.1032 -1.2552 -1.1048
  192POPC  C21222188   2.466   2.375   7.654  0.2923  0.5480  0.0135
  192POPC  H12R22189   2.361   2.340   7.653  1.5653 -3.9145  0.8056
  192POPC  H12S22190   2.466   2.484   7.676 -2.5061  1.0555 -2.0178
  192POPC  C21322191   2.544   2.302   7.764 -0.4409  0.0902  0.1229
  192POPC  H13R22192   2.648   2.338   7.749 -0.0575 -1.3399 -0.7979
  192POPC  H13S22193   2.550   2.192   7.749  1.0413  0.2661 -0.8833
  192POPC  C21422194   2.513   2.344   7.910 -0.3007 -0.1528  0.3600
  192POPC  H14R22195   2.565   2.275   7.980 -1.0929  2.2285  3.5389
  192POPC  H14S22196   2.404   2.336   7.929 -0.1065 -0.1474  1.5928
  192POPC  C21522197   2.548   2.489   7.951  0.6679  0.0571 -0.1550
  192POPC  H15R22198   2.477   2.563   7.908  0.5490  1.3336  2.0985
  192POPC  H15S22199   2.648   2.514   7.912 -0.0542  0.6929 -1.6660
  192POPC  C21622200   2.541   2.513   8.107 -0.3740 -0.3607  0.5671
  192POPC  H16R22201   2.439   2.508   8.149  0.4148 -2.1816  2.4633
  192POPC  H16S22202   2.566   2.621   8.113 -0.8627 -0.2529  0.6641
  192POPC  C21722203   2.616   2.416   8.192  0.1699 -0.0119 -0.6764
  192POPC  H17R22204   2.718   2.392   8.156  0.6041  1.2463 -0.3139
  192POPC  H17S22205   2.571   2.314   8.187  0.3084 -0.1059 -0.0948
  192POPC  C21822206   2.628   2.469   8.332 -1.0189 -0.1384  0.2933
  192POPC  H18R22207   2.530   2.442   8.376 -1.6601  0.1677 -0.9006
  192POPC  H18S22208   2.659   2.576   8.338  1.4092 -0.5106 -2.7782
  192POPC  H18T22209   2.708   2.406   8.378  2.1073  0.4986 -3.6623
  192POPC   C3322210   2.118   2.606   6.787  0.3381 -0.2304  0.8292
  192POPC   H3X22211   2.192   2.688   6.793 -1.1041  1.0310  3.1703
  192POPC   H3Y22212   2.158   2.502   6.779 -1.1476 -0.8558  1.1759
  192POPC   C3422213   2.044   2.625   6.916 -0.0826 -0.0342 -0.0489
  192POPC   H4X22214   1.957   2.556   6.916  2.1034 -3.0486 -1.7517
  192POPC   H4Y22215   2.014   2.731   6.930 -0.3625  0.2768 -2.4962
  192POPC   C3522216   2.132   2.579   7.030 -0.0550 -0.0788  0.2394
  192POPC   H5X22217   2.223   2.641   7.043  0.4473 -0.8090  0.2445
  192POPC   H5Y22218   2.162   2.474   7.009 -0.3103 -0.2492  0.7055
  192POPC   C3622219   2.051   2.577   7.163  0.1062  0.0002  0.0687
  192POPC   H6X22220   1.985   2.488   7.151 -0.7323  0.1069  3.0726
  192POPC   H6Y22221   1.988   2.667   7.181  1.5711  0.8636  1.1025
  192POPC   C3722222   2.146   2.567   7.279 -0.3893 -0.7140 -0.2327
  192POPC   H7X22223   2.202   2.663   7.277 -1.5447 -0.0272 -1.4922
  192POPC   H7Y22224   2.215   2.481   7.259  0.1671 -0.4635  0.5723
  192POPC   C3822225   2.072   2.549   7.410 -0.7517  0.2618  0.1830
  192POPC   H8X22226   2.007   2.459   7.402 -0.9322  0.1984  2.0389
  192POPC   H8Y22227   2.003   2.635   7.415 -0.3237  0.7079 -1.1049
  192POPC   C3922228   2.165   2.552   7.533  0.5552  0.4616 -0.1110
  192POPC   H9X22229   2.233   2.640   7.535  2.2786 -0.7939  3.1003
  192POPC   H9Y22230   2.228   2.461   7.537 -0.0424  0.0762  0.7828
  192POPC  C31022231   2.079   2.541   7.662 -0.0382  0.7282  1.0627
  192POPC  H10X22232   2.025   2.447   7.634  3.1115 -0.9194 -0.0391
  192POPC  H10Y22233   2.005   2.622   7.677 -0.3019  0.6117  0.4641
  192POPC  C31122234   2.161   2.535   7.790 -0.1220  0.1613  0.2848
  192POPC  H11X22235   2.223   2.627   7.789 -2.3247  1.7334 -1.1105
  192POPC  H11Y22236   2.229   2.448   7.801  1.0472  1.3080  3.2357
  192POPC  C31222237   2.078   2.533   7.916 -0.8490  0.6170 -0.0889
  192POPC  H12X22238   1.974   2.495   7.900 -1.1739  1.6548 -0.5107
  192POPC  H12Y22239   2.055   2.638   7.945 -2.2894 -0.5286  3.3292
  192POPC  C31322240   2.146   2.461   8.031 -1.0148 -0.3018  1.2534
  192POPC  H13X22241   2.242   2.511   8.055 -0.5853  0.6513 -1.9720
  192POPC  H13Y22242   2.157   2.352   8.015 -3.1647 -0.6654  1.8245
  192POPC  C31422243   2.065   2.468   8.169 -0.2279 -0.6024 -1.0373
  192POPC  H14X22244   2.109   2.389   8.233 -0.0163  0.6966  0.4907
  192POPC  H14Y22245   1.959   2.435   8.156  0.2877 -1.8397 -2.3296
  192POPC  C31522246   2.076   2.616   8.221  0.1948  0.0036 -0.2723
  192POPC  H15X22247   2.019   2.676   8.146 -0.8186 -2.4414 -1.5522
  192POPC  H15Y22248   2.179   2.650   8.246 -0.2357  2.2153 -1.2531
  192POPC  C31622249   1.993   2.639   8.357 -0.5620 -0.2580  0.3006
  192POPC  H16X22250   2.022   2.562   8.432 -0.1599 -0.2630  0.1388
  192POPC  H16Y22251   1.889   2.616   8.325 -0.4107 -0.6491  0.0812
  192POPC  H16Z22252   2.001   2.741   8.401 -2.2865  0.2879 -0.5486
  193SOD    SOD22253   2.724   5.355   3.023  0.0920  0.0309  0.2940
  194SOD    SOD22254   6.122   6.043   5.012 -0.1673 -0.7006 -0.2943
  195SOD    SOD22255   4.845   3.829   3.277  0.0752 -0.4217  0.0769
  196SOD    SOD22256   5.732   3.340  11.291 -0.0637  0.0136  0.3296
  197SOD    SOD22257   2.125   4.628  16.979 -0.0532  0.2225 -0.0771
  198SOD    SOD22258   2.813   0.325   4.891  0.7724 -0.1251  0.2603
  199SOD    SOD22259   2.325   3.956  16.213  0.3124 -0.2707  0.2170
  200SOD    SOD22260   5.819   6.043   6.291  0.2577  0.1765  0.5421
  201SOD    SOD22261   4.505   5.865  10.911  0.3247  0.2475  0.2978
  202SOD    SOD22262   3.740   2.366  14.552  0.2533 -0.1950 -0.0057
  203SOD    SOD22263   0.232   5.423  11.334  0.0115  0.3002 -0.3090
  204SOD    SOD22264   2.087   0.455  13.760 -0.3115  0.0260 -0.7507
  205SOD    SOD22265   3.409   5.341  12.266  0.2209  0.2000 -0.1181
  206SOD    SOD22266   6.388   2.466   5.359  0.0615  0.2142  0.1891
  207SOD    SOD22267   5.874   2.938  12.034  0.1078  0.6328 -0.4691
  208SOD    SOD22268   3.434   2.624   3.172 -0.1661  0.1233 -0.1510
  209SOD    SOD22269   4.193   3.096  16.460 -0.1690 -0.1544  0.2437
  210SOD    SOD22270   0.624   3.271  11.323 -0.1634  0.2489 -0.3931
  211SOD    SOD22271   3.172   6.765  17.126 -0.5370 -0.0260 -0.2294
  212SOD    SOD22272   4.856   4.729   3.081 -0.3543 -0.3785  0.1945
  213SOD    SOD22273   5.654   6.106   0.855  0.1584  0.2889  0.0823
  214SOD    SOD22274   1.287   1.419   6.452 -0.4838  0.1679  0.3901
  215SOD    SOD22275   1.221   0.537   4.440  0.3663  0.0481 -0.1664
  216SOD    SOD22276   0.853   5.776  15.183  0.5268 -0.1080 -0.6730
  217SOD    SOD22277   2.873   6.082  13.307 -0.0067  0.4601  0.4882
  218SOD    SOD22278   3.695   3.162  14.380 -0.7403  0.0211 -0.4304
  219SOD    SOD22279   0.035   1.851   2.320  0.4307  0.5534 -0.0828
  220SOD    SOD22280   2.413   6.418  10.654 -0.0371 -0.0311  0.1526
  221SOD    SOD22281   3.218   3.429   4.397 -0.2489 -0.5361 -0.3358
  222SOD    SOD22282   5.592   4.173  14.363  0.0983  0.1392 -0.5832
  223SOD    SOD22283   1.028   2.018   5.531  0.4801 -0.2066  0.2438
  224SOD    SOD22284   5.590   2.343  16.299  0.1216 -0.0681  0.1365
  225SOD    SOD22285   5.848   6.536  14.172 -0.2594 -0.0737  0.3371
  226SOD    SOD22286   5.201   4.373   1.070 -0.0175  0.0484  0.3458
  227SOD    SOD22287   4.314   1.153  11.209  0.0689  0.3341  0.3452
  228SOD    SOD22288   4.865   3.048   6.180 -0.0419 -0.0067  0.3700
  229SOD    SOD22289   4.727   3.844   4.296  0.0476  0.5151  0.0061
  230SOD    SOD22290   4.613   2.793   4.866  0.8267  0.5269 -0.2006
  231SOD    SOD22291   6.527   0.804   2.688 -0.2211 -0.1833 -0.3032
  232SOD    SOD22292   5.137   1.442  11.320 -0.3105 -0.0903  0.7155
  233SOD    SOD22293   4.914   6.544  12.735  0.2812 -0.3991 -0.7479
  234SOD    SOD22294   6.686   0.203   6.197  0.9221  0.1284 -0.1080
  235SOD    SOD22295   1.003   2.434   4.258 -0.0976  0.1618  0.0779
  236SOD    SOD22296   4.311   3.993   1.116 -0.8028 -0.1904  0.1362
  237SOD    SOD22297   2.233   1.747   0.025  0.6250  0.1541  0.5158
  238SOD    SOD22298   6.632   5.903   0.565 -0.0046  0.0175 -0.1823
  239SOD    SOD22299   6.776   6.553   4.736 -0.3163 -0.8641  0.0209
  240SOD    SOD22300   2.164   3.422  15.402 -0.2222 -0.1718  0.4041
  241SOD    SOD22301   1.102   6.684  12.502  0.2535  0.2454  0.4938
  242SOD    SOD22302   1.693   6.014   4.329 -0.0257  0.1937 -0.1507
  243SOD    SOD22303   6.617   0.979  10.613 -0.0233  0.3290 -0.0425
  244SOD    SOD22304   0.706   5.671  14.471  0.3711 -0.4313 -0.1997
  245SOD    SOD22305   0.585   0.595   4.323  0.6555 -0.1094  0.0007
  246SOD    SOD22306   3.997   4.076   6.067  0.4924 -0.0897  0.3050
  247SOD    SOD22307   0.728   2.919   0.515 -0.2354  0.4205  0.4080
  248SOD    SOD22308   3.589   3.380  12.275 -0.2583  0.9282 -0.4456
  249SOD    SOD22309   2.142   3.349   0.800  0.0608 -0.5241 -0.5154
  250SOD    SOD22310   2.891   2.912   6.370  0.0426  0.2114  0.2924
  251SOD    SOD22311   6.131   1.288  13.522  0.3463  0.2282 -0.2333
  252SOD    SOD22312   3.693   0.582   6.561 -0.7897  1.1260  0.2109
  253SOD    SOD22313   2.329   6.273  17.054  0.4834  0.2949 -0.5772
  254SOD    SOD22314   1.456   4.678  12.764 -0.0614  0.0233  0.1350
  255SOD    SOD22315   6.766   4.192   3.917  0.0560  0.1301 -0.0420
  256SOD    SOD22316   5.309   0.263   4.780  0.0610 -0.8926 -0.2507
  257SOD    SOD22317   3.037   4.424   0.390  0.2892  0.3349 -0.2628
  258SOD    SOD22318   6.466   4.149   1.735 -0.8063 -0.0849 -0.0554
  259SOD    SOD22319   6.767   2.643  12.094 -0.2269  0.3057 -0.1884
  260SOD    SOD22320   5.862   4.095   5.278 -0.4466  0.4852 -0.3033
  261SOD    SOD22321   6.615   2.085   2.903 -0.4681  0.1465  0.0314
  262SOD    SOD22322   5.847   4.037  15.388  0.4798 -0.2136 -0.1476
  263SOD    SOD22323   0.284   5.793   4.348 -0.2756  0.2558 -0.1879
  264SOD    SOD22324   3.515   4.614  12.298 -0.5617 -0.1551 -0.0448
  265SOD    SOD22325   2.766   2.566  11.744 -0.3056  0.6515  0.0627
  266SOD    SOD22326   3.456   3.990  11.471  0.1269 -0.2959  0.1277
  267SOD    SOD22327   0.595   3.072  15.038  0.3132 -0.3146 -0.7603
  268SOD    SOD22328   4.621   0.873   5.672 -0.0001 -0.0663 -0.2508
  269SOD    SOD22329   4.049   6.752   1.173 -0.1793  0.5200  0.1946
  270CLA    CLA22330   4.630   5.885  12.906 -0.0944  0.6245  0.3166
  271CLA    CLA22331   0.806   3.626   0.144  0.3494 -0.4515  0.0354
  272CLA    CLA22332   5.346   4.385  11.974  0.2816 -0.1513 -0.0268
  273CLA    CLA22333   3.483   2.350  15.576 -0.0924 -0.4109 -0.1838
  274CLA    CLA22334   2.231   3.597   0.968  0.0597 -0.3372  0.2604
  275CLA    CLA22335   6.181   5.914  15.316 -0.0557  0.2863  0.0024
  276CLA    CLA22336   1.041   5.012   4.401 -0.1729  0.1494  0.0037
  277CLA    CLA22337   6.323   0.954  13.834 -0.0960 -0.1312 -0.0003
  278CLA    CLA22338   0.948   6.722  16.915  0.1261 -0.2281  0.0755
  279CLA    CLA22339   4.082   3.065   3.645 -0.1832 -0.5242 -0.1576
  280CLA    CLA22340   2.551   3.169  14.442  0.1664 -0.5967 -0.3642
  281CLA    CLA22341   5.628   3.342   2.995 -0.5202 -0.0325  0.0027
  282CLA    CLA22342   4.986   2.020   1.452  0.1023  0.1052 -0.0854
  283CLA    CLA22343   2.548   5.840  16.566  0.0280  0.2439  0.5228
  284CLA    CLA22344   1.247   2.495   5.239 -0.4865  0.0515  0.0655
  285CLA    CLA22345   0.668   3.659  15.988  0.0143  0.1425 -0.1826
  286CLA    CLA22346   3.004   1.882   3.008 -0.1736  0.0701  0.0322
  287CLA    CLA22347   1.047   5.895   3.707 -0.0485  0.2074 -0.2015
  288CLA    CLA22348   1.556   0.565   3.797 -0.1884  0.1456  0.3048
  289CLA    CLA22349   5.618   4.410   1.048  0.2286  0.0946  0.3596
  290CLA    CLA22350   3.723   5.656   1.178  0.1688 -0.2463 -0.0110
  291CLA    CLA22351   1.338   4.388  12.358 -0.3630  0.0634 -0.0239
  292CLA    CLA22352   5.753   4.275  15.824  0.1401 -0.0235  0.1841
  293CLA    CLA22353   4.061   1.445  14.985  0.1239 -0.2007  0.0630
  294CLA    CLA22354   0.970   3.585  15.168 -0.0758 -0.2116  0.0582
  295CLA    CLA22355   2.216   3.360  15.980  0.0631  0.1607  0.6712
  296CLA    CLA22356   4.273   5.564  12.993 -0.1637  0.1714  0.2352
  297CLA    CLA22357   4.164   3.403   4.684 -0.1483  0.0431  0.1678
  298CLA    CLA22358   1.041   0.961  14.302  0.1914 -0.1298  0.0011
  299CLA    CLA22359   0.693   0.414   4.937  0.1065 -0.4083  0.0387
  300CLA    CLA22360   5.043   1.902   3.751 -0.3724  0.1428  0.3215
  301CLA    CLA22361   6.055   6.410   3.804  0.1150 -0.2541  0.2934
  302CLA    CLA22362   1.887   4.631  16.059  0.0556 -0.0268  0.1681
  303CLA    CLA22363   6.511   2.408   4.874  0.1065  0.0633 -0.3626
  304CLA    CLA22364   0.643   6.333   5.145  0.4280  0.0077  0.2069
  305CLA    CLA22365   5.742   2.269  13.183  0.4042  0.6817 -0.2903
  306CLA    CLA22366   1.274   0.255   2.252 -0.0861  0.3790 -0.0878
  307CLA    CLA22367   6.466   5.806   2.893 -0.1576  0.0066 -0.0395
  308CLA    CLA22368   4.925   6.544  15.128  0.3165  0.3141  0.3925
  309CLA    CLA22369   6.483   5.542   4.051  0.1561  0.6021 -0.0671
  310CLA    CLA22370   2.073   3.478   2.023 -0.0344 -0.3545 -0.0799
  311CLA    CLA22371   1.572   5.816  14.834  0.1749 -0.0958 -0.1627
  312CLA    CLA22372   2.250   3.803   2.307 -0.1731  0.0823  0.4510
  313CLA    CLA22373   5.461   3.210   0.365  0.0997  0.0700  0.0598
  314CLA    CLA22374   3.385   4.155   0.086  0.2181 -0.0729  0.3152
  315CLA    CLA22375   3.882   0.160   0.574  0.1426 -0.2037  0.1375
  316CLA    CLA22376   1.425   2.354   2.547 -0.0603  0.0988 -0.0211
  317CLA    CLA22377   5.835   0.535   2.369  0.1424 -0.5561 -0.1661
  318CLA    CLA22378   5.365   1.559  15.965  0.0037 -0.0300  0.0453
  319CLA    CLA22379   4.239   3.896  13.977 -0.3099  0.4447  0.2159
  320CLA    CLA22380   4.241   4.922   3.183  0.3002 -0.3205  0.3643
  321CLA    CLA22381   4.584   4.549  15.662  0.0510  0.3496  0.2598
  322CLA    CLA22382   2.958   6.674  16.503 -0.0829  0.1055  0.4142
  323TIP3   OH222383   0.902   6.498  14.349  0.3064  0.0324 -0.3750
  323TIP3    H122384   0.954   6.471  14.273  0.6689  0.1691 -0.1803
  323TIP3    H222385   0.914   6.593  14.354  0.8331 -0.0556  0.2430
  324TIP3   OH222386   2.726   0.011  12.059  0.4176  0.4660  0.1549
  324TIP3    H122387   2.671  -0.061  12.031 -1.5371  1.3429  1.5142
  324TIP3    H222388   2.795  -0.030  12.111 -0.4783 -0.4593  0.6437
  325TIP3   OH222389   5.582   2.457   0.055 -0.4849  0.7766  0.1395
  325TIP3    H122390   5.626   2.374   0.076 -1.0759  0.3398 -0.3166
  325TIP3    H222391   5.642   2.524   0.086 -0.7925  0.1857  2.2175
  326TIP3   OH222392   0.879   0.107  17.181  0.2844 -0.3761  0.0067
  326TIP3    H122393   0.791   0.076  17.201  0.0598 -0.1343 -0.6020
  326TIP3    H222394   0.903   0.061  17.100  1.2674 -1.5092  0.9000
  327TIP3   OH222395   4.155   1.124  14.121  0.0676 -0.0887  0.1799
  327TIP3    H122396   4.111   1.042  14.142  1.4229 -0.5870  1.1946
  327TIP3    H222397   4.239   1.119  14.166 -0.1918  2.2785  1.0722
  328TIP3   OH222398   2.661   4.354   0.656 -0.4024  0.3182 -0.0973
  328TIP3    H122399   2.642   4.263   0.680 -1.8211  0.6992  0.3223
  328TIP3    H222400   2.648   4.403   0.737 -0.5273  1.0187 -0.5321
  329TIP3   OH222401   6.097   3.341  11.008  0.6051  0.0400 -0.0146
  329TIP3    H122402   6.126   3.342  10.916 -1.4204  0.7526 -0.6998
  329TIP3    H222403   6.003   3.321  11.003  0.4491  0.1598  1.9045
  330TIP3   OH222404   5.012   2.608  14.412 -0.6550  0.4578  0.4829
  330TIP3    H122405   5.000   2.681  14.352 -0.2280 -0.2004 -0.4220
  330TIP3    H222406   4.939   2.548  14.392 -0.7502  0.4238  0.9100
  331TIP3   OH222407   1.450   1.382  12.234  0.0490 -0.7997 -0.0701
  331TIP3    H122408   1.424   1.453  12.175 -0.8260  0.2960  1.5608
  331TIP3    H222409   1.413   1.304  12.194 -1.7074  0.0943 -0.3142
  332TIP3   OH222410   4.918   1.261  11.626 -0.3605 -0.1266  0.0860
  332TIP3    H122411   4.978   1.211  11.681 -0.2474 -0.4461 -0.3277
  332TIP3    H222412   4.848   1.199  11.604 -0.8435  0.2395  0.5594
  333TIP3   OH222413   5.773   5.190   4.240  0.3627 -0.6179 -0.5930
  333TIP3    H122414   5.818   5.272   4.221  2.0926 -1.5648 -0.7572
  333TIP3    H222415   5.765   5.147   4.154  0.4575 -1.1020 -0.3627
  334TIP3   OH222416   3.839   3.403   3.245  0.1488 -0.4321 -0.0621
  334TIP3    H122417   3.839   3.323   3.298  1.1217  0.6247  1.6456
  334TIP3    H222418   3.747   3.421   3.228 -0.1871 -0.9047  1.1624
  335TIP3   OH222419   3.487   3.574   2.752  0.6418  0.2435 -0.5317
  335TIP3    H122420   3.518   3.664   2.740  1.5285  0.2097  1.1388
  335TIP3    H222421   3.429   3.559   2.678 -2.5632  3.4895  0.9789
  336TIP3   OH222422   3.260   2.074   0.230 -0.4884  0.5045 -0.1471
  336TIP3    H122423   3.178   2.030   0.208 -0.8849  1.4484 -0.5926
  336TIP3    H222424   3.300   2.095   0.145  1.3066 -1.8554  0.0067
  337TIP3   OH222425   6.632   1.876   0.836 -0.3647 -0.2661 -0.0606
  337TIP3    H122426   6.545   1.891   0.799  0.2644  1.5175 -0.9464
  337TIP3    H222427   6.692   1.900   0.766  0.8558 -0.1097  1.0009
  338TIP3   OH222428   4.128   2.306  12.151  0.3468 -0.4162  1.0636
  338TIP3    H122429   4.167   2.247  12.216  0.7869 -0.6795  0.5674
  338TIP3    H222430   4.144   2.264  12.067  0.2699  0.1885  0.7368
  339TIP3   OH222431   2.541   0.355  14.192 -0.3027 -0.5042  0.2516
  339TIP3    H122432   2.523   0.409  14.269  0.2925 -0.5457  0.4320
  339TIP3    H222433   2.629   0.321  14.208  0.1516  0.1174 -0.8155
  340TIP3   OH222434   3.183   4.469  15.482  0.3921 -0.0267 -0.7302
  340TIP3    H122435   3.205   4.407  15.552 -1.8271 -1.0039 -0.7913
  340TIP3    H222436   3.241   4.543  15.496 -0.5735  0.2503  2.7714
  341TIP3   OH222437   5.534   6.256  16.134  0.0295  0.4657 -0.0848
  341TIP3    H122438   5.452   6.295  16.166 -0.2990  0.3705 -0.7902
  341TIP3    H222439   5.520   6.161  16.142  1.1080  0.4451  2.3355
  342TIP3   OH222440   6.733   0.781  16.924 -0.6650  0.1091 -0.3154
  342TIP3    H122441   6.674   0.801  16.851 -1.4151 -2.1745 -0.3987
  342TIP3    H222442   6.741   0.864  16.972 -1.2774  1.2925 -2.1728
  343TIP3   OH222443   2.113   5.498   4.078 -0.3260 -0.6865  0.4519
  343TIP3    H122444   2.070   5.462   4.000 -1.2152  0.4988  0.3585
  343TIP3    H222445   2.091   5.437   4.148 -3.1733  0.3704  0.6452
  344TIP3   OH222446   2.348   1.377  15.277  0.1713 -0.0391 -0.1182
  344TIP3    H122447   2.280   1.438  15.305  1.8193  0.9122  2.1428
  344TIP3    H222448   2.301   1.307  15.231 -2.3161  0.4831  1.4655
  345TIP3   OH222449   2.849   1.918   2.714 -0.2922 -0.0091 -0.0110
  345TIP3    H122450   2.922   1.939   2.773 -0.4907  0.5767  0.0275
  345TIP3    H222451   2.892   1.894   2.631 -0.0457  0.1396  0.0719
  346TIP3   OH222452   0.949   3.100  16.757 -0.1002  0.1551 -0.4059
  346TIP3    H122453   0.914   3.079  16.671  0.3808  2.4738 -1.2481
  346TIP3    H222454   1.035   3.057  16.759 -1.6563 -3.1647  0.5503
  347TIP3   OH222455   6.611   4.391  12.537 -0.1075  0.3031 -0.1848
  347TIP3    H122456   6.609   4.443  12.457  0.4136  1.3738  0.4711
  347TIP3    H222457   6.559   4.441  12.600  3.5751  2.2228  1.6622
  348TIP3   OH222458   6.150   1.586   1.552 -0.3620 -0.2739  0.0153
  348TIP3    H122459   6.156   1.682   1.556 -0.3714 -0.2563 -0.3185
  348TIP3    H222460   6.223   1.555   1.605 -1.0015 -0.0893  1.0239
  349TIP3   OH222461   5.544   1.241  16.621 -0.0638 -0.0334 -0.2897
  349TIP3    H122462   5.599   1.223  16.545 -0.1924  0.4778 -0.5020
  349TIP3    H222463   5.477   1.301  16.589  0.5639  1.1159  0.4937
  350TIP3   OH222464   6.263   6.030  13.038 -0.5414 -0.6940  0.2064
  350TIP3    H122465   6.257   6.008  12.945 -0.3360 -0.5992  0.1685
  350TIP3    H222466   6.354   6.009  13.062  0.0473  1.2080 -0.1343
  351TIP3   OH222467   4.309   1.446   5.387  0.0041  0.0424  0.6312
  351TIP3    H122468   4.401   1.439   5.362  0.5709  0.7941  2.3577
  351TIP3    H222469   4.311   1.454   5.482 -1.9907 -2.0525  0.9245
  352TIP3   OH222470   3.651   6.446  12.965 -0.4000  0.6119  0.2602
  352TIP3    H122471   3.715   6.380  12.993 -0.4579 -0.1855 -1.3783
  352TIP3    H222472   3.577   6.433  13.024  0.0201 -0.0661  0.6587
  353TIP3   OH222473   2.314   0.433  13.101  0.1664  0.4316  0.1053
  353TIP3    H122474   2.344   0.400  13.016  0.1229  2.9922 -0.9783
  353TIP3    H222475   2.224   0.400  13.109  1.0058 -2.0370  0.4836
  354TIP3   OH222476   2.551   0.948  15.609 -0.3413 -0.2109 -0.0575
  354TIP3    H122477   2.467   0.924  15.649  0.9343  0.0885  3.0725
  354TIP3    H222478   2.542   1.041  15.589 -0.0796  0.4155  2.4197
  355TIP3   OH222479   2.927   3.952  14.305  0.7775 -0.9477  0.3367
  355TIP3    H122480   2.842   3.955  14.261  0.3765 -0.9603  1.0936
  355TIP3    H222481   2.959   4.042  14.302  1.2172 -1.1262 -0.8469
  356TIP3   OH222482   5.508   5.716  12.082 -0.4687  0.3275  0.2926
  356TIP3    H122483   5.455   5.718  12.162 -0.0877  0.2163  0.5515
  356TIP3    H222484   5.597   5.730  12.112 -0.3488  0.5177 -0.1435
  357TIP3   OH222485   2.055   1.495   2.767 -0.0592 -0.4972  0.5422
  357TIP3    H122486   1.960   1.496   2.754  0.1121 -0.0189 -0.9379
  357TIP3    H222487   2.072   1.415   2.816 -1.1301 -1.2002 -0.1879
  358TIP3   OH222488   4.169   4.186   2.783 -0.5397 -0.6886  0.3779
  358TIP3    H122489   4.248   4.240   2.785  0.9270 -2.6015 -1.2634
  358TIP3    H222490   4.129   4.197   2.869  1.8306 -0.0770  1.4680
  359TIP3   OH222491   2.156   5.060  16.768 -0.0676  0.2269 -0.6690
  359TIP3    H122492   2.120   5.109  16.842 -0.8903 -0.5219 -0.5489
  359TIP3    H222493   2.079   5.037  16.715  0.3705 -0.3818 -1.0526
  360TIP3   OH222494   3.809   1.792  16.259 -0.1538  0.3150 -0.4582
  360TIP3    H122495   3.790   1.848  16.334 -0.4950 -0.2635 -0.1107
  360TIP3    H222496   3.778   1.705  16.285 -1.8832  0.4278 -1.8925
  361TIP3   OH222497   0.909   2.839   3.432 -0.0828 -0.4123  0.2735
  361TIP3    H122498   0.948   2.757   3.402 -0.0586 -0.7725  1.2446
  361TIP3    H222499   0.864   2.816   3.513 -0.3513  0.4726  0.3888
  362TIP3   OH222500   2.194   1.201   4.561  0.2232  0.6199 -0.1770
  362TIP3    H122501   2.273   1.155   4.588 -0.2118  0.3276  0.6300
  362TIP3    H222502   2.143   1.212   4.642 -0.4674  0.9857 -0.6456
  363TIP3   OH222503   2.587   3.198  13.404  0.2754  0.2936 -0.2965
  363TIP3    H122504   2.535   3.127  13.365  0.7025 -1.5786  2.3014
  363TIP3    H222505   2.523   3.248  13.455  0.2429  0.9131 -0.9276
  364TIP3   OH222506   0.880   3.487  15.493  0.0285  0.4168 -0.1958
  364TIP3    H122507   0.918   3.535  15.420 -0.4706 -0.6082 -1.1474
  364TIP3    H222508   0.874   3.397  15.463 -1.2356  0.1785  0.6847
  365TIP3   OH222509   5.139   4.663  15.708 -0.1096 -0.3120 -0.3795
  365TIP3    H122510   5.106   4.751  15.727 -2.0756 -1.1587  0.4109
  365TIP3    H222511   5.234   4.675  15.696 -0.2183  1.7991  0.4092
  366TIP3   OH222512   0.251   2.200  14.556 -0.7085 -0.3651 -0.0606
  366TIP3    H122513   0.213   2.126  14.510 -0.1093 -0.6273 -0.1403
  366TIP3    H222514   0.331   2.221  14.508 -0.2154 -0.4722  0.6932
  367TIP3   OH222515   0.441   4.412   6.129  0.3902  0.1737  0.5412
  367TIP3    H122516   0.347   4.395   6.133  0.3239  0.8145  2.7057
  367TIP3    H222517   0.471   4.408   6.220  2.7865 -1.6493 -0.2119
  368TIP3   OH222518   2.114   2.040   6.598 -0.0105  0.1570 -0.0024
  368TIP3    H122519   2.086   2.125   6.563 -0.3915  0.0715  0.0836
  368TIP3    H222520   2.209   2.041   6.590 -0.1479 -0.4786 -2.4844
  369TIP3   OH222521   1.257   2.517  12.843 -0.4672 -0.2025  0.5074
  369TIP3    H122522   1.287   2.608  12.846 -3.1063  0.7341  1.1317
  369TIP3    H222523   1.176   2.517  12.894 -1.0343 -2.7069 -0.2669
  370TIP3   OH222524   0.058   4.533  16.029  0.0324 -0.0380 -0.2985
  370TIP3    H122525   0.045   4.545  16.123 -2.1560  1.4475 -0.7047
  370TIP3    H222526   0.007   4.455  16.008  0.7115 -0.5047 -0.2270
  371TIP3   OH222527   2.495   2.413  13.334 -0.3547 -0.3252 -0.3658
  371TIP3    H122528   2.469   2.494  13.379  0.2081 -0.5134  0.3404
  371TIP3    H222529   2.590   2.410  13.346 -0.0865 -0.0247 -2.2134
  372TIP3   OH222530   2.912   2.296   5.585 -0.4048  0.7413  0.0228
  372TIP3    H122531   2.894   2.390   5.587  0.9039  0.9873  1.2257
  372TIP3    H222532   2.969   2.280   5.659  1.9562 -0.4591 -1.9014
  373TIP3   OH222533   1.958   6.282  11.523 -0.8171  0.3343 -0.2088
  373TIP3    H122534   1.879   6.316  11.481 -1.1536 -0.0253  0.1176
  373TIP3    H222535   1.941   6.292  11.617 -0.6332 -0.0860 -0.1279
  374TIP3   OH222536   6.426   3.724  16.266 -0.7136 -0.6132 -0.3100
  374TIP3    H122537   6.443   3.734  16.172  0.6298 -1.0653 -0.1385
  374TIP3    H222538   6.457   3.636  16.287  1.2100  0.3170  0.9902
  375TIP3   OH222539   2.498   6.447   6.083 -0.0372 -0.6101  0.4052
  375TIP3    H122540   2.503   6.499   6.163  0.2134  1.4723 -0.8939
  375TIP3    H222541   2.570   6.384   6.091 -1.3823 -1.9731  2.7726
  376TIP3   OH222542   6.620   2.041  13.861  0.4176  0.2147 -0.3515
  376TIP3    H122543   6.580   1.962  13.898  1.2380 -0.1433 -0.1991
  376TIP3    H222544   6.694   2.060  13.919  1.7211 -0.3423 -1.7521
  377TIP3   OH222545   2.394   5.133  10.668  0.1042  0.3281 -0.1307
  377TIP3    H122546   2.441   5.139  10.751  0.6861  0.7559 -0.4813
  377TIP3    H222547   2.302   5.147  10.691  0.0087 -1.4421  0.6877
  378TIP3   OH222548   1.450   0.046  11.956  0.0526 -0.2409  0.0878
  378TIP3    H122549   1.511   0.028  11.885  0.2946 -0.1411  0.2712
  378TIP3    H222550   1.364   0.044  11.914  0.1757 -0.4348 -0.1598
  379TIP3   OH222551   0.460   3.127  12.524 -0.8049 -0.1193  0.3297
  379TIP3    H122552   0.491   3.212  12.556 -0.6593  0.1232 -0.4451
  379TIP3    H222553   0.523   3.064  12.559 -1.6621 -0.0828  2.0300
  380TIP3   OH222554   4.265   2.855  10.627 -0.2386 -0.5066  0.5760
  380TIP3    H122555   4.206   2.782  10.645 -0.8065  0.3401  2.3134
  380TIP3    H222556   4.343   2.837  10.679 -0.4406  0.1903  1.1298
  381TIP3   OH222557   5.559   0.968   6.047  0.1279 -0.0413 -0.0626
  381TIP3    H122558   5.476   1.011   6.070  0.5289  0.1130  1.1786
  381TIP3    H222559   5.607   1.035   5.998 -0.6867 -0.3160 -1.2646
  382TIP3   OH222560   1.094   2.500  13.607  0.0726 -0.3739 -0.2229
  382TIP3    H122561   1.125   2.539  13.689 -0.2826  0.4704 -0.4796
  382TIP3    H222562   1.092   2.573  13.546  1.4718 -1.2053 -1.3291
  383TIP3   OH222563   4.959   2.807  16.640  0.6305 -0.2684  0.2906
  383TIP3    H122564   4.990   2.839  16.724 -0.1151  0.3810  0.3352
  383TIP3    H222565   4.870   2.842  16.632 -0.0872 -2.0090  0.1433
  384TIP3   OH222566   3.646   1.208  15.067 -0.4808  0.2318 -0.3388
  384TIP3    H122567   3.655   1.188  15.160  0.3093 -0.8590 -0.6356
  384TIP3    H222568   3.557   1.182  15.045  0.2332 -2.3284 -0.5166
  385TIP3   OH222569   3.220   2.644   2.496  0.4425  0.5268  0.4790
  385TIP3    H122570   3.205   2.632   2.590 -0.4667  0.3772  0.3257
  385TIP3    H222571   3.133   2.631   2.457  1.0885 -1.0061 -0.5287
  386TIP3   OH222572   4.979   1.022  13.088  0.3156  0.0039 -0.3820
  386TIP3    H122573   4.995   1.078  13.164  0.0652 -0.6148  0.1325
  386TIP3    H222574   4.896   0.978  13.108  0.5219 -0.5723 -0.7688
  387TIP3   OH222575   0.463   3.252   0.282 -0.0844 -0.5326 -0.3591
  387TIP3    H122576   0.556   3.262   0.261 -0.4722 -0.7430 -2.3920
  387TIP3    H222577   0.424   3.336   0.262 -0.3944 -0.5137  0.2814
  388TIP3   OH222578   2.083   5.549  16.694 -0.2812  0.0496 -0.4169
  388TIP3    H122579   2.119   5.490  16.628 -0.8580  0.1998 -0.8695
  388TIP3    H222580   2.140   5.626  16.690 -0.2682  0.0276 -0.6878
  389TIP3   OH222581   5.578   0.729  15.380 -0.1485 -0.3816  0.5229
  389TIP3    H122582   5.671   0.744  15.368 -0.1920 -0.9102 -0.4949
  389TIP3    H222583   5.567   0.634  15.375 -1.1336 -0.1920 -2.4726
  390TIP3   OH222584   6.147   4.318   4.500 -0.3315 -0.0769  0.4782
  390TIP3    H122585   6.064   4.294   4.540 -0.2217 -0.3657  0.5313
  390TIP3    H222586   6.179   4.391   4.553 -0.7760  0.3436  0.1710
  391TIP3   OH222587   5.751   6.762  16.578 -0.2090  0.4769  0.6778
  391TIP3    H122588   5.674   6.818  16.591 -2.7107 -2.3113 -0.7846
  391TIP3    H222589   5.787   6.789  16.494 -0.5584  0.7999  0.6294
  392TIP3   OH222590   6.066   2.960  14.119  0.2426 -0.2620 -0.6498
  392TIP3    H122591   6.036   2.912  14.196 -1.0810  0.4736 -0.6704
  392TIP3    H222592   6.056   2.898  14.047  0.7196 -0.6915 -0.3512
  393TIP3   OH222593   0.674   4.464   5.974 -0.0361 -0.0396  0.4531
  393TIP3    H122594   0.581   4.454   5.994 -0.3957 -1.1976 -1.5356
  393TIP3    H222595   0.682   4.437   5.883  2.6694 -2.5805  1.3030
  394TIP3   OH222596   3.432   4.760  11.333 -0.0903  0.1932  0.5458
  394TIP3    H122597   3.500   4.769  11.266 -0.8358 -0.3498 -0.2968
  394TIP3    H222598   3.457   4.682  11.382  0.5774  0.7159  1.0584
  395TIP3   OH222599   6.325   5.331   0.358 -0.1396  0.1234 -0.4120
  395TIP3    H122600   6.370   5.296   0.435  0.5934 -0.4108 -1.0606
  395TIP3    H222601   6.238   5.354   0.390 -0.2016 -1.0585  0.3537
  396TIP3   OH222602   6.090   4.095  14.623  0.2967  0.0633 -0.2362
  396TIP3    H122603   6.068   4.182  14.590 -0.9397  0.2277  0.9605
  396TIP3    H222604   6.022   4.038  14.586  0.1625 -0.1182  0.2917
  397TIP3   OH222605   1.584   6.344  15.964 -0.7501 -0.5751 -0.1839
  397TIP3    H122606   1.670   6.382  15.948 -0.5851 -0.8833 -0.0213
  397TIP3    H222607   1.601   6.263  16.011 -1.1066 -0.8342 -0.4935
  398TIP3   OH222608   2.811   3.092  14.309  0.3204 -0.2116  0.2743
  398TIP3    H122609   2.753   3.128  14.377 -1.2959 -0.0350 -1.1399
  398TIP3    H222610   2.758   3.026  14.265  0.7200  0.8689 -1.9250
  399TIP3   OH222611   4.405   3.029  14.459 -0.2962 -0.1121  0.0994
  399TIP3    H122612   4.376   3.005  14.547  0.2667 -0.9207  0.0694
  399TIP3    H222613   4.481   3.086  14.474 -1.9269  2.1719  0.1819
  400TIP3   OH222614   0.392   1.209  11.732 -0.0689  0.0422  0.8153
  400TIP3    H122615   0.396   1.113  11.732  0.4939  0.0284  2.6402
  400TIP3    H222616   0.298   1.229  11.736 -0.2767 -0.3707 -1.0217
  401TIP3   OH222617   1.874   3.808  11.694  0.4168  0.2020  0.7975
  401TIP3    H122618   1.883   3.741  11.627 -0.2144 -1.5037  2.3211
  401TIP3    H222619   1.930   3.777  11.766 -0.9696  0.5355  2.0735
  402TIP3   OH222620   0.965   1.897   2.510  0.0389  0.1248 -0.4608
  402TIP3    H122621   0.908   1.961   2.552  0.5409  0.2325  0.0782
  402TIP3    H222622   1.003   1.944   2.436  1.5471  0.9702  0.7751
  403TIP3   OH222623   3.484   3.720   0.707  0.6220  0.0985  0.4416
  403TIP3    H122624   3.525   3.646   0.662  0.1404 -1.0329  1.7611
  403TIP3    H222625   3.557   3.768   0.747  0.8156 -1.3411  1.9583
  404TIP3   OH222626   4.624   0.396  16.271  0.1276  0.5030  0.2997
  404TIP3    H122627   4.665   0.474  16.308 -2.2833  1.9858  0.0848
  404TIP3    H222628   4.696   0.346  16.234  1.9100  1.9661  1.6282
  405TIP3   OH222629   1.056   2.613  13.009  0.1400 -0.1621 -0.5360
  405TIP3    H122630   0.978   2.568  13.040 -0.2215  1.8390  1.8242
  405TIP3    H222631   1.029   2.655  12.927 -0.7401 -0.8674 -0.6185
  406TIP3   OH222632   3.748   4.004   6.086 -0.6956  0.1761  0.4540
  406TIP3    H122633   3.685   4.036   6.151 -0.6263 -1.5194  1.4373
  406TIP3    H222634   3.716   3.916   6.065  0.7712 -0.3148  0.1885
  407TIP3   OH222635   5.417   4.834   1.876  0.2257 -0.1007 -0.1732
  407TIP3    H122636   5.393   4.925   1.890  2.1274  0.4176  0.1029
  407TIP3    H222637   5.502   4.825   1.921 -0.8712 -2.5657  1.6670
  408TIP3   OH222638   1.376   2.262   3.415  0.4889  1.0196  0.3816
  408TIP3    H122639   1.336   2.301   3.493 -0.3030  1.1984 -0.1032
  408TIP3    H222640   1.417   2.336   3.370 -1.2334  1.3939 -0.6720
  409TIP3   OH222641   5.490   6.170   0.241  0.2299  0.7029 -0.0503
  409TIP3    H122642   5.585   6.168   0.227  0.2388  2.4923 -0.4507
  409TIP3    H222643   5.453   6.189   0.155 -0.7974 -3.1728 -0.6476
  410TIP3   OH222644   0.125   2.805  11.076 -0.1286 -0.2910 -0.3583
  410TIP3    H122645   0.139   2.747  11.150 -0.0908 -1.0585 -0.9633
  410TIP3    H222646   0.149   2.754  10.999  1.2646  0.9787 -0.8154
  411TIP3   OH222647   1.601   0.486   3.113  0.0289 -0.3247 -0.4268
  411TIP3    H122648   1.535   0.556   3.109  0.0999 -0.1759  0.6567
  411TIP3    H222649   1.660   0.504   3.040  0.0250  0.7376 -0.1822
  412TIP3   OH222650   6.774   4.764  11.908  0.5657  0.5159  0.0330
  412TIP3    H122651   6.823   4.778  11.827 -1.1848  0.6505 -1.0662
  412TIP3    H222652   6.718   4.841  11.916 -1.8848 -1.0427 -0.6602
  413TIP3   OH222653   5.545   1.306   0.192  0.1232 -0.5903 -0.0072
  413TIP3    H122654   5.621   1.285   0.247 -0.8163 -0.8717  1.2335
  413TIP3    H222655   5.515   1.222   0.160 -0.3592 -0.6073  0.4757
  414TIP3   OH222656   5.036   2.107  17.107 -0.5836  0.6529 -0.2934
  414TIP3    H122657   5.033   2.012  17.120 -0.0424  0.2935 -2.4217
  414TIP3    H222658   5.128   2.130  17.121 -0.4905  0.6625 -0.8968
  415TIP3   OH222659   1.981   5.879   0.169 -0.4337 -0.2433  0.0164
  415TIP3    H122660   2.009   5.944   0.233 -0.8362  1.3424 -1.3446
  415TIP3    H222661   1.907   5.834   0.210 -1.6227  1.7319  0.1572
  416TIP3   OH222662   4.446   0.084  13.076 -0.5582  0.8207 -0.3555
  416TIP3    H122663   4.370   0.060  13.023 -0.2568  1.9635 -1.3442
  416TIP3    H222664   4.432   0.176  13.098 -0.6784  0.3756  1.5957
  417TIP3   OH222665   3.188   4.876   2.020 -0.5129 -0.1040 -0.2060
  417TIP3    H122666   3.236   4.874   1.938 -0.8540 -1.2931 -0.3962
  417TIP3    H222667   3.134   4.955   2.015 -1.7185 -0.9737 -1.8483
  418TIP3   OH222668   5.328   2.489  15.498  0.0001 -0.4925  0.2963
  418TIP3    H122669   5.384   2.557  15.461 -2.3284  0.7097 -1.2921
  418TIP3    H222670   5.291   2.443  15.423 -0.3461 -1.9408  1.2936
  419TIP3   OH222671   6.704   4.330  12.129  0.0338  0.4492 -0.0010
  419TIP3    H122672   6.649   4.267  12.082 -0.3602 -0.0817  1.1095
  419TIP3    H222673   6.793   4.302  12.110 -0.1118  0.3880 -0.6146
  420TIP3   OH222674   5.820   1.225  11.491  0.3992 -0.2520 -1.0782
  420TIP3    H122675   5.749   1.220  11.427 -0.9500  2.0982  0.0837
  420TIP3    H222676   5.860   1.311  11.475  0.2734  0.2282  0.9351
  421TIP3   OH222677   2.781   6.365   2.918  0.3531 -0.0811 -0.1246
  421TIP3    H122678   2.827   6.311   2.982 -1.7330 -1.0494  0.6565
  421TIP3    H222679   2.786   6.454   2.953  2.0292 -0.0664 -0.3420
  422TIP3   OH222680   2.813   5.833  16.435  0.2167  0.4010  0.6519
  422TIP3    H122681   2.870   5.819  16.510 -0.1471 -1.8649  0.5975
  422TIP3    H222682   2.724   5.832  16.472  0.1112  1.2755  0.4304
  423TIP3   OH222683   2.333   5.557   1.380 -0.7850 -0.0086 -0.2800
  423TIP3    H122684   2.380   5.633   1.344 -1.7804 -0.1075 -1.8889
  423TIP3    H222685   2.402   5.503   1.419  0.0626  1.2568  0.0622
  424TIP3   OH222686   1.656   4.966   0.140 -0.4061 -0.3631  0.4496
  424TIP3    H122687   1.659   5.049   0.092 -0.1365 -0.6559 -0.0447
  424TIP3    H222688   1.565   4.956   0.165 -1.2091 -1.6358 -2.5628
  425TIP3   OH222689   4.393   5.954  16.982  0.1824  0.5391  0.3904
  425TIP3    H122690   4.301   5.957  16.955  0.3224  0.4668 -0.1040
  425TIP3    H222691   4.395   5.892  17.055 -0.0799  0.1409  0.0629
  426TIP3   OH222692   2.623   2.362  13.757 -0.0935  0.6565 -0.0883
  426TIP3    H122693   2.687   2.421  13.716  0.3080 -0.3052 -0.8976
  426TIP3    H222694   2.584   2.414  13.828  1.5646  1.2776  0.4153
  427TIP3   OH222695   5.126   5.576   3.175  0.1065 -0.4858 -0.7317
  427TIP3    H122696   5.186   5.514   3.132  1.1559  1.2809 -1.9738
  427TIP3    H222697   5.183   5.631   3.228 -0.7320 -0.2059 -0.1081
  428TIP3   OH222698   2.238   2.051   5.691  0.0368  0.0238 -0.3548
  428TIP3    H122699   2.267   2.100   5.767 -1.1770  0.1284  0.0678
  428TIP3    H222700   2.313   2.050   5.632  0.9743  0.0055  0.8021
  429TIP3   OH222701   5.212   5.955  14.923 -0.6015  0.2198 -0.3260
  429TIP3    H122702   5.119   5.976  14.931 -0.6575  0.6751 -1.8622
  429TIP3    H222703   5.256   6.040  14.934 -0.3914  0.0679  0.0059
  430TIP3   OH222704   6.606   3.084   5.496  0.3882  0.1776  0.0018
  430TIP3    H122705   6.679   3.025   5.480 -0.6683 -1.1893  0.0079
  430TIP3    H222706   6.573   3.060   5.582  0.5443  1.4787  0.4492
  431TIP3   OH222707   3.193   5.379   3.753 -0.3667  0.2338 -0.3105
  431TIP3    H122708   3.182   5.287   3.779 -0.0320  0.4307  0.5538
  431TIP3    H222709   3.234   5.374   3.667 -2.8845 -0.4459 -1.5530
  432TIP3   OH222710   0.209   1.506  14.322  0.1764 -0.1503 -0.2979
  432TIP3    H122711   0.281   1.446  14.340  0.6866  0.7175  0.6492
  432TIP3    H222712   0.242   1.592  14.348  0.1870  0.9088 -3.4029
  433TIP3   OH222713   4.291   0.650   0.863  0.4925 -0.0505 -0.8969
  433TIP3    H122714   4.290   0.620   0.771 -0.9733 -0.5612 -0.7541
  433TIP3    H222715   4.231   0.724   0.864 -1.0716 -1.2597 -0.0238
  434TIP3   OH222716   1.692   0.265   1.032 -0.2702  0.5373 -0.0263
  434TIP3    H122717   1.738   0.204   0.973 -1.3570 -0.3473 -0.0012
  434TIP3    H222718   1.617   0.215   1.063 -1.2399  1.9313 -0.0480
  435TIP3   OH222719   0.882   6.576   5.121  0.2676  0.1833  0.0353
  435TIP3    H122720   0.798   6.533   5.135 -0.8639  2.2606  0.0884
  435TIP3    H222721   0.932   6.514   5.068 -0.8919 -1.5435  0.8577
  436TIP3   OH222722   1.734   4.679   0.813  0.1617 -0.1921 -0.4477
  436TIP3    H122723   1.829   4.677   0.829 -0.1774 -2.0696  1.7859
  436TIP3    H222724   1.708   4.768   0.833  1.1102 -0.2992  1.4649
  437TIP3   OH222725   0.621   3.201  16.381 -0.1958  0.0043 -0.2634
  437TIP3    H122726   0.648   3.184  16.290 -0.5578  0.2711 -0.4232
  437TIP3    H222727   0.556   3.271  16.374  2.0852  2.3634  0.4877
  438TIP3   OH222728   2.044   3.538   5.703 -0.0324 -0.5983  0.2247
  438TIP3    H122729   2.036   3.466   5.641 -0.4143  0.0310 -0.4583
  438TIP3    H222730   2.138   3.559   5.704 -0.0002 -0.7345  0.0072
  439TIP3   OH222731   1.434   2.963   2.356  0.0534 -0.1266 -0.1125
  439TIP3    H122732   1.383   2.971   2.436  1.5597  0.3907  0.8572
  439TIP3    H222733   1.474   3.050   2.345  1.4403 -0.7549 -0.2827
  440TIP3   OH222734   0.733   6.425   1.377 -0.2888 -0.8058  0.0149
  440TIP3    H122735   0.769   6.485   1.312 -2.4020 -0.5729 -0.9998
  440TIP3    H222736   0.677   6.480   1.432 -0.2156 -1.3979  0.6974
  441TIP3   OH222737   6.031   5.208   1.456  0.2359 -0.5378 -0.0720
  441TIP3    H122738   6.078   5.153   1.518 -0.1430  1.1690  1.8392
  441TIP3    H222739   5.963   5.251   1.508  2.0492  3.6978 -0.7542
  442TIP3   OH222740   6.427   4.090   3.094  0.7325 -0.2285 -0.2873
  442TIP3    H122741   6.494   4.023   3.086  2.0046  0.9027  0.4938
  442TIP3    H222742   6.447   4.153   3.025  0.5676  0.1952  0.0458
  443TIP3   OH222743   3.302   1.916   1.277 -0.6920  0.5932  0.2260
  443TIP3    H122744   3.244   1.869   1.217 -0.5319 -0.5155  0.9121
  443TIP3    H222745   3.376   1.944   1.223 -0.9968  0.4324 -0.2789
  444TIP3   OH222746   3.540   4.108  16.608 -0.1949 -0.7890  0.0581
  444TIP3    H122747   3.492   4.178  16.652 -2.1531 -0.2203 -2.7107
  444TIP3    H222748   3.626   4.146  16.591 -0.8755  0.5976 -0.4483
  445TIP3   OH222749   0.229   3.816  11.860 -0.2216  0.0712 -0.0563
  445TIP3    H122750   0.195   3.834  11.772  0.4992 -0.4337 -0.4393
  445TIP3    H222751   0.201   3.892  11.911 -0.5706  0.4183 -0.7376
  446TIP3   OH222752   4.050   4.576  12.075 -0.5477  0.6547 -0.1287
  446TIP3    H122753   3.997   4.503  12.108 -2.8855  1.1646 -2.3867
  446TIP3    H222754   4.004   4.605  11.996  2.2289  2.3453 -1.2695
  447TIP3   OH222755   4.495   1.135   5.429 -0.1578 -0.1613 -0.1875
  447TIP3    H122756   4.414   1.098   5.393 -0.0560 -0.8630  0.2892
  447TIP3    H222757   4.472   1.162   5.518  0.1033 -0.2641 -0.0866
  448TIP3   OH222758   0.534   4.840  12.908  0.8061  0.1738  0.2624
  448TIP3    H122759   0.503   4.825  12.997  0.7839  0.7391  0.3489
  448TIP3    H222760   0.463   4.886  12.864  1.1912  0.7566  0.2340
  449TIP3   OH222761   5.373   0.389   0.611  0.3267 -0.1560  0.3414
  449TIP3    H122762   5.421   0.431   0.682  0.1614  0.0769  0.3138
  449TIP3    H222763   5.419   0.306   0.597 -0.0247 -0.5057  1.1599
  450TIP3   OH222764   2.534   1.197  13.434  0.3899  0.2058 -0.1881
  450TIP3    H122765   2.507   1.270  13.378 -1.5124 -0.5515 -0.3358
  450TIP3    H222766   2.537   1.235  13.522 -2.1824  0.1874 -0.0131
  451TIP3   OH222767   4.076   6.058  11.458  0.1317  0.2613 -0.2584
  451TIP3    H122768   4.158   6.040  11.503 -1.0175 -0.7642  1.5915
  451TIP3    H222769   4.056   6.149  11.481  0.5923  0.4214 -0.4765
  452TIP3   OH222770   1.460   2.893  11.602 -0.2241  0.0154 -0.2228
  452TIP3    H122771   1.453   2.835  11.527  0.3843  1.5356 -1.5127
  452TIP3    H222772   1.551   2.885  11.630  0.2053  1.2247 -1.1891
  453TIP3   OH222773   2.018   2.223  11.199  0.0954  0.0235 -0.1382
  453TIP3    H122774   1.988   2.215  11.289  3.4955 -1.6697  0.9975
  453TIP3    H222775   1.969   2.157  11.151 -1.3709  0.5959  0.5103
  454TIP3   OH222776   0.924   0.429   0.903 -0.0083 -0.3300  0.2492
  454TIP3    H122777   0.968   0.344   0.900 -1.4872 -1.0803 -1.8723
  454TIP3    H222778   0.850   0.420   0.843 -0.2557  2.4325  0.0413
  455TIP3   OH222779   6.192   4.824   3.822  0.9075 -0.0267 -0.1937
  455TIP3    H122780   6.216   4.864   3.906 -0.7211  1.0328 -0.1846
  455TIP3    H222781   6.276   4.812   3.777  1.8683 -0.9539  1.6895
  456TIP3   OH222782   1.102   2.979  11.559  0.1224 -0.2508  0.1419
  456TIP3    H122783   1.090   3.035  11.483 -0.0361  0.1095  0.4264
  456TIP3    H222784   1.165   3.025  11.614 -2.2337  1.2113  1.8169
  457TIP3   OH222785   4.476   3.371   1.377 -0.1015  0.5329  0.1830
  457TIP3    H122786   4.552   3.407   1.332 -0.8873  1.7945 -0.1861
  457TIP3    H222787   4.401   3.411   1.334 -0.9072  1.6331  2.4289
  458TIP3   OH222788   6.185   1.972   0.088  0.2952 -0.0352 -0.4831
  458TIP3    H122789   6.218   1.938   0.005  0.6692 -1.3754  0.1746
  458TIP3    H222790   6.143   1.896   0.130  2.5829 -0.1892  1.7722
  459TIP3   OH222791   4.632   5.014   4.199 -0.2294  0.0622 -1.1744
  459TIP3    H122792   4.575   5.019   4.276 -1.5224  2.0278 -2.1737
  459TIP3    H222793   4.674   5.100   4.195  1.7036 -0.8344 -1.3356
  460TIP3   OH222794   5.731   1.713  12.800  0.5756  0.0119  0.7494
  460TIP3    H122795   5.671   1.714  12.875  0.8155 -3.4324  1.1279
  460TIP3    H222796   5.715   1.797  12.756 -1.2889  1.1291  3.2791
  461TIP3   OH222797   6.373   1.359  15.149  0.2110 -0.0176 -0.1361
  461TIP3    H122798   6.298   1.301  15.135  0.0942  0.3098 -0.9205
  461TIP3    H222799   6.414   1.326  15.229  0.0830 -1.1252 -0.4991
  462TIP3   OH222800   5.091   2.534  12.866 -0.1487 -0.2360  0.0947
  462TIP3    H122801   5.139   2.453  12.884  0.0319 -0.3816 -0.9857
  462TIP3    H222802   5.005   2.521  12.907  1.0224  0.4835  3.1019
  463TIP3   OH222803   4.479   4.230  16.177  0.3220 -0.0433  0.2411
  463TIP3    H122804   4.386   4.242  16.155  0.7113  1.0040 -0.9310
  463TIP3    H222805   4.492   4.287  16.253 -0.1997 -0.9142  0.9992
  464TIP3   OH222806   1.944   5.537  13.261 -0.0763 -0.3415  0.2877
  464TIP3    H122807   1.909   5.495  13.182  1.3352 -1.5814  0.2715
  464TIP3    H222808   1.884   5.511  13.330 -2.2465  2.0538 -0.5550
  465TIP3   OH222809   2.696   0.920   0.724  0.4014 -0.2306  0.3905
  465TIP3    H122810   2.769   0.979   0.743  1.0961 -1.4897  1.8628
  465TIP3    H222811   2.622   0.956   0.773  0.4613  0.1610  0.1922
  466TIP3   OH222812   3.461   2.357   0.884 -0.2863  0.9398 -0.3665
  466TIP3    H122813   3.492   2.445   0.904  0.5836  0.2380  1.6951
  466TIP3    H222814   3.523   2.323   0.820  0.8534  0.9867  0.6857
  467TIP3   OH222815   5.862   4.693   1.395 -0.1881  0.1159  0.1523
  467TIP3    H122816   5.920   4.767   1.379 -0.5229  0.6429  1.2490
  467TIP3    H222817   5.829   4.708   1.484  0.1322 -1.6164  0.5934
  468TIP3   OH222818   4.148   0.113   4.140 -0.2833  0.1771  0.1877
  468TIP3    H122819   4.174   0.140   4.052  0.8689 -0.4635  0.3078
  468TIP3    H222820   4.053   0.111   4.138 -0.2912 -2.1098 -1.7769
  469TIP3   OH222821   5.918   2.424   5.354  0.3327 -0.0640 -0.2528
  469TIP3    H122822   5.841   2.386   5.312 -1.0526  0.6503  1.4937
  469TIP3    H222823   5.898   2.422   5.447  2.6876 -0.3313  0.3022
  470TIP3   OH222824   6.052   2.626  11.633  1.2225 -0.0039 -0.2429
  470TIP3    H122825   6.037   2.598  11.543  0.9483  1.5226 -0.6899
  470TIP3    H222826   5.965   2.648  11.666  1.5081  1.1054 -0.1895
  471TIP3   OH222827   5.933   4.509  11.794  0.1407 -0.2565  0.1426
  471TIP3    H122828   5.872   4.477  11.728  0.2885 -0.6264  0.1837
  471TIP3    H222829   5.886   4.497  11.877  0.4892 -1.0978  0.2311
  472TIP3   OH222830   1.807   1.024   1.969  0.5493  0.2298 -0.3065
  472TIP3    H122831   1.775   1.089   2.032  1.2018 -1.0359  1.4113
  472TIP3    H222832   1.728   0.993   1.925  0.3446  3.4476 -2.6109
  473TIP3   OH222833   0.825   2.812   5.433 -0.2836 -0.3499  0.3387
  473TIP3    H122834   0.895   2.753   5.404 -0.2135  0.2017 -0.6665
  473TIP3    H222835   0.856   2.845   5.517  0.9592  0.3031 -0.3329
  474TIP3   OH222836   2.829   1.098  16.982  0.0676  0.4986 -0.2807
  474TIP3    H122837   2.753   1.126  16.929  0.0575 -0.9244 -1.0648
  474TIP3    H222838   2.793   1.032  17.042  0.9523 -1.4936 -1.8446
  475TIP3   OH222839   4.090   1.403  11.400  0.0962 -0.2702 -0.4626
  475TIP3    H122840   4.030   1.462  11.355  1.3041  1.9784  0.6922
  475TIP3    H222841   4.148   1.461  11.450  2.1282 -2.3930 -0.1689
  476TIP3   OH222842   6.020   4.375   3.221  0.4429  0.3892  0.2432
  476TIP3    H122843   6.113   4.357   3.207  1.0218  1.8316  1.8781
  476TIP3    H222844   5.997   4.325   3.299 -0.1590  0.0948 -0.1106
  477TIP3   OH222845   6.056   4.174  12.209 -0.5062 -0.2050 -0.2036
  477TIP3    H122846   6.103   4.257  12.198 -1.9287  0.5289 -1.0356
  477TIP3    H222847   5.964   4.196  12.196 -0.8631 -2.0499 -1.2588
  478TIP3   OH222848   3.185   5.358  11.367  0.5993  0.2069 -0.1239
  478TIP3    H122849   3.114   5.301  11.397 -1.2554  3.4304  2.1442
  478TIP3    H222850   3.263   5.324  11.412 -0.1493 -1.2896  0.1107
  479TIP3   OH222851   2.383   2.056   6.548  0.4523  0.1685 -0.3499
  479TIP3    H122852   2.457   2.015   6.504  0.9897 -0.3492  0.9871
  479TIP3    H222853   2.414   2.074   6.637 -0.7666  0.6646  0.0019
  480TIP3   OH222854   1.741   0.899   4.037 -0.1532 -0.4965 -0.4623
  480TIP3    H122855   1.683   0.864   4.105 -0.4052 -0.5344 -0.6949
  480TIP3    H222856   1.823   0.918   4.083 -0.2477 -0.7314 -0.1919
  481TIP3   OH222857   4.732   5.167   4.547 -0.1059 -0.3238  0.2621
  481TIP3    H122858   4.740   5.171   4.642  0.3500 -0.9998  0.2581
  481TIP3    H222859   4.642   5.197   4.530 -0.2542 -0.3726  0.9143
  482TIP3   OH222860   4.192   0.395   1.419 -0.0076  0.4792  0.1551
  482TIP3    H122861   4.282   0.413   1.389 -0.7046  1.5529 -1.4156
  482TIP3    H222862   4.154   0.481   1.434 -1.0868  0.0801 -0.1741
  483TIP3   OH222863   6.468   5.147  12.841 -0.0406  0.1176  0.0520
  483TIP3    H122864   6.537   5.205  12.810  0.6058 -0.3675  0.5446
  483TIP3    H222865   6.408   5.139  12.767  0.3268  0.7059 -0.3155
  484TIP3   OH222866   3.411   0.456  11.607  0.3183  0.0858 -0.0580
  484TIP3    H122867   3.497   0.487  11.577  0.2426 -0.4296 -0.8335
  484TIP3    H222868   3.348   0.501  11.551  0.1625 -0.6943 -0.5211
  485TIP3   OH222869   1.334   6.573  11.590 -0.0249 -0.7389 -0.4364
  485TIP3    H122870   1.280   6.649  11.570  2.3399  1.3628  0.6049
  485TIP3    H222871   1.312   6.551  11.681  1.5925  0.9339  0.4450
  486TIP3   OH222872   2.925   1.470  11.354 -0.5928  0.0653  0.6796
  486TIP3    H122873   2.866   1.399  11.330 -1.3356  0.1447  2.1881
  486TIP3    H222874   3.013   1.437  11.333 -1.0447 -0.6268 -0.1819
  487TIP3   OH222875   0.066   3.575   3.963  0.5458 -0.3306  0.1535
  487TIP3    H122876   0.050   3.500   3.905 -1.2312 -0.2864  0.5289
  487TIP3    H222877   0.122   3.540   4.033 -2.1276 -2.0179  1.6246
  488TIP3   OH222878   5.556   1.019  11.646  0.0445 -0.2120  0.0093
  488TIP3    H122879   5.642   0.989  11.675 -0.8879 -0.3302  2.9282
  488TIP3    H222880   5.502   0.940  11.646 -0.7457  0.3151  1.0165
  489TIP3   OH222881   4.410   0.399  13.105  0.4541  0.4675  0.0998
  489TIP3    H122882   4.496   0.433  13.130  1.8058 -1.5086 -1.4794
  489TIP3    H222883   4.350   0.472  13.118  2.9609  3.2185 -2.2677
  490TIP3   OH222884   4.220   2.305   2.423  0.2898  0.1707  0.1068
  490TIP3    H122885   4.294   2.245   2.413  0.0315 -0.1940  0.3457
  490TIP3    H222886   4.177   2.276   2.503 -1.2740 -0.8833 -1.0627
  491TIP3   OH222887   4.446   5.408   0.141 -0.0423 -0.3153 -0.5347
  491TIP3    H122888   4.449   5.446   0.053 -0.5402 -0.0505 -0.4420
  491TIP3    H222889   4.486   5.476   0.197 -0.9193  0.0793 -0.3709
  492TIP3   OH222890   0.330   0.776  13.230  0.8162  0.3983 -0.0753
  492TIP3    H122891   0.354   0.799  13.320 -0.2814 -1.5888  0.7967
  492TIP3    H222892   0.273   0.847  13.202  0.5061  0.6498  1.1111
  493TIP3   OH222893   0.619   2.899   3.847  0.3908  0.0870 -0.2876
  493TIP3    H122894   0.689   2.927   3.906 -0.2305  1.0336  0.0170
  493TIP3    H222895   0.548   2.871   3.905  0.2234 -0.1141 -0.5888
  494TIP3   OH222896   2.293   0.798   3.349  0.5363 -0.6559 -0.3799
  494TIP3    H122897   2.298   0.878   3.296 -0.2511 -0.2982  0.0734
  494TIP3    H222898   2.237   0.822   3.423  0.0247 -1.7296 -0.4061
  495TIP3   OH222899   5.977   3.255   4.210 -0.3212  0.1525  0.2745
  495TIP3    H122900   6.040   3.255   4.283 -0.2743  1.0938  0.2425
  495TIP3    H222901   5.943   3.344   4.208 -0.0695  0.2373 -1.0809
  496TIP3   OH222902   3.748   3.433  16.140  0.1490  0.1017 -0.1839
  496TIP3    H122903   3.813   3.504  16.139 -1.2255  1.3965 -0.7097
  496TIP3    H222904   3.769   3.383  16.218  3.4253 -1.1171 -1.6659
  497TIP3   OH222905   1.460   3.779   1.939  0.1220  0.6394 -0.8992
  497TIP3    H122906   1.536   3.810   1.987  0.2826  0.1603 -0.8376
  497TIP3    H222907   1.417   3.858   1.908 -0.5777  1.0323  0.9207
  498TIP3   OH222908   2.752   0.097   6.315  0.2106 -0.1111  0.3950
  498TIP3    H122909   2.746   0.032   6.385 -0.1411  0.8338  1.2657
  498TIP3    H222910   2.803   0.169   6.354 -0.7202  0.7898 -0.0191
  499TIP3   OH222911   3.502   4.732   0.345 -0.3223  0.4411  0.4097
  499TIP3    H122912   3.407   4.735   0.355 -0.3128  0.0931  0.5957
  499TIP3    H222913   3.534   4.805   0.398 -0.4128 -0.1343  1.2835
  500TIP3   OH222914   4.010   1.355  16.446  0.0220  0.2510  0.6079
  500TIP3    H122915   4.057   1.307  16.378 -0.4354  0.1432  0.3627
  500TIP3    H222916   4.056   1.334  16.527 -1.4223 -2.3562  0.8616
  501TIP3   OH222917   5.782   1.837   2.922  0.5923 -0.3307 -0.3839
  501TIP3    H122918   5.796   1.870   2.833  0.6921  2.9791  0.7179
  501TIP3    H222919   5.702   1.785   2.916 -0.4352  1.2989 -2.1156
  502TIP3   OH222920   1.888   4.063   5.236  0.3610  0.2435  0.2675
  502TIP3    H122921   1.880   4.130   5.168 -2.8359 -0.0282  0.2155
  502TIP3    H222922   1.890   3.980   5.188  1.1459  0.1409  0.4534
  503TIP3   OH222923   2.461   4.101   4.707 -0.1754 -0.1043  0.0981
  503TIP3    H122924   2.430   4.153   4.781 -1.6150 -0.4348 -0.2338
  503TIP3    H222925   2.505   4.163   4.650  2.3553 -0.0812  1.9042
  504TIP3   OH222926   6.597   1.556  16.728 -0.5047 -0.0342 -0.1481
  504TIP3    H122927   6.504   1.532  16.731 -0.3787 -1.2081 -3.0359
  504TIP3    H222928   6.596   1.652  16.723 -1.2481  0.4699  4.7204
  505TIP3   OH222929   0.478   5.100   0.050 -0.0873 -0.1239 -0.5592
  505TIP3    H122930   0.548   5.126   0.109 -0.3589  0.7570 -0.6120
  505TIP3    H222931   0.412   5.169   0.059 -0.0558  0.1201 -2.0081
  506TIP3   OH222932   4.122   3.181   2.748 -0.0291 -0.9914  0.2440
  506TIP3    H122933   4.180   3.169   2.673 -1.5459  0.9759 -1.3854
  506TIP3    H222934   4.041   3.137   2.723 -0.5802 -0.2589  0.6917
  507TIP3   OH222935   1.179   4.710  12.297 -0.1176  0.1324  0.1289
  507TIP3    H122936   1.122   4.672  12.230  0.1620 -0.3924  0.1771
  507TIP3    H222937   1.219   4.634  12.339  1.2662  0.5012 -0.4785
  508TIP3   OH222938   5.347   6.762   2.915  0.5419 -0.2314 -0.1808
  508TIP3    H122939   5.254   6.742   2.913  0.2080  1.1915 -0.5648
  508TIP3    H222940   5.387   6.693   2.968 -0.8343 -0.4216  0.6269
  509TIP3   OH222941   4.589   1.288  13.372  0.2827  0.4081  0.9643
  509TIP3    H122942   4.510   1.342  13.362 -0.2000 -0.4212  0.2055
  509TIP3    H222943   4.630   1.321  13.452 -1.4023  0.1560  1.9822
  510TIP3   OH222944   4.611   2.878  13.048  0.5808 -0.0407  0.6727
  510TIP3    H122945   4.601   2.806  13.110 -0.7932 -1.1650 -0.7721
  510TIP3    H222946   4.661   2.840  12.976  0.4664  0.6655  0.2138
  511TIP3   OH222947   0.741   0.466   2.605 -0.2952 -0.1731  0.6584
  511TIP3    H122948   0.661   0.437   2.648 -0.2223 -1.2077  0.1314
  511TIP3    H222949   0.772   0.388   2.557 -0.2167  0.8286 -1.0054
  512TIP3   OH222950   5.893   0.913  16.457 -0.1440 -0.5643 -0.1347
  512TIP3    H122951   5.845   0.993  16.480  0.4587 -0.2862  0.1857
  512TIP3    H222952   5.947   0.895  16.534  0.2260 -0.9025 -0.4709
  513TIP3   OH222953   6.583   3.092  12.153 -0.3391  0.2781 -0.1804
  513TIP3    H122954   6.664   3.047  12.177 -0.5670 -0.0972 -0.1157
  513TIP3    H222955   6.559   3.141  12.231 -1.2080 -1.1252  0.4715
  514TIP3   OH222956   0.706   2.243  16.768 -0.6434  0.3067  0.2761
  514TIP3    H122957   0.632   2.303  16.774 -2.3996 -1.7308  0.1221
  514TIP3    H222958   0.720   2.231  16.674 -1.2666 -0.5936  0.2809
  515TIP3   OH222959   6.510   6.557   3.289 -0.0802  0.9785  0.1687
  515TIP3    H122960   6.578   6.591   3.232  0.7295  2.9749  2.1935
  515TIP3    H222961   6.545   6.475   3.323  1.6648  2.3039  1.6979
  516TIP3   OH222962   6.539   3.925  12.580  0.1169 -0.5763 -0.0626
  516TIP3    H122963   6.576   3.937  12.493 -1.2290  1.3365 -0.4117
  516TIP3    H222964   6.588   3.985  12.636  1.5863 -2.4342  0.7411
  517TIP3   OH222965   2.893   3.378   0.935  0.2117  0.4110 -0.4523
  517TIP3    H122966   2.912   3.356   1.026 -1.9318  1.6864  0.3965
  517TIP3    H222967   2.899   3.474   0.932 -1.6538  0.5527 -1.1201
  518TIP3   OH222968   1.584   5.235  12.619 -0.8027  0.7065  0.5554
  518TIP3    H122969   1.593   5.225  12.714  2.7924  1.4792  0.4695
  518TIP3    H222970   1.574   5.146  12.585 -1.6199  0.3833  1.6054
  519TIP3   OH222971   5.884   0.944   1.270 -0.1609  0.4379  0.0168
  519TIP3    H122972   5.873   0.969   1.178  1.7537  0.8654 -0.1540
  519TIP3    H222973   5.928   1.019   1.310 -1.1788  0.3482  1.3596
  520TIP3   OH222974   5.647   2.410  14.655 -0.3696 -0.2889  0.3458
  520TIP3    H122975   5.727   2.402  14.707  1.0842 -1.9506 -1.9835
  520TIP3    H222976   5.641   2.504  14.635  1.3410 -0.2025  0.0721
  521TIP3   OH222977   6.007   1.883  13.655  0.1799 -0.1380 -1.1541
  521TIP3    H122978   6.013   1.903  13.748 -0.0649  0.8444 -1.3412
  521TIP3    H222979   6.036   1.792  13.648 -1.1594 -0.6894  0.0627
  522TIP3   OH222980   4.148   6.125  14.299  0.6541  0.2541  0.0893
  522TIP3    H122981   4.230   6.088  14.333  1.3954  1.7243 -0.0023
  522TIP3    H222982   4.175   6.207  14.258 -1.1706  2.1224  2.3274
  523TIP3   OH222983   2.815   0.146   0.900  0.6248  0.3071  0.1219
  523TIP3    H122984   2.842   0.179   0.814  0.8990 -1.0896 -0.3585
  523TIP3    H222985   2.883   0.176   0.960  1.3626 -0.1848 -0.4612
  524TIP3   OH222986   5.723   5.570  13.494 -0.3143  0.3118 -0.7448
  524TIP3    H122987   5.644   5.515  13.492  0.0332 -0.2838  0.7306
  524TIP3    H222988   5.735   5.591  13.586  1.3829  0.2162 -0.9185
  525TIP3   OH222989   0.431   2.402   3.169 -0.2268  0.1028  0.2526
  525TIP3    H122990   0.377   2.388   3.091 -0.2622  0.9870  0.1044
  525TIP3    H222991   0.373   2.444   3.232 -0.4675 -1.4836  1.1384
  526TIP3   OH222992   3.783   3.476   0.370  0.5740 -0.1450 -0.3772
  526TIP3    H122993   3.775   3.547   0.306  0.7312 -0.8735 -1.2317
  526TIP3    H222994   3.872   3.483   0.403 -0.1362  1.5335  1.3711
  527TIP3   OH222995   6.064   6.301  13.799  0.5303  0.8396  0.3496
  527TIP3    H122996   6.159   6.293  13.796  0.6119  0.8411  1.9960
  527TIP3    H222997   6.038   6.256  13.880 -0.8864  0.6718 -0.1705
  528TIP3   OH222998   2.679   0.960   5.888 -0.0614 -0.1289  0.4454
  528TIP3    H122999   2.751   1.016   5.915  1.0871 -0.9837 -0.7119
  528TIP3    H223000   2.689   0.881   5.941 -0.8382  0.1715  1.0705
  529TIP3   OH223001   0.102   6.157   6.334  0.0099 -0.0027  0.1166
  529TIP3    H123002   0.043   6.146   6.259  0.2203  0.4201 -0.1123
  529TIP3    H223003   0.121   6.251   6.336 -1.1026  0.2266  1.5398
  530TIP3   OH223004   5.657   2.463  16.511  0.4819 -0.4597  0.2650
  530TIP3    H123005   5.707   2.545  16.503 -0.9023  0.3739 -0.2273
  530TIP3    H223006   5.685   2.425  16.594  1.3858  0.3482  0.3421
  531TIP3   OH223007   1.160   5.142   0.014  0.3729  0.2700  0.2938
  531TIP3    H123008   1.185   5.153  -0.078 -1.5973  1.5217 -0.1463
  531TIP3    H223009   1.092   5.075   0.012  1.0716 -0.4746  0.9995
  532TIP3   OH223010   0.632   1.812   0.862 -0.3150 -0.6893  0.4391
  532TIP3    H123011   0.727   1.808   0.853 -0.1655  0.5372  1.2797
  532TIP3    H223012   0.611   1.750   0.931 -0.2335 -1.5987 -0.3348
  533TIP3   OH223013   1.178   0.749   5.687  0.0751  0.4727 -0.1333
  533TIP3    H123014   1.243   0.719   5.750 -1.5870  0.0457  1.4482
  533TIP3    H223015   1.195   0.843   5.678  3.2754 -0.1612 -2.7066
  534TIP3   OH223016   1.347   5.516  13.233  0.5145  0.7820  0.1318
  534TIP3    H123017   1.392   5.488  13.154  1.4777  2.0583  0.1900
  534TIP3    H223018   1.374   5.452  13.300 -0.9551 -0.7783 -0.7109
  535TIP3   OH223019   5.762   5.204   5.546 -0.5781 -0.1461  0.2391
  535TIP3    H123020   5.748   5.113   5.521 -1.8023 -0.4809  2.0100
  535TIP3    H223021   5.674   5.239   5.560 -0.1536  1.4336 -0.7035
  536TIP3   OH223022   6.692   0.837   1.643 -0.8358  0.1035 -0.7103
  536TIP3    H123023   6.681   0.812   1.552 -0.2904 -0.0645 -0.7307
  536TIP3    H223024   6.731   0.924   1.640 -0.6287  0.0136 -0.6367
  537TIP3   OH223025   3.786   3.388   1.149  0.3587  0.4326  0.4133
  537TIP3    H123026   3.838   3.468   1.143 -0.8975  1.1546 -2.4335
  537TIP3    H223027   3.851   3.317   1.148  1.4009  1.3581 -0.7495
  538TIP3   OH223028   5.592   4.142  10.709  0.5347  0.2564  0.0768
  538TIP3    H123029   5.624   4.232  10.703  0.7964  0.0822 -2.1261
  538TIP3    H223030   5.670   4.088  10.696  0.1166 -0.2581 -0.3400
  539TIP3   OH223031   5.027   2.658   3.767 -0.2446 -0.0556 -0.0493
  539TIP3    H123032   5.087   2.686   3.836 -2.4666 -0.0291  2.0411
  539TIP3    H223033   5.035   2.562   3.766 -0.7285 -0.1240  0.8526
  540TIP3   OH223034   5.167   3.013   1.253 -0.0055  0.6628  0.0646
  540TIP3    H123035   5.137   3.046   1.337 -0.4592 -0.3645  0.3212
  540TIP3    H223036   5.209   2.929   1.272 -0.5152  0.1949 -0.7670
  541TIP3   OH223037   4.842   2.513  10.979 -0.5770  0.2251 -0.1181
  541TIP3    H123038   4.938   2.510  10.977 -0.4548 -0.6895  2.5417
  541TIP3    H223039   4.820   2.605  10.965  0.6177  0.3341 -1.5052
  542TIP3   OH223040   1.887   0.533  11.532 -0.7845  0.9068  0.0996
  542TIP3    H123041   1.982   0.524  11.529 -0.6696  1.4324  1.4770
  542TIP3    H223042   1.854   0.444  11.521 -0.0700  0.4659  1.3942
  543TIP3   OH223043   1.956   1.517   4.994  0.4056 -0.3916 -0.2943
  543TIP3    H123044   1.962   1.593   5.052  1.0094 -0.6514 -0.0100
  543TIP3    H223045   2.027   1.529   4.931 -0.6219  0.1998 -1.3614
  544TIP3   OH223046   1.521   2.192  15.904 -0.0758 -0.5806  0.4023
  544TIP3    H123047   1.616   2.206  15.903 -0.1058 -0.3742  0.3454
  544TIP3    H223048   1.495   2.201  15.812 -0.0189 -1.5689  0.2760
  545TIP3   OH223049   2.121   0.603  16.225  0.2094 -0.0785 -0.2759
  545TIP3    H123050   2.183   0.617  16.153  0.0274 -0.3724 -0.4957
  545TIP3    H223051   2.035   0.602  16.182 -0.5661  5.3540  0.4961
  546TIP3   OH223052   2.400   0.279   3.311 -0.1618 -0.5165  0.1508
  546TIP3    H123053   2.459   0.301   3.239 -0.5913 -0.2964 -0.1390
  546TIP3    H223054   2.358   0.197   3.284 -0.2553 -0.4830  0.1918
  547TIP3   OH223055   5.725   2.893   6.239 -0.1179  0.3490  0.1627
  547TIP3    H123056   5.667   2.926   6.171 -2.4673  1.1492  2.3809
  547TIP3    H223057   5.710   2.799   6.241  0.2443  0.2722 -0.6513
  548TIP3   OH223058   0.637   3.868   1.010  0.0322  0.0141 -0.2645
  548TIP3    H123059   0.658   3.853   0.918 -2.4623 -0.6189 -0.8008
  548TIP3    H223060   0.708   3.826   1.058  1.1440 -0.0367 -1.8741
  549TIP3   OH223061   5.059   6.731  14.067  0.2935 -0.2101  0.4515
  549TIP3    H123062   4.997   6.805  14.070 -0.0130 -0.4770  1.0579
  549TIP3    H223063   5.031   6.674  14.139  2.2221  0.4436  1.8124
  550TIP3   OH223064   5.118   2.183  11.878 -0.2538 -0.3195 -0.5237
  550TIP3    H123065   5.140   2.271  11.907  1.6824 -1.0892  0.5053
  550TIP3    H223066   5.054   2.196  11.808 -0.8630  1.8291  0.3804
  551TIP3   OH223067   5.004   2.047  10.603  0.1848 -0.0826  0.0415
  551TIP3    H123068   4.990   2.003  10.519  0.3871 -1.1330  0.5345
  551TIP3    H223069   4.943   2.121  10.603  0.0436 -0.1921 -0.9414
  552TIP3   OH223070   0.779   4.096  15.617  0.1397 -0.0046  0.2397
  552TIP3    H123071   0.795   4.179  15.573  0.1593 -0.7252 -1.1555
  552TIP3    H223072   0.751   4.121  15.705  0.5032  1.4623 -0.0315
  553TIP3   OH223073   6.501   6.672   3.874 -0.0961  0.0080 -0.4458
  553TIP3    H123074   6.416   6.630   3.857  0.1559  0.0934 -1.9989
  553TIP3    H223075   6.479   6.763   3.891 -0.3372 -0.0342 -0.5292
  554TIP3   OH223076   3.592   1.658  13.093  0.0246 -0.7476  0.1837
  554TIP3    H123077   3.636   1.677  13.176  0.6687  0.4697 -0.4053
  554TIP3    H223078   3.532   1.731  13.081 -0.2637 -1.0611 -0.2956
  555TIP3   OH223079   3.710   3.462   5.175 -0.1258 -0.6325  0.2559
  555TIP3    H123080   3.618   3.463   5.149  0.0631 -0.0234 -0.4364
  555TIP3    H223081   3.743   3.377   5.146 -0.1456 -0.3216 -0.7483
  556TIP3   OH223082   4.814   6.062   2.652  0.1717  0.7764 -0.3268
  556TIP3    H123083   4.725   6.085   2.678  0.3283 -1.0516  2.1622
  556TIP3    H223084   4.870   6.103   2.717  1.1838  1.5837 -1.6430
  557TIP3   OH223085   0.771   2.147   9.653  0.3029 -0.2079 -0.1230
  557TIP3    H123086   0.764   2.079   9.720  0.0908  0.5454  0.6411
  557TIP3    H223087   0.846   2.201   9.681 -0.7137  1.0076  0.3743
  558TIP3   OH223088   1.692   6.432   0.650 -0.3272 -0.3369 -0.0411
  558TIP3    H123089   1.667   6.457   0.561  0.1551 -1.0877 -0.3962
  558TIP3    H223090   1.714   6.339   0.643  2.4308  0.2178  0.2638
  559TIP3   OH223091   5.424   3.635  17.174  0.0370 -0.1652 -0.2804
  559TIP3    H123092   5.432   3.646  17.269 -1.0916 -0.4193 -0.1427
  559TIP3    H223093   5.514   3.631  17.143  0.4318  0.4037  0.7221
  560TIP3   OH223094   4.895   6.605  16.276 -0.1659  0.5825 -0.1773
  560TIP3    H123095   4.974   6.645  16.313 -0.6669  1.5857 -0.1732
  560TIP3    H223096   4.929   6.541  16.212  0.6604  0.1208  0.7009
  561TIP3   OH223097   5.789   2.982   5.974  0.1089  0.1290  0.1841
  561TIP3    H123098   5.837   3.031   5.907 -0.7602 -1.3887 -1.6762
  561TIP3    H223099   5.841   2.991   6.053  1.1771  2.0492 -0.6569
  562TIP3   OH223100   4.917   3.081  12.308  0.0572 -0.0936 -0.7537
  562TIP3    H123101   4.988   3.018  12.321 -0.6970 -1.4601 -2.7162
  562TIP3    H223102   4.867   3.079  12.390  2.6310  1.5274  1.0200
  563TIP3   OH223103   6.077   5.326   0.801 -0.4708 -0.3333  0.5362
  563TIP3    H123104   6.141   5.262   0.770 -0.8384  0.2875 -1.6810
  563TIP3    H223105   6.050   5.373   0.722  0.1959  2.9554  2.0970
  564TIP3   OH223106   6.095   0.846  11.262  0.3425  0.3966 -0.5920
  564TIP3    H123107   6.063   0.761  11.290  2.1138 -0.2122 -0.2797
  564TIP3    H223108   6.152   0.875  11.333 -0.1964  1.8372 -0.7179
  565TIP3   OH223109   1.836   4.009  11.137 -0.6336 -0.1021 -0.5069
  565TIP3    H123110   1.908   3.959  11.098  0.5628  1.2869 -0.1545
  565TIP3    H223111   1.796   4.055  11.063 -2.7050 -2.6101 -1.0873
  566TIP3   OH223112   6.054   2.920  10.310 -0.0888  0.3785  0.1802
  566TIP3    H123113   6.094   2.994  10.265 -1.1714  0.8756 -0.0020
  566TIP3    H223114   6.125   2.879  10.358  0.2959  2.3562  1.3869
  567TIP3   OH223115   4.867   1.367   5.100  0.1731  0.1513  0.1484
  567TIP3    H123116   4.835   1.440   5.046 -0.4635  0.0273  0.3534
  567TIP3    H223117   4.790   1.312   5.113  0.6974 -0.6854 -0.1968
  568TIP3   OH223118   4.107   4.601   5.913  0.2462  0.0535 -0.3407
  568TIP3    H123119   4.068   4.687   5.927 -2.2285 -0.9941 -0.2928
  568TIP3    H223120   4.194   4.608   5.951 -0.8510  1.7751  2.1280
  569TIP3   OH223121   0.150   4.217   4.054 -0.0714  0.2263 -0.1747
  569TIP3    H123122   0.231   4.189   4.010  0.7214  1.7530  0.2358
  569TIP3    H223123   0.168   4.203   4.147  0.2321  1.7214  0.0167
  570TIP3   OH223124   2.549   5.699   5.995  0.2943  0.3172  0.1896
  570TIP3    H123125   2.634   5.659   5.978 -0.3274 -0.6208 -0.7495
  570TIP3    H223126   2.570   5.778   6.046  1.9020  1.1992 -1.7226
  571TIP3   OH223127   2.584   3.805   2.388  0.3597  0.6852 -0.4720
  571TIP3    H123128   2.618   3.730   2.340  1.7605  0.4442  0.8080
  571TIP3    H223129   2.504   3.829   2.342 -0.9124 -2.4365 -0.1131
  572TIP3   OH223130   2.697   6.770   1.125 -0.2928  0.2308 -0.2351
  572TIP3    H123131   2.624   6.712   1.146 -0.8028  1.2969  1.1187
  572TIP3    H223132   2.666   6.822   1.051 -0.8183  0.4770  0.1474
  573TIP3   OH223133   4.697   0.469  13.356 -0.0720  0.7533 -0.1840
  573TIP3    H123134   4.783   0.463  13.314  0.5587  2.3067  0.8076
  573TIP3    H223135   4.688   0.561  13.379 -1.3716  0.3509  1.0446
  574TIP3   OH223136   4.158   2.141   5.692 -0.0011 -0.5870  0.1110
  574TIP3    H123137   4.124   2.052   5.685 -0.6258 -0.2762 -1.0125
  574TIP3    H223138   4.207   2.155   5.611 -0.9992  0.5291 -0.3310
  575TIP3   OH223139   1.546   5.522  15.731 -0.0189 -0.0515 -0.4281
  575TIP3    H123140   1.526   5.432  15.707  1.1089 -0.5313  0.3697
  575TIP3    H223141   1.471   5.572  15.699 -0.5507 -1.2266 -1.0994
  576TIP3   OH223142   3.222   2.898   5.178 -0.5037  0.1746 -0.3576
  576TIP3    H123143   3.197   2.896   5.270  0.1596  0.4866 -0.1590
  576TIP3    H223144   3.239   2.991   5.160 -0.1698  0.0585 -0.6567
  577TIP3   OH223145   4.719   6.565  12.106 -0.9059 -0.1510  0.0677
  577TIP3    H123146   4.735   6.597  12.017  2.8908  0.7544  0.8905
  577TIP3    H223147   4.793   6.507  12.125 -0.4240  1.3020  3.3170
  578TIP3   OH223148   3.358   5.783   0.967 -0.1559 -0.2135 -0.0266
  578TIP3    H123149   3.326   5.839   1.038  0.2521  0.3144 -0.2504
  578TIP3    H223150   3.369   5.697   1.008 -1.6308 -0.3658  0.1019
  579TIP3   OH223151   1.098   4.178  14.332 -0.3026  0.0826 -0.8400
  579TIP3    H123152   1.137   4.230  14.261 -0.9298 -0.2983 -1.4668
  579TIP3    H223153   1.071   4.243  14.397  1.2478  0.3744 -0.4293
  580TIP3   OH223154   4.461   1.919   4.043  0.2017 -0.1494 -0.3470
  580TIP3    H123155   4.557   1.923   4.046  0.1693  0.5101  0.0026
  580TIP3    H223156   4.433   2.006   4.070 -0.5660 -1.3180  3.0684
  581TIP3   OH223157   1.939   4.093   4.693  0.1117  0.8670 -0.6305
  581TIP3    H123158   2.030   4.072   4.674  0.3882  0.2212  1.2012
  581TIP3    H223159   1.896   4.007   4.701 -0.2146  1.1079  0.3691
  582TIP3   OH223160   2.828   0.649   1.705 -0.0223  0.2677  0.6786
  582TIP3    H123161   2.885   0.658   1.629 -0.0541  2.3403  0.8314
  582TIP3    H223162   2.888   0.629   1.777  0.2697  0.3662  0.4664
  583TIP3   OH223163   5.853   2.622  13.819 -0.4096 -0.1531 -0.0416
  583TIP3    H123164   5.838   2.577  13.902  1.5836 -2.0927 -0.6243
  583TIP3    H223165   5.773   2.605  13.768 -1.4664  0.6919  1.2689
  584TIP3   OH223166   6.272   2.182  16.659 -0.1274 -0.3705  0.5659
  584TIP3    H123167   6.307   2.240  16.591  0.4036 -1.1364  0.1797
  584TIP3    H223168   6.244   2.104  16.613 -0.2884 -0.6704  1.1579
  585TIP3   OH223169   3.761   3.920  13.752 -0.1043  0.0166 -0.4662
  585TIP3    H123170   3.675   3.895  13.787 -0.2246 -0.7251 -1.2561
  585TIP3    H223171   3.743   3.941  13.660  0.4894  0.3104 -0.5169
  586TIP3   OH223172   2.268   0.988   5.776  0.1219 -0.2722 -0.4318
  586TIP3    H123173   2.187   1.037   5.790  0.5622  0.9940 -1.9659
  586TIP3    H223174   2.259   0.910   5.830 -1.8809  0.0948 -0.1597
  587TIP3   OH223175   3.330   5.765   4.256 -0.0019 -0.2935 -0.3240
  587TIP3    H123176   3.385   5.789   4.181  0.7290  0.0215  0.3049
  587TIP3    H223177   3.243   5.756   4.219  0.1881  0.7156 -1.0672
  588TIP3   OH223178   5.281   0.272   1.770  0.6034 -0.3345 -0.1992
  588TIP3    H123179   5.311   0.224   1.693  0.7207  0.2746 -0.5430
  588TIP3    H223180   5.360   0.284   1.824  1.1020  1.5175 -1.2380
  589TIP3   OH223181   5.378   5.511  12.601  0.3674 -0.5295 -0.3137
  589TIP3    H123182   5.447   5.504  12.667 -0.6291 -1.1158  0.7105
  589TIP3    H223183   5.323   5.584  12.632  1.0564  0.6059 -1.6572
  590TIP3   OH223184   1.770   6.176   2.580 -0.2643  0.0348 -0.4163
  590TIP3    H123185   1.859   6.211   2.586  0.1180 -0.1737 -3.3235
  590TIP3    H223186   1.732   6.190   2.666  1.9757  1.8198  0.3623
  591TIP3   OH223187   6.762   3.528   0.715  0.1855 -0.5293  1.0593
  591TIP3    H123188   6.668   3.510   0.712  0.2469 -0.9208  1.4135
  591TIP3    H223189   6.781   3.568   0.630 -0.3309 -0.2895  1.0525
  592TIP3   OH223190   3.965   5.508  15.888  0.0445  0.3214 -0.6610
  592TIP3    H123191   3.917   5.510  15.971  0.2977 -0.2024 -0.4948
  592TIP3    H223192   3.911   5.558  15.828  0.2328  1.3839  0.0147
  593TIP3   OH223193   6.452   3.080  13.060 -0.1457 -0.5690 -0.4741
  593TIP3    H123194   6.462   3.176  13.058  0.7833 -0.6325 -3.1115
  593TIP3    H223195   6.460   3.057  13.152 -3.9369  2.1692  0.7868
  594TIP3   OH223196   0.113   3.265  16.121 -0.0357 -0.3664 -0.5580
  594TIP3    H123197   0.020   3.270  16.142 -0.3357 -1.4369 -1.5487
  594TIP3    H223198   0.139   3.176  16.145  0.6845 -0.1508 -0.5060
  595TIP3   OH223199   3.678   0.785  13.330 -0.7243 -0.3799 -0.0757
  595TIP3    H123200   3.646   0.695  13.326 -1.4866 -0.2414  1.8426
  595TIP3    H223201   3.658   0.813  13.420  1.9754  0.7870  0.2368
  596TIP3   OH223202   3.702   3.980  13.098  0.3059 -0.0114 -0.2282
  596TIP3    H123203   3.787   3.960  13.058  0.1002  0.6773 -1.0307
  596TIP3    H223204   3.648   4.010  13.026 -0.5375 -0.1426  0.3335
  597TIP3   OH223205   0.968   0.718  13.511  0.1612  0.3272  0.4497
  597TIP3    H123206   0.961   0.807  13.477 -0.5016  0.4879  0.9755
  597TIP3    H223207   0.909   0.717  13.586 -3.2644 -1.7787 -2.0255
  598TIP3   OH223208   6.659   3.185  14.610  0.0118  0.4797 -0.1626
  598TIP3    H123209   6.580   3.198  14.557  0.0215  0.2008 -0.2473
  598TIP3    H223210   6.730   3.181  14.547 -0.0161 -0.1912 -0.1555
  599TIP3   OH223211   3.667   3.710  16.195 -0.4848  0.3517  0.1313
  599TIP3    H123212   3.677   3.651  16.121 -2.6502  0.7770 -0.5578
  599TIP3    H223213   3.612   3.662  16.257  1.0269  0.1272  1.3682
  600TIP3   OH223214   6.439   6.774  13.192  0.8547  0.3145  0.3955
  600TIP3    H123215   6.439   6.718  13.115 -3.0955 -1.5182  1.4670
  600TIP3    H223216   6.395   6.854  13.163  1.6089  0.6645  0.1909
  601TIP3   OH223217   1.654   5.900  16.588 -0.5236 -0.4684 -0.5960
  601TIP3    H123218   1.643   5.814  16.547  2.2787 -1.4933  0.5991
  601TIP3    H223219   1.700   5.952  16.522  0.0786 -0.7116 -0.3672
  602TIP3   OH223220   2.083   4.079   3.413 -0.6440  0.2551 -0.3355
  602TIP3    H123221   2.059   3.987   3.420  3.0755 -0.7942  1.1174
  602TIP3    H223222   2.013   4.118   3.361 -2.0126 -3.5103 -1.6804
  603TIP3   OH223223   0.504   4.661  11.537 -0.3387  0.4743 -0.1016
  603TIP3    H123224   0.515   4.652  11.631 -1.8697  0.7007  0.1213
  603TIP3    H223225   0.438   4.729  11.526 -0.6577  0.0051 -1.3213
  604TIP3   OH223226   3.858   1.845  15.717  0.2853 -0.0902 -0.2970
  604TIP3    H123227   3.903   1.929  15.717 -0.6342  0.4231 -0.8828
  604TIP3    H223228   3.796   1.851  15.790 -0.3985  0.1038 -0.8780
  605TIP3   OH223229   0.889   6.136  16.583 -0.0212 -0.4743  0.1005
  605TIP3    H123230   0.937   6.089  16.651 -0.5176  0.0477  0.8325
  605TIP3    H223231   0.879   6.073  16.511 -0.3625 -1.3711  0.9151
  606TIP3   OH223232   5.363   0.957  11.873  0.2233 -0.5770  0.2131
  606TIP3    H123233   5.309   1.032  11.849  0.8425 -0.6386 -1.5328
  606TIP3    H223234   5.341   0.890  11.807  1.7928 -0.8921 -0.0305
  607TIP3   OH223235   4.085   4.225  14.246  0.5569  0.2127  0.4849
  607TIP3    H123236   4.077   4.194  14.156  1.3923 -1.5516  0.9825
  607TIP3    H223237   4.153   4.293  14.242  1.8254 -1.0330  0.0122
  608TIP3   OH223238   0.275   1.639  11.981  0.3545  0.3316 -0.4450
  608TIP3    H123239   0.319   1.587  11.914 -0.1109 -0.0896 -0.4300
  608TIP3    H223240   0.281   1.586  12.060 -2.0196 -0.7700 -0.8963
  609TIP3   OH223241   3.186   4.290   3.368  0.0811 -0.2543 -0.1355
  609TIP3    H123242   3.244   4.358   3.402  2.6041 -0.7784 -2.9305
  609TIP3    H223243   3.186   4.222   3.435  0.4619  0.9206  1.1078
  610TIP3   OH223244   5.379   6.418   5.341 -0.7936  0.4297  0.0860
  610TIP3    H123245   5.299   6.447   5.383 -2.2881 -1.6848 -1.1150
  610TIP3    H223246   5.365   6.436   5.248 -0.1073 -0.4618 -0.2061
  611TIP3   OH223247   5.594   0.457  17.004 -0.1741 -0.4046  0.0777
  611TIP3    H123248   5.630   0.498  17.082 -0.4134  0.1453 -0.0974
  611TIP3    H223249   5.621   0.513  16.932 -3.3679  1.4701  0.1356
  612TIP3   OH223250   2.514   3.102   0.615 -0.3521  0.1363 -0.1162
  612TIP3    H123251   2.437   3.089   0.560 -1.6297  3.0522  0.8165
  612TIP3    H223252   2.479   3.122   0.702  1.5354 -0.3183  0.8103
  613TIP3   OH223253   3.143   5.243   0.506 -0.2732  0.2821  0.4525
  613TIP3    H123254   3.175   5.285   0.586  0.6692 -1.2746  0.9333
  613TIP3    H223255   3.214   5.185   0.479 -1.2179 -0.4178 -0.6270
  614TIP3   OH223256   3.556   2.669   0.334 -0.9133  0.1956 -0.2421
  614TIP3    H123257   3.602   2.742   0.377 -1.9960  1.9917 -1.9270
  614TIP3    H223258   3.464   2.686   0.352 -1.1837 -0.7311 -0.7215
  615TIP3   OH223259   4.112   1.077   3.540  0.3809 -0.2501 -0.0261
  615TIP3    H123260   4.077   1.119   3.618  1.9461  1.1937 -0.0473
  615TIP3    H223261   4.097   0.983   3.555 -0.7066  0.0970  1.2882
  616TIP3   OH223262   1.593   4.270   4.946  0.1074  0.1190 -0.1121
  616TIP3    H123263   1.628   4.283   5.034 -0.6183  0.7953  0.0851
  616TIP3    H223264   1.528   4.201   4.956 -1.1705  1.3318  0.2212
  617TIP3   OH223265   0.240   5.931  16.280 -0.6348 -0.2803 -0.6270
  617TIP3    H123266   0.277   5.991  16.345  0.2317 -1.3021 -0.1593
  617TIP3    H223267   0.146   5.931  16.299 -0.6748  0.9862 -0.7039
  618TIP3   OH223268   3.500   4.787  12.504  0.1383  0.1426 -0.5475
  618TIP3    H123269   3.469   4.768  12.593 -1.2010 -3.7052 -1.6414
  618TIP3    H223270   3.563   4.858  12.515 -1.0634  0.8351  3.2506
  619TIP3   OH223271   6.485   5.370  14.205  0.3239 -0.0691  0.1502
  619TIP3    H123272   6.407   5.344  14.253  1.0063 -1.0926  0.7641
  619TIP3    H223273   6.475   5.331  14.119  0.2111 -0.2976  0.2667
  620TIP3   OH223274   2.399   4.907   5.593  0.0104  0.9616  0.2161
  620TIP3    H123275   2.391   4.922   5.499  1.7833  1.8173  0.1493
  620TIP3    H223276   2.395   4.995   5.631  0.5597  0.7417  0.8014
  621TIP3   OH223277   0.097   6.491  14.017 -0.0357  0.0939  0.4775
  621TIP3    H123278   0.130   6.508  13.929  0.8890 -1.0260  0.5830
  621TIP3    H223279   0.050   6.571  14.041 -2.5955 -0.4868 -2.0261
  622TIP3   OH223280   0.809   2.574  15.832  0.0986 -0.3873 -0.6548
  622TIP3    H123281   0.904   2.561  15.829  0.0688 -0.4907 -2.4797
  622TIP3    H223282   0.797   2.662  15.797 -0.4067  0.3510  1.2507
  623TIP3   OH223283   6.005   3.364  14.390  0.4582  0.4100  0.8034
  623TIP3    H123284   6.083   3.388  14.340 -1.3789  2.2090 -1.4878
  623TIP3    H223285   5.984   3.442  14.441 -0.2679  0.2330  0.7870
  624TIP3   OH223286   1.847   0.927   5.273  0.5532  0.0263 -0.1333
  624TIP3    H123287   1.862   0.985   5.347  0.0142 -0.0554  0.0426
  624TIP3    H223288   1.778   0.868   5.302  0.7364 -0.3765 -0.4972
  625TIP3   OH223289   6.127   3.325  10.729 -0.4333 -0.0336  0.5151
  625TIP3    H123290   6.049   3.288  10.689 -1.7434  2.7999  0.1700
  625TIP3    H223291   6.199   3.295  10.673 -1.6384 -0.2422 -1.0075
  626TIP3   OH223292   4.977   1.258  13.522 -0.3480 -0.3886  0.6957
  626TIP3    H123293   4.937   1.315  13.456  1.2328  0.1732  0.1714
  626TIP3    H223294   4.975   1.309  13.603  1.3509  0.6242  0.1591
  627TIP3   OH223295   3.934   3.323  13.164  0.4337  0.4249  0.2966
  627TIP3    H123296   3.899   3.290  13.246 -1.0583  1.6459  0.2015
  627TIP3    H223297   4.026   3.342  13.183  0.2504  0.1768  1.5177
  628TIP3   OH223298   1.249   2.347  12.396 -0.2899  0.3967 -0.2771
  628TIP3    H123299   1.281   2.258  12.380 -0.6395  0.2386 -0.1054
  628TIP3    H223300   1.309   2.404  12.348  2.7471  0.4433  3.1557
  629TIP3   OH223301   5.613   2.632  15.923  0.4318 -0.3226 -0.0780
  629TIP3    H123302   5.638   2.543  15.948  0.3787  0.2472  2.1756
  629TIP3    H223303   5.525   2.644  15.959  1.2416  1.3110  1.5229
  630TIP3   OH223304   3.868   2.056   3.554  0.2746 -0.4919  0.4794
  630TIP3    H123305   3.871   2.151   3.568  0.7882 -0.4560  0.1881
  630TIP3    H223306   3.960   2.029   3.557  0.0220 -1.2886  2.4692
  631TIP3   OH223307   4.809   0.452  14.922 -0.4988 -0.5010 -0.0973
  631TIP3    H123308   4.792   0.500  14.841 -1.7504 -1.4455 -0.4321
  631TIP3    H223309   4.722   0.442  14.962 -0.1772 -1.8765  0.3019
  632TIP3   OH223310   1.487   2.855   5.126 -0.0152 -0.4493  0.0303
  632TIP3    H123311   1.557   2.794   5.100  0.7702  0.5435 -0.2510
  632TIP3    H223312   1.470   2.834   5.217  0.3271 -1.0136 -0.0279
  633TIP3   OH223313   2.325   5.289   0.407 -0.3314  0.0316 -0.7640
  633TIP3    H123314   2.333   5.205   0.452  2.0439 -0.0941 -1.3264
  633TIP3    H223315   2.303   5.266   0.317  1.8693 -0.1249 -1.3017
  634TIP3   OH223316   2.484   6.702   3.816  0.4078  0.0035 -0.1485
  634TIP3    H123317   2.519   6.626   3.768  0.5558  0.4827 -0.8102
  634TIP3    H223318   2.505   6.777   3.761 -0.5146  0.4407  0.0704
  635TIP3   OH223319   2.320   2.654  12.311 -0.2693 -0.2024  0.0284
  635TIP3    H123320   2.358   2.673  12.225  0.2753 -1.7457 -0.0930
  635TIP3    H223321   2.273   2.734  12.334  2.5579  1.6165 -0.0603
  636TIP3   OH223322   4.196   3.856  14.644  0.2263 -0.4787  0.2386
  636TIP3    H123323   4.193   3.839  14.549  0.3727  2.2943 -0.3281
  636TIP3    H223324   4.125   3.803  14.679 -1.4932  0.3152 -1.7914
  637TIP3   OH223325   5.989   4.010  11.370  0.7369  0.3010 -0.3753
  637TIP3    H123326   5.978   3.962  11.287 -1.3807  0.5245 -0.2770
  637TIP3    H223327   5.993   4.102  11.344  0.8464  0.3236 -0.2803
  638TIP3   OH223328   3.978   2.649   5.464 -0.0365 -0.4083 -0.3776
  638TIP3    H123329   3.934   2.684   5.541  0.0156 -0.5009 -0.3052
  638TIP3    H223330   4.015   2.726   5.420 -1.0983 -0.2178 -0.9697
  639TIP3   OH223331   1.665   4.681   5.682  0.5877 -0.4157  0.6746
  639TIP3    H123332   1.666   4.593   5.721 -1.5785 -0.6549  0.3143
  639TIP3    H223333   1.604   4.730   5.736  0.5284  0.3964 -0.1127
  640TIP3   OH223334   2.144   2.592   3.373  0.0434 -0.0615 -0.0580
  640TIP3    H123335   2.217   2.654   3.374 -0.4437  0.5698  2.2077
  640TIP3    H223336   2.184   2.507   3.357  1.0290  0.4956 -0.6740
  641TIP3   OH223337   0.004   4.040   0.515  0.7590 -0.0360  0.3895
  641TIP3    H123338  -0.033   4.068   0.599  1.9148  1.9409  0.3124
  641TIP3    H223339   0.062   4.112   0.490  0.7677 -0.7787 -1.9134
  642TIP3   OH223340   2.802   6.284   4.494 -0.7666  0.1026 -0.0765
  642TIP3    H123341   2.770   6.294   4.405 -0.2216 -1.4415 -0.4843
  642TIP3    H223342   2.723   6.279   4.548 -1.1133  0.4412 -0.5499
  643TIP3   OH223343   4.742   4.496  12.090 -0.0179 -0.2599 -0.3236
  643TIP3    H123344   4.647   4.501  12.089 -0.0311 -0.4765 -1.5619
  643TIP3    H223345   4.772   4.582  12.060  0.2056  0.0631  0.7810
  644TIP3   OH223346   2.779   4.366   1.266  0.3170  0.0324  0.1358
  644TIP3    H123347   2.690   4.393   1.245  0.2297  0.0422  0.5061
  644TIP3    H223348   2.773   4.331   1.355  0.8382  0.8317  0.4979
  645TIP3   OH223349   0.016   5.740   0.622  0.5429 -0.5359 -0.3561
  645TIP3    H123350   0.040   5.671   0.561 -1.0204 -1.5545  0.1065
  645TIP3    H223351   0.098   5.783   0.645  1.4341 -1.6803 -1.3211
  646TIP3   OH223352   2.914   3.809  13.806 -0.4109 -0.0844  0.7077
  646TIP3    H123353   2.935   3.903  13.805 -0.5176 -0.0656  0.1558
  646TIP3    H223354   2.959   3.773  13.729  0.1845 -0.6129  1.2848
  647TIP3   OH223355   5.875   3.709  15.689  0.7354  0.0025  0.9136
  647TIP3    H123356   5.952   3.666  15.726  0.7988  0.3547  1.1960
  647TIP3    H223357   5.866   3.790  15.740  1.0252  0.6693 -0.0766
  648TIP3   OH223358   5.359   0.431  17.179  0.4473  0.1242 -0.0419
  648TIP3    H123359   5.311   0.348  17.170 -0.0647  0.3751  0.3582
  648TIP3    H223360   5.402   0.442  17.094 -1.5117  0.6986 -1.0150
  649TIP3   OH223361   0.202   0.376   4.299 -0.4386 -0.3454 -0.3010
  649TIP3    H123362   0.157   0.312   4.354 -0.3298  0.5138  0.8026
  649TIP3    H223363   0.134   0.438   4.273 -0.3371 -0.3222 -0.5128
  650TIP3   OH223364   6.302   5.025   4.002 -0.3781  0.0301 -0.1498
  650TIP3    H123365   6.339   5.064   3.923 -0.1417 -3.1989 -1.8002
  650TIP3    H223366   6.365   5.046   4.071  0.4201  1.2786 -1.2156
  651TIP3   OH223367   1.004   4.190  12.726  0.1869  0.1934  0.6856
  651TIP3    H123368   0.948   4.164  12.653  0.7119  0.0921  0.3127
  651TIP3    H223369   1.047   4.270  12.697  0.5906  0.0155  0.7784
  652TIP3   OH223370   5.586   4.494  14.790  0.4933  0.3659  0.2922
  652TIP3    H123371   5.502   4.531  14.765  0.1794  0.0697  0.8921
  652TIP3    H223372   5.633   4.481  14.708  0.1808  1.0665 -0.0061
  653TIP3   OH223373   1.845   3.554  10.673  0.4170 -0.7703  0.6611
  653TIP3    H123374   1.872   3.640  10.706  2.6808 -0.9771 -0.4898
  653TIP3    H223375   1.752   3.549  10.695  0.6277  1.2054  2.3650
  654TIP3   OH223376   5.113   0.705  17.010 -0.2567  0.2644 -0.5299
  654TIP3    H123377   5.158   0.682  17.091 -2.4818  0.8385  0.9501
  654TIP3    H223378   5.025   0.731  17.037 -1.1960  0.1822 -3.1756
  655TIP3   OH223379   0.703   3.288   3.838  0.2363 -0.3834 -0.1052
  655TIP3    H123380   0.611   3.265   3.846 -0.4573  1.8817 -0.8856
  655TIP3    H223381   0.718   3.292   3.743  0.8427  0.2811  0.0096
  656TIP3   OH223382   6.175   0.025  16.486  0.2248 -0.0517 -0.2925
  656TIP3    H123383   6.155   0.053  16.397  0.0831  0.2246 -0.1728
  656TIP3    H223384   6.269   0.043  16.496  0.3999 -0.7251 -0.6183
  657TIP3   OH223385   6.310   4.561  15.814 -0.0634  0.2885 -0.0327
  657TIP3    H123386   6.281   4.511  15.738  1.5412 -0.0342 -0.4754
  657TIP3    H223387   6.296   4.652  15.789 -0.5969  0.1546 -0.2504
  658TIP3   OH223388   4.881   3.022   0.409 -0.3802  0.1996  0.5156
  658TIP3    H123389   4.796   2.999   0.371 -0.6160  0.2185  1.0266
  658TIP3    H223390   4.867   3.109   0.448  0.2098  0.7519 -0.4585
  659TIP3   OH223391   2.691   4.355   2.454 -0.0303  0.6883  0.1446
  659TIP3    H123392   2.688   4.333   2.547 -0.5848  0.5235  0.0962
  659TIP3    H223393   2.616   4.307   2.416  1.3093 -0.8181 -0.7340
  660TIP3   OH223394   0.790   1.801   2.978  0.0930 -0.1608 -0.0251
  660TIP3    H123395   0.837   1.724   2.944 -0.8180 -1.8431  2.2549
  660TIP3    H223396   0.858   1.867   2.988  0.7324 -0.2518 -3.0188
  661TIP3   OH223397   6.442   1.408   0.427 -0.4877  0.2080  0.0611
  661TIP3    H123398   6.375   1.418   0.359 -1.4762 -1.6600  0.6954
  661TIP3    H223399   6.519   1.379   0.380 -0.4511  1.2161 -0.5320
  662TIP3   OH223400   1.875   5.185   3.745 -0.0886 -0.2593 -0.0087
  662TIP3    H123401   1.901   5.275   3.763  1.4802 -0.4946 -0.8853
  662TIP3    H223402   1.895   5.137   3.825  1.6081 -0.2893 -0.4176
  663TIP3   OH223403   6.588   2.227  17.188 -0.5189  0.1512  0.2412
  663TIP3    H123404   6.599   2.138  17.221  0.7802 -0.0429 -0.6537
  663TIP3    H223405   6.513   2.221  17.128  1.7753 -1.2722 -2.7626
  664TIP3   OH223406   1.527   2.101   1.390  0.3531  0.5919  0.4067
  664TIP3    H123407   1.498   2.095   1.482 -0.2917  1.0960  0.2456
  664TIP3    H223408   1.570   2.186   1.385  0.2115  0.6508  0.1950
  665TIP3   OH223409   1.239   4.282   3.289 -0.5339 -0.0170  0.1793
  665TIP3    H123410   1.320   4.331   3.273  0.3735 -2.0623 -1.9873
  665TIP3    H223411   1.205   4.262   3.202 -1.3778 -2.3188  0.9632
  666TIP3   OH223412   0.978   0.622   2.608 -0.5713 -0.7049 -0.0210
  666TIP3    H123413   0.922   0.548   2.631 -0.2546 -0.6334  0.9950
  666TIP3    H223414   1.047   0.584   2.553 -0.8052 -1.0369 -0.0860
  667TIP3   OH223415   4.566   6.648  11.868  0.0949 -0.3243  0.1381
  667TIP3    H123416   4.499   6.628  11.803 -0.7204  0.2393  0.7971
  667TIP3    H223417   4.547   6.738  11.895  2.5500  0.7724 -1.4085
  668TIP3   OH223418   0.590   4.867   0.615  0.0011  0.1311  0.3136
  668TIP3    H123419   0.501   4.870   0.650  0.3657 -0.2540  1.3087
  668TIP3    H223420   0.579   4.873   0.520 -0.9186  2.8938  0.5152
  669TIP3   OH223421   2.115   0.592  13.383 -0.8650  0.5986  0.3816
  669TIP3    H123422   2.184   0.592  13.316 -0.5569  1.9693  0.6645
  669TIP3    H223423   2.040   0.632  13.339 -1.5508 -1.0041  0.0356
  670TIP3   OH223424   0.245   5.549  11.558 -0.4199  0.1646  0.5155
  670TIP3    H123425   0.271   5.611  11.626 -0.5821 -0.2669  0.9722
  670TIP3    H223426   0.152   5.568  11.542 -0.4851 -0.0043  0.6986
  671TIP3   OH223427   5.628   6.208  15.202 -0.8140 -0.4625 -0.2816
  671TIP3    H123428   5.670   6.141  15.255  0.3844  1.6891  1.6463
  671TIP3    H223429   5.562   6.246  15.259  0.8813  2.2885  0.0467
  672TIP3   OH223430   5.042   6.246   3.167  0.3904  0.8144 -0.3012
  672TIP3    H123431   5.043   6.341   3.181  1.1843  1.1470 -2.3105
  672TIP3    H223432   5.120   6.215   3.213 -0.7648  0.8343  1.8176
  673TIP3   OH223433   0.512   0.459   2.377 -0.3701  0.3508 -0.3524
  673TIP3    H123434   0.427   0.437   2.415 -0.0199 -1.9673 -0.8159
  673TIP3    H223435   0.573   0.457   2.450 -0.1617 -1.3883 -0.5484
  674TIP3   OH223436   4.674   5.310   3.106  0.0470 -0.3369  0.5616
  674TIP3    H123437   4.622   5.326   3.027  0.8315 -0.4977  0.0012
  674TIP3    H223438   4.643   5.225   3.138  0.7110 -0.9650 -0.3946
  675TIP3   OH223439   3.730   2.618  11.456 -0.5558 -0.6602 -0.3104
  675TIP3    H123440   3.665   2.681  11.486  0.1510 -0.3504  0.6518
  675TIP3    H223441   3.715   2.609  11.362 -2.7253 -1.4731  0.0536
  676TIP3   OH223442   1.069   1.183  12.647  0.2833 -0.0528  0.0823
  676TIP3    H123443   0.982   1.176  12.608  0.9115 -0.7315 -1.2771
  676TIP3    H223444   1.118   1.238  12.585  0.6660  0.8309  1.1365
  677TIP3   OH223445   1.459   3.437   2.878  0.3766  0.1181 -0.0694
  677TIP3    H123446   1.502   3.520   2.857  1.0074 -0.1756  0.0346
  677TIP3    H223447   1.522   3.391   2.932 -0.4045  0.0047  0.7620
  678TIP3   OH223448   5.472   6.690  13.866  0.3501  1.0010 -0.6476
  678TIP3    H123449   5.430   6.622  13.919  0.3459 -0.6240 -2.5969
  678TIP3    H223450   5.446   6.772  13.906 -0.6369 -0.1062  1.1039
  679TIP3   OH223451   2.173   3.686   5.116 -0.1099 -0.0972  0.3036
  679TIP3    H123452   2.240   3.733   5.165  0.2989  0.2536 -0.5533
  679TIP3    H223453   2.093   3.698   5.167  0.1351  0.9393  0.4775
  680TIP3   OH223454   1.085   3.205   5.589  0.3807 -0.0898 -0.2370
  680TIP3    H123455   1.063   3.201   5.496 -0.6161  2.2554 -0.1808
  680TIP3    H223456   1.158   3.144   5.599  0.6488 -0.2617 -2.5883
  681TIP3   OH223457   2.150   4.761  12.539 -0.4884  0.4581 -0.0450
  681TIP3    H123458   2.106   4.680  12.564 -1.3460  1.0244  0.2990
  681TIP3    H223459   2.241   4.734  12.524 -1.4983 -1.3888 -4.0027
  682TIP3   OH223460   2.564   2.081   5.310  0.2914  0.0681 -0.1517
  682TIP3    H123461   2.477   2.058   5.343 -0.7157  0.9701 -1.9936
  682TIP3    H223462   2.565   2.177   5.310  1.5620  0.0671  0.4781
  683TIP3   OH223463   6.033   0.694   5.177 -0.1009  0.3397 -0.4384
  683TIP3    H123464   6.074   0.706   5.092  2.0591  0.9207  0.6257
  683TIP3    H223465   5.996   0.779   5.198  1.6550  0.9643  0.2991
  684TIP3   OH223466   4.901   2.086  12.189  0.0108 -0.0001  0.1960
  684TIP3    H123467   4.818   2.132  12.202  0.1067  0.4898 -0.8450
  684TIP3    H223468   4.876   2.009  12.137  0.3299  0.6828 -1.0157
  685TIP3   OH223469   4.755   0.967   5.433  0.5836 -0.1383 -0.3939
  685TIP3    H123470   4.801   0.977   5.350  0.2811 -2.4611 -0.9270
  685TIP3    H223471   4.664   0.949   5.408  0.4502 -0.6968  0.4264
  686TIP3   OH223472   1.544   1.100   5.275  0.5804 -0.1405  0.5448
  686TIP3    H123473   1.449   1.111   5.280  0.4760 -0.8705  0.3969
  686TIP3    H223474   1.564   1.039   5.346  0.7718 -0.8881 -0.1322
  687TIP3   OH223475   6.683   1.349   3.987 -0.2589  0.3028 -0.0423
  687TIP3    H123476   6.736   1.347   4.066  1.3495  0.1602 -1.0781
  687TIP3    H223477   6.701   1.435   3.948 -0.1536 -0.0557 -0.8106
  688TIP3   OH223478   3.620   3.606  14.497  0.5937 -0.7099 -0.1780
  688TIP3    H123479   3.683   3.675  14.479  0.5438 -0.7392 -0.4763
  688TIP3    H223480   3.600   3.614  14.590  1.8157 -1.3391  0.1631
  689TIP3   OH223481   6.535   0.828   1.281  0.2146 -0.2712  0.2513
  689TIP3    H123482   6.478   0.904   1.268 -0.9230 -1.3419 -1.2779
  689TIP3    H223483   6.624   0.863   1.273 -0.3028  0.8115 -0.9967
  690TIP3   OH223484   3.251   6.084  12.045 -0.8977 -0.4891 -0.2249
  690TIP3    H123485   3.243   6.033  12.125  0.5598  1.3641  1.1998
  690TIP3    H223486   3.340   6.119  12.048 -1.0416  0.2224 -2.3221
  691TIP3   OH223487   2.568   0.580   4.177  0.5437  0.3160 -0.0853
  691TIP3    H123488   2.558   0.542   4.090 -3.1079 -0.3856  0.4804
  691TIP3    H223489   2.536   0.513   4.237 -0.8525  2.1769  1.4140
  692TIP3   OH223490   5.202   1.405   2.853  0.0382  0.3109 -0.2671
  692TIP3    H123491   5.147   1.441   2.922 -1.0041  2.5416 -2.1087
  692TIP3    H223492   5.200   1.311   2.866 -1.6806  0.5536  1.5664
  693TIP3   OH223493   0.651   0.418   2.882  0.4136 -0.0743 -0.1710
  693TIP3    H123494   0.558   0.425   2.905  0.4491  2.9539 -0.4948
  693TIP3    H223495   0.697   0.425   2.965  0.3476  2.3099 -0.2553
  694TIP3   OH223496   1.885   5.584   5.486 -0.6655 -0.1147  0.0927
  694TIP3    H123497   1.835   5.651   5.533 -0.8037 -0.3475  0.2820
  694TIP3    H223498   1.928   5.533   5.555  1.2505  1.1420 -0.0997
  695TIP3   OH223499   4.694   2.417  15.156  0.4342 -0.0911 -0.1421
  695TIP3    H123500   4.601   2.406  15.175  0.5294 -0.1394  0.3144
  695TIP3    H223501   4.698   2.494  15.099  0.0748 -0.3756 -0.5586
  696TIP3   OH223502   0.993   5.598   5.005 -0.0124  0.3968  0.1489
  696TIP3    H123503   0.963   5.565   4.921 -0.3756 -0.4455  0.6012
  696TIP3    H223504   1.076   5.641   4.985  0.8545 -1.4136 -0.3702
  697TIP3   OH223505   6.608   3.314   3.826 -0.2451 -0.1996 -0.3415
  697TIP3    H123506   6.577   3.404   3.819  0.6077  0.0780 -0.6606
  697TIP3    H223507   6.637   3.292   3.737 -0.9971 -0.9970 -0.3999
  698TIP3   OH223508   4.875   0.238  12.642 -0.4819  0.2108  0.1761
  698TIP3    H123509   4.792   0.276  12.615  0.4288  1.7227 -0.6174
  698TIP3    H223510   4.892   0.276  12.729 -0.9821 -0.7265  0.7014
  699TIP3   OH223511   1.523   0.583   5.002 -0.1296  0.0638  0.0993
  699TIP3    H123512   1.605   0.562   4.957  0.7344  1.1705  1.0989
  699TIP3    H223513   1.550   0.630   5.081 -1.7364  0.4955  0.4285
  700TIP3   OH223514   1.953   1.982  15.066  0.3250  0.3083 -0.2274
  700TIP3    H123515   1.946   1.904  15.122 -0.3904 -0.0836 -0.8440
  700TIP3    H223516   2.044   1.982  15.037  0.1942 -0.6427 -0.6832
  701TIP3   OH223517   4.511   5.295   2.886  0.0567  0.3555 -0.4924
  701TIP3    H123518   4.439   5.321   2.828  1.4264 -0.2658 -2.5371
  701TIP3    H223519   4.499   5.201   2.899  0.6800  0.1975 -1.0794
  702TIP3   OH223520   6.101   1.385  16.721  0.1326 -0.4485 -0.2819
  702TIP3    H123521   6.030   1.434  16.679  1.4535  0.6390 -1.3470
  702TIP3    H223522   6.073   1.293  16.715 -2.2904  0.0652  1.5545
  703TIP3   OH223523   6.114   4.677  16.656  0.4251 -0.0379  0.0674
  703TIP3    H123524   6.088   4.585  16.660  0.4809 -0.0284  3.6272
  703TIP3    H223525   6.057   4.720  16.719  2.3158  1.8378  0.5889
  704TIP3   OH223526   1.132   2.105   2.239 -0.1350 -0.1966  0.0787
  704TIP3    H123527   1.054   2.158   2.257 -1.8734 -3.3678  3.0972
  704TIP3    H223528   1.113   2.061   2.156  0.2212  1.8472 -1.1401
  705TIP3   OH223529   5.048   5.132   5.558  0.5789  0.0894  0.6188
  705TIP3    H123530   4.957   5.150   5.583  0.5702 -0.5619  1.0994
  705TIP3    H223531   5.099   5.200   5.602  0.2844  0.7422 -0.0348
  706TIP3   OH223532   3.804   0.027   3.375 -0.8843  0.0430 -0.4034
  706TIP3    H123533   3.778  -0.054   3.332  1.3500 -1.0952  0.2641
  706TIP3    H223534   3.735   0.044   3.438 -1.3388 -1.3954 -0.4901
  707TIP3   OH223535   0.883   6.352  13.218  0.2797  0.2782 -0.1722
  707TIP3    H123536   0.906   6.291  13.288  3.4616  0.9933 -0.4443
  707TIP3    H223537   0.860   6.433  13.263  0.7017  0.2585  0.0789
  708TIP3   OH223538   2.745   0.649  11.492  0.1384  0.5254 -0.2760
  708TIP3    H123539   2.708   0.606  11.569  1.3735  0.0780  0.0915
  708TIP3    H223540   2.839   0.641  11.503  0.3592 -0.9209 -2.5811
  709TIP3   OH223541   5.629   2.624   6.233  0.0280  0.3462  0.1720
  709TIP3    H123542   5.673   2.589   6.311 -2.0662  0.0617  1.2980
  709TIP3    H223543   5.688   2.601   6.161  1.1871 -0.9714  1.4543
  710TIP3   OH223544   6.190   6.235  11.379  0.0132 -0.0742  0.3552
  710TIP3    H123545   6.171   6.267  11.467 -0.8906 -1.1526  0.5780
  710TIP3    H223546   6.136   6.290  11.321 -0.9097 -0.6355  0.6616
  711TIP3   OH223547   1.327   0.573   0.147  0.3706 -0.3276  0.2996
  711TIP3    H123548   1.249   0.585   0.093  0.1783 -1.1106  0.3909
  711TIP3    H223549   1.370   0.658   0.145 -1.2001  0.5509  1.3907
  712TIP3   OH223550   1.822   4.830   5.266 -0.0208  0.4915 -0.2279
  712TIP3    H123551   1.854   4.825   5.356 -0.2910 -0.6689 -0.1762
  712TIP3    H223552   1.737   4.875   5.273  1.5432  3.7689 -0.3923
  713TIP3   OH223553   2.450   2.767   0.348 -0.0770 -0.0294  0.0398
  713TIP3    H123554   2.509   2.793   0.278  0.6740 -3.5466 -0.8505
  713TIP3    H223555   2.387   2.838   0.355  0.1210  0.7312 -3.8351
  714TIP3   OH223556   3.172   5.406   1.721 -0.1198 -0.3295 -0.3458
  714TIP3    H123557   3.109   5.350   1.676  0.7831 -1.0069 -0.7982
  714TIP3    H223558   3.223   5.447   1.651 -1.6330  2.1866 -0.1118
  715TIP3   OH223559   5.369   3.276   0.073 -0.2634 -0.7890  0.0248
  715TIP3    H123560   5.394   3.263   0.165 -1.9422  1.4536  0.8706
  715TIP3    H223561   5.305   3.207   0.056 -1.1010 -0.2706  1.0345
  716TIP3   OH223562   0.268   1.303   2.632 -0.3474 -0.5821 -0.4481
  716TIP3    H123563   0.175   1.304   2.656 -0.0479  0.7243  0.8156
  716TIP3    H223564   0.305   1.232   2.684 -0.3013  0.1655  0.5740
  717TIP3   OH223565   2.623   4.350  14.417 -0.2080  0.3287  0.2641
  717TIP3    H123566   2.690   4.395  14.469 -0.9261  0.6883  0.8844
  717TIP3    H223567   2.670   4.276  14.379  0.8702  1.2898 -0.3688
  718TIP3   OH223568   0.756   4.937   2.230 -0.1431 -0.0668  0.4448
  718TIP3    H123569   0.801   4.867   2.277  0.3160  0.7881  1.3120
  718TIP3    H223570   0.669   4.941   2.271 -0.4578 -0.6418 -0.1430
  719TIP3   OH223571   2.502   4.975   2.999  0.2704  0.5138  0.1835
  719TIP3    H123572   2.589   4.993   3.035  0.5779 -1.2127  0.4011
  719TIP3    H223573   2.452   4.942   3.073  0.7772 -2.6317 -0.7388
  720TIP3   OH223574   1.277   2.101   2.995  0.1073 -0.1009 -0.0015
  720TIP3    H123575   1.285   2.191   2.963  0.0140 -0.2551 -0.4591
  720TIP3    H223576   1.252   2.050   2.918 -0.4724 -0.4187  0.3944
  721TIP3   OH223577   3.252   0.859   4.655  0.1545  0.1018 -0.2628
  721TIP3    H123578   3.266   0.934   4.597  0.7797 -1.1258 -1.7696
  721TIP3    H223579   3.157   0.857   4.668  0.0770  0.8328 -0.6205
  722TIP3   OH223580   3.503   1.339   4.720 -0.1796  0.3565  0.1858
  722TIP3    H123581   3.533   1.367   4.634 -1.7402  0.2936 -0.4146
  722TIP3    H223582   3.541   1.252   4.733 -3.0471 -1.4512 -2.2555
  723TIP3   OH223583   3.237   5.962   1.154 -0.7486 -0.3798  0.6270
  723TIP3    H123584   3.170   5.980   1.220 -0.2188  1.4643  0.6967
  723TIP3    H223585   3.211   6.013   1.078 -1.0384 -2.0442 -0.4604
  724TIP3   OH223586   2.918   2.477  16.579 -0.1344 -0.1180 -0.1981
  724TIP3    H123587   2.912   2.385  16.553  0.7868 -0.2243 -0.0548
  724TIP3    H223588   2.964   2.520  16.507 -0.5158  0.2279 -0.2420
  725TIP3   OH223589   3.374   3.612  15.230  0.7725  0.0733  0.4057
  725TIP3    H123590   3.354   3.679  15.165 -0.0887 -0.4055  0.1563
  725TIP3    H223591   3.456   3.572  15.199 -0.3269 -1.0893 -1.1847
  726TIP3   OH223592   5.335   2.848   3.034  0.0092  0.0449  0.2413
  726TIP3    H123593   5.330   2.944   3.037 -0.6527  0.0730 -1.0780
  726TIP3    H223594   5.274   2.823   2.965  0.0941 -1.3477  0.6444
  727TIP3   OH223595   2.122   5.818  16.002  0.1941 -0.4264  0.0473
  727TIP3    H123596   2.142   5.912  16.009  0.2214 -0.3742 -0.6607
  727TIP3    H223597   2.175   5.788  15.928 -2.2788 -0.2800 -1.9082
  728TIP3   OH223598   3.413   5.981  10.904 -0.6195 -0.0537  0.4521
  728TIP3    H123599   3.336   5.997  10.958 -2.1014 -1.3510 -1.1616
  728TIP3    H223600   3.410   6.048  10.836 -1.4673 -1.2506 -0.7401
  729TIP3   OH223601   2.602   6.267   2.166 -0.5955  0.2566  0.3638
  729TIP3    H123602   2.519   6.232   2.134  0.3482 -0.0122 -1.9308
  729TIP3    H223603   2.667   6.202   2.140  0.5004  1.0666  0.9966
  730TIP3   OH223604   5.322   2.788   4.711 -0.0340 -0.0718  0.1924
  730TIP3    H123605   5.342   2.791   4.617 -1.5099  0.5398 -0.1343
  730TIP3    H223606   5.300   2.697   4.728 -0.7938  0.0032 -0.3124
  731TIP3   OH223607   2.046   5.182  12.124 -0.4424 -0.1767 -0.3448
  731TIP3    H123608   2.034   5.260  12.070 -0.7794 -0.2193 -0.3390
  731TIP3    H223609   2.026   5.211  12.213 -2.6710 -0.7303 -0.6021
  732TIP3   OH223610   3.118   3.367   3.458  0.5703  0.2743 -0.5865
  732TIP3    H123611   3.026   3.391   3.469  0.7633  0.5093  0.6322
  732TIP3    H223612   3.150   3.428   3.391  0.2427  1.3430  0.1831
  733TIP3   OH223613   0.333   3.106   5.554 -0.4103 -0.1245  0.0060
  733TIP3    H123614   0.322   3.129   5.462 -0.0140 -0.1238 -0.0461
  733TIP3    H223615   0.428   3.094   5.564 -0.5596 -1.4590  0.0903
  734TIP3   OH223616   0.560   6.492   5.744 -0.1055  0.1121 -0.0050
  734TIP3    H123617   0.580   6.532   5.828  2.8325 -0.2627 -0.4429
  734TIP3    H223618   0.563   6.564   5.681 -1.6364  0.2736  0.0559
  735TIP3   OH223619   4.593   0.559  13.662 -0.0480 -0.0633  0.1795
  735TIP3    H123620   4.607   0.589  13.752 -0.3309 -0.6396  0.4187
  735TIP3    H223621   4.681   0.552  13.625  0.2538 -1.9727  1.1151
  736TIP3   OH223622   3.873   2.915   3.457  0.0979  0.3193  0.2204
  736TIP3    H123623   3.832   2.849   3.513 -2.0602  2.8330  1.8546
  736TIP3    H223624   3.932   2.962   3.516 -0.2280  1.3599 -0.2684
  737TIP3   OH223625   2.850   5.659   3.616  0.0282  0.8896 -0.2639
  737TIP3    H123626   2.838   5.687   3.707  1.4150 -0.4350  0.3788
  737TIP3    H223627   2.789   5.713   3.566 -0.4679  1.9544  1.3953
  738TIP3   OH223628   3.928   1.377  12.654 -0.3691 -0.1854 -0.0528
  738TIP3    H123629   3.939   1.393  12.748  0.7685 -0.4872 -0.1261
  738TIP3    H223630   3.835   1.392  12.639 -0.5438  0.0170  1.0953
  739TIP3   OH223631   4.720   4.768   2.895 -0.1145  0.6351 -0.3699
  739TIP3    H123632   4.691   4.729   2.812  0.8061 -0.9408  0.0226
  739TIP3    H223633   4.650   4.830   2.918 -1.6925 -0.8605 -0.9674
  740TIP3   OH223634   2.067   0.670  11.761  0.0596 -0.6282  0.3787
  740TIP3    H123635   2.116   0.638  11.685  0.1308 -1.4552  0.7660
  740TIP3    H223636   2.003   0.731  11.724  3.3472  3.0169  0.0906
  741TIP3   OH223637   5.497   1.130   1.768  0.4917  0.0971 -0.5753
  741TIP3    H123638   5.583   1.170   1.752  0.3990  0.0678 -1.1993
  741TIP3    H223639   5.435   1.203   1.757  0.4451  0.1358 -0.0445
  742TIP3   OH223640   2.726   5.360  11.884  0.4653 -0.4361 -0.4383
  742TIP3    H123641   2.744   5.266  11.883  0.6680 -0.3927 -0.7499
  742TIP3    H223642   2.668   5.374  11.810 -0.6125 -0.5232  0.3639
  743TIP3   OH223643   6.650   4.083   1.588 -0.7486 -0.5964  0.2970
  743TIP3    H123644   6.723   4.022   1.600 -0.3784  0.0097  1.2955
  743TIP3    H223645   6.618   4.066   1.500 -0.4003 -1.9601  0.4089
  744TIP3   OH223646   2.249   3.816   5.740  0.2008  0.4223  0.4371
  744TIP3    H123647   2.182   3.839   5.677 -0.9498 -0.2547  1.3702
  744TIP3    H223648   2.331   3.844   5.699 -0.4362 -0.5033 -1.5775
  745TIP3   OH223649   1.537   2.383  16.773 -0.6270  0.0825  0.1471
  745TIP3    H123650   1.451   2.411  16.742 -0.6340  1.2486  1.1438
  745TIP3    H223651   1.555   2.301  16.726 -1.6552  0.5561 -1.1065
  746TIP3   OH223652   3.873   3.122   2.629  0.4334  0.2315 -0.5259
  746TIP3    H123653   3.811   3.151   2.697 -0.3216  0.3260 -1.2459
  746TIP3    H223654   3.828   3.049   2.586  1.9682 -1.5581  0.7279
  747TIP3   OH223655   1.880   4.511  13.466  0.7707  0.2651  0.3291
  747TIP3    H123656   1.841   4.596  13.485  0.7007  0.4973 -0.7666
  747TIP3    H223657   1.808   4.449  13.471  1.0182  0.0865  2.1929
  748TIP3   OH223658   2.265   5.728   3.649 -0.0336  0.2608 -0.0426
  748TIP3    H123659   2.332   5.697   3.711 -0.8063  0.4668  0.9112
  748TIP3    H223660   2.190   5.751   3.704 -0.7565  0.4037 -1.0686
  749TIP3   OH223661   3.308   5.544   2.603 -0.4978  0.0025 -0.0311
  749TIP3    H123662   3.387   5.576   2.559 -0.4033  0.6490  0.5775
  749TIP3    H223663   3.335   5.532   2.695 -0.7299 -1.1632 -0.1006
  750TIP3   OH223664   5.322   1.342   0.894 -0.3332 -0.4924  0.1946
  750TIP3    H123665   5.267   1.286   0.839 -0.8845  1.4241 -1.3377
  750TIP3    H223666   5.283   1.336   0.981  0.3787 -3.3886  0.4143
  751TIP3   OH223667   2.492   3.271   5.485 -0.7529  0.0731 -0.0543
  751TIP3    H123668   2.562   3.335   5.504  0.8406 -1.5727 -0.1090
  751TIP3    H223669   2.459   3.246   5.571 -0.1250 -0.3378  0.0766
  752TIP3   OH223670   2.669   4.244   3.690  0.0487  0.7696 -0.4519
  752TIP3    H123671   2.638   4.192   3.615 -0.7341 -2.3121  1.8006
  752TIP3    H223672   2.590   4.257   3.743  1.2589 -1.0647  1.9580
  753TIP3   OH223673   1.621   4.378   2.025 -0.7355  0.4265  0.1193
  753TIP3    H123674   1.692   4.344   2.080 -0.2606 -1.6974 -1.6640
  753TIP3    H223675   1.542   4.367   2.078 -0.1879 -0.7251  0.7403
  754TIP3   OH223676   1.237   6.753  15.461 -0.2527  0.4436 -0.3719
  754TIP3    H123677   1.228   6.716  15.549  0.3464 -1.9270 -1.2381
  754TIP3    H223678   1.322   6.723  15.430 -1.2831 -0.4990 -2.5078
  755TIP3   OH223679   1.289   1.791  13.778  0.2414 -0.5381 -0.3122
  755TIP3    H123680   1.369   1.739  13.766  1.1390  1.0385 -1.5882
  755TIP3    H223681   1.306   1.872  13.729 -1.6586  0.3593  0.4306
  756TIP3   OH223682   2.759   0.383   0.396  0.2921  0.3623 -0.4130
  756TIP3    H123683   2.833   0.424   0.351  0.9910 -1.1940 -0.7481
  756TIP3    H223684   2.682   0.422   0.355  0.8508  2.7332  0.5822
  757TIP3   OH223685   6.283   1.584   4.840 -0.5456 -0.6734  0.4309
  757TIP3    H123686   6.302   1.676   4.821  1.2182 -1.4463 -2.1376
  757TIP3    H223687   6.193   1.571   4.811 -0.4335  0.0027 -0.2481
  758TIP3   OH223688   4.908   3.788  14.088  0.3083  0.2097 -0.3128
  758TIP3    H123689   4.880   3.771  13.998 -0.7535  1.0111 -0.1522
  758TIP3    H223690   4.884   3.879  14.104 -0.4715 -0.2165  1.1189
  759TIP3   OH223691   2.783   6.120  17.194  0.0808  0.3399  0.3152
  759TIP3    H123692   2.695   6.101  17.161 -0.1560  1.1700  0.4574
  759TIP3    H223693   2.841   6.102  17.120 -0.2240 -0.0308  0.1634
  760TIP3   OH223694   4.225   4.053   6.038 -0.0066  0.2394  0.6386
  760TIP3    H123695   4.272   3.977   6.074 -0.1828 -0.5072 -0.6392
  760TIP3    H223696   4.289   4.124   6.040 -0.4790  0.7215  3.9054
  761TIP3   OH223697   6.734   5.229  17.001 -0.2262  0.5845 -0.1778
  761TIP3    H123698   6.828   5.243  16.988 -0.2371  0.6001 -0.2425
  761TIP3    H223699   6.714   5.151  16.948 -0.0298 -0.0890  0.7166
  762TIP3   OH223700   4.662   1.262  11.315  0.3771 -0.2601 -0.1058
  762TIP3    H123701   4.595   1.284  11.250  1.1739 -0.2708 -0.9560
  762TIP3    H223702   4.698   1.178  11.284  1.4832  0.2496 -0.2481
  763TIP3   OH223703   3.435   1.755  15.503 -0.5736 -0.9730  0.0976
  763TIP3    H123704   3.455   1.725  15.414 -0.8296 -1.5961  0.2389
  763TIP3    H223705   3.488   1.700  15.560 -0.0326 -0.2376  0.3177
  764TIP3   OH223706   3.113   2.272   3.456  0.1198 -0.2306  0.2132
  764TIP3    H123707   3.119   2.327   3.534  0.1843 -1.8862  1.4303
  764TIP3    H223708   3.022   2.245   3.452  0.2559 -0.6870  0.1049
  765TIP3   OH223709   0.433   6.740   0.883  0.2703  0.4406 -0.2733
  765TIP3    H123710   0.479   6.702   0.958  0.6009  2.5346  0.6488
  765TIP3    H223711   0.432   6.834   0.900 -0.4444  0.8978 -2.4844
  766TIP3   OH223712   3.480   4.348   0.904 -0.4860 -0.2341 -0.1290
  766TIP3    H123713   3.507   4.258   0.888 -0.6143 -0.2642 -0.1720
  766TIP3    H223714   3.397   4.341   0.951 -0.5700 -0.1366 -0.2621
  767TIP3   OH223715   5.619   4.771   2.201 -0.0724  0.0854 -0.2583
  767TIP3    H123716   5.578   4.714   2.266 -0.9091  0.4038 -0.4893
  767TIP3    H223717   5.602   4.860   2.232  1.1728  0.2276  0.0661
  768TIP3   OH223718   4.341   3.980  11.977  0.3505 -0.1854 -0.6404
  768TIP3    H123719   4.379   4.001  12.062  0.0602 -2.6667  0.1936
  768TIP3    H223720   4.413   3.944  11.926  0.6470  1.7855 -1.7110
  769TIP3   OH223721   1.197   4.832   0.656  0.4134 -0.1744 -0.3884
  769TIP3    H123722   1.129   4.814   0.721  0.1391 -0.5787 -0.7827
  769TIP3    H223723   1.248   4.752   0.651  1.1605  0.2500  0.1741
  770TIP3   OH223724   4.930   1.232   0.752 -0.2545 -0.5145  0.0997
  770TIP3    H123725   5.021   1.223   0.725  1.0013  2.2389  2.8259
  770TIP3    H223726   4.913   1.154   0.805  0.9780 -0.4584  0.6126
  771TIP3   OH223727   1.372   2.617   3.854 -0.6832 -0.2472  0.0175
  771TIP3    H123728   1.392   2.711   3.857 -0.3561 -0.3097 -0.2396
  771TIP3    H223729   1.415   2.585   3.775  0.6401 -0.9522  0.9769
  772TIP3   OH223730   2.503   0.309   3.950 -0.3147 -0.5936  0.7523
  772TIP3    H123731   2.507   0.314   3.854 -0.2630 -0.1495  0.7758
  772TIP3    H223732   2.589   0.275   3.976  0.3324  0.9407  0.7413
  773TIP3   OH223733   4.970   3.482  15.230 -0.0308  0.3154  0.0821
  773TIP3    H123734   4.935   3.412  15.285 -1.2109  1.7342  1.2423
  773TIP3    H223735   4.907   3.490  15.159 -0.0687  0.3916  0.1235
  774TIP3   OH223736   0.142   4.469   0.292 -0.0773  0.3805  0.6337
  774TIP3    H123737   0.226   4.425   0.297 -0.3689 -0.1844  0.6419
  774TIP3    H223738   0.091   4.417   0.229 -1.4414 -1.0676  2.7917
  775TIP3   OH223739   5.315   6.645  12.002 -0.3153 -0.1168  0.2580
  775TIP3    H123740   5.230   6.601  12.008 -1.2168  1.6997  1.6228
  775TIP3    H223741   5.318   6.702  12.079  2.8690 -1.3232  1.1752
  776TIP3   OH223742   0.042   5.064  16.182 -0.2076  0.3025 -0.3907
  776TIP3    H123743   0.031   5.084  16.089 -2.3545 -0.3493 -0.3372
  776TIP3    H223744  -0.040   5.093  16.222  0.6248  0.4266  1.2888
  777TIP3   OH223745   0.821   4.336  14.337  0.3260 -0.4159 -0.4834
  777TIP3    H123746   0.799   4.428  14.354  0.5618 -0.5752  0.7352
  777TIP3    H223747   0.853   4.303  14.421 -1.5257 -2.1331 -0.3973
  778TIP3   OH223748   5.228   2.704  12.690  0.7813  0.1581 -0.1986
  778TIP3    H123749   5.221   2.787  12.736  1.1566 -0.3438  0.8010
  778TIP3    H223750   5.174   2.644  12.742  1.9708 -0.6446  0.1514
  779TIP3   OH223751   5.051   1.065  11.023 -0.1467  0.3651 -0.5962
  779TIP3    H123752   5.111   0.991  11.037 -0.4337  0.2369 -0.0176
  779TIP3    H223753   5.007   1.046  10.941  0.5747  0.4373 -1.0036
  780TIP3   OH223754   1.262   1.659   5.613 -0.7628 -0.7041 -0.0941
  780TIP3    H123755   1.356   1.671   5.597 -0.8572  0.6208  0.2744
  780TIP3    H223756   1.238   1.730   5.672 -2.0084 -1.0163 -0.1987
  781TIP3   OH223757   3.746   1.789   5.493  0.5892 -0.0296 -0.1861
  781TIP3    H123758   3.764   1.696   5.480  0.9296  0.1483 -1.0414
  781TIP3    H223759   3.800   1.833   5.428 -1.5071  0.6356 -1.5496
  782TIP3   OH223760   6.659   1.779   5.295 -0.3147 -0.0606  0.6217
  782TIP3    H123761   6.620   1.794   5.381 -1.9216  0.6402 -0.1888
  782TIP3    H223762   6.707   1.860   5.276  1.2908 -0.7751  1.4521
  783TIP3   OH223763   5.000   2.946   4.549  0.1242 -0.3944  0.4207
  783TIP3    H123764   5.044   2.887   4.609  0.8816  1.3107  1.6461
  783TIP3    H223765   5.007   2.905   4.463  2.1118 -1.2523  0.9608
  784TIP3   OH223766   5.485   3.788   3.513  0.8429  0.7704 -0.0967
  784TIP3    H123767   5.458   3.848   3.582  1.9823  1.6797 -0.4059
  784TIP3    H223768   5.425   3.805   3.441 -0.6105 -0.4677  0.7768
  785TIP3   OH223769   5.118   6.584  12.406  0.2856 -0.5683 -0.4776
  785TIP3    H123770   5.064   6.654  12.442  0.5818 -1.5874  2.2207
  785TIP3    H223771   5.061   6.541  12.342 -1.3365 -0.2161  0.6456
  786TIP3   OH223772   4.507   2.719  16.574  0.5975 -0.2125  0.0970
  786TIP3    H123773   4.416   2.709  16.602  0.1320 -0.3642 -1.3577
  786TIP3    H223774   4.541   2.629  16.570  0.3027 -0.2967 -0.8707
  787TIP3   OH223775   4.072   2.558  11.507  0.5056 -0.2837  0.1949
  787TIP3    H123776   4.115   2.576  11.424  1.7012 -1.0990  0.6136
  787TIP3    H223777   3.982   2.590  11.496  0.7732 -0.0093 -1.2530
  788TIP3   OH223778   4.094   3.105  11.297  0.7702 -0.2521 -0.3478
  788TIP3    H123779   4.166   3.156  11.333  0.5436 -1.5861  2.1814
  788TIP3    H223780   4.133   3.020  11.277 -0.0405 -0.9678  0.9950
  789TIP3   OH223781   0.203   0.240   2.639  1.0853  0.2628  0.1874
  789TIP3    H123782   0.130   0.205   2.587 -1.0220  2.4545  1.4727
  789TIP3    H223783   0.212   0.177   2.712  0.3691  0.0349  0.0913
  790TIP3   OH223784   1.307   5.840  13.909  0.1650 -0.0337 -0.0455
  790TIP3    H123785   1.319   5.782  13.834  2.4551 -1.7007  1.4726
  790TIP3    H223786   1.322   5.784  13.986 -3.6983  1.1832  1.8334
  791TIP3   OH223787   3.532   5.075  10.829 -0.0227 -0.0214 -0.1031
  791TIP3    H123788   3.457   5.038  10.876 -0.8353  0.0201 -1.3051
  791TIP3    H223789   3.580   4.998  10.797  0.2017 -0.0453  0.2855
  792TIP3   OH223790   0.404   5.425  12.989 -0.8871 -0.1218 -0.1357
  792TIP3    H123791   0.427   5.407  12.898  0.8519 -0.3807  0.3182
  792TIP3    H223792   0.403   5.520  12.996 -0.9601 -0.1038 -0.4191
  793TIP3   OH223793   3.250   5.388   6.693  0.6259 -0.2692 -0.2097
  793TIP3    H123794   3.185   5.332   6.735  0.6670 -0.1491  0.0159
  793TIP3    H223795   3.230   5.383   6.599 -0.2488  0.4449 -0.0693
  794TIP3   OH223796   5.326   2.491   0.522 -0.0023  0.1584 -0.8439
  794TIP3    H123797   5.396   2.544   0.483  1.4322  1.2307  2.7805
  794TIP3    H223798   5.368   2.445   0.595 -2.7236 -0.5074  0.4280
  795TIP3   OH223799   3.272   1.031  13.428  0.0570 -0.0433  0.3107
  795TIP3    H123800   3.325   1.102  13.464  0.7979 -0.3754 -0.1227
  795TIP3    H223801   3.263   1.052  13.335  1.9094 -1.4875 -0.2463
  796TIP3   OH223802   5.262   6.291   3.373 -0.0639  0.1101  0.5468
  796TIP3    H123803   5.233   6.381   3.388 -1.3691 -0.2888  0.6093
  796TIP3    H223804   5.336   6.299   3.312 -1.9983  1.0999 -1.8803
  797TIP3   OH223805   1.872   3.867   1.176 -0.3771  0.6778 -0.1084
  797TIP3    H123806   1.897   3.814   1.100 -1.1055  0.6798 -0.3603
  797TIP3    H223807   1.776   3.871   1.172 -0.5620 -0.6345  1.6716
  798TIP3   OH223808   6.278   6.554  16.075  0.3550  0.2957  0.0704
  798TIP3    H123809   6.334   6.560  16.152  2.2622  0.8032 -1.2625
  798TIP3    H223810   6.191   6.578  16.106  0.9714  0.0787  2.1182
  799TIP3   OH223811   1.773   2.421  11.334 -0.2662  0.1199  0.6382
  799TIP3    H123812   1.852   2.444  11.382  0.8173 -2.4742  0.2388
  799TIP3    H223813   1.750   2.333  11.364 -2.7543  0.5969  0.3872
  800TIP3   OH223814   1.052   0.485  16.277 -0.1107  0.0736  0.0750
  800TIP3    H123815   1.063   0.431  16.199 -0.4656 -1.0316  0.7609
  800TIP3    H223816   1.120   0.454  16.337  0.2467  1.0094  0.1674
  801TIP3   OH223817   1.885   2.481   4.992  0.0987 -0.2974 -0.2608
  801TIP3    H123818   1.954   2.435   4.945  0.3441 -0.1365 -0.0626
  801TIP3    H223819   1.847   2.414   5.050 -0.7208 -0.6926 -1.2291
  802TIP3   OH223820   2.455   0.790  12.305  0.3339 -0.2074 -0.0185
  802TIP3    H123821   2.425   0.879  12.326  1.5847  0.5314 -1.2369
  802TIP3    H223822   2.393   0.760  12.238  0.5956  0.1969 -0.4444
  803TIP3   OH223823   2.660   2.796   3.949 -0.1094 -0.4791  1.1672
  803TIP3    H123824   2.610   2.841   3.881 -0.1953 -0.9052  0.9455
  803TIP3    H223825   2.608   2.719   3.970  0.0215 -0.4601  1.5663
  804TIP3   OH223826   2.178   0.082   4.731 -0.2542  0.0997  0.2083
  804TIP3    H123827   2.143   0.028   4.802  1.1362  0.5614  1.2900
  804TIP3    H223828   2.207   0.163   4.774 -0.9086  1.1121 -1.1543
  805TIP3   OH223829   1.852   2.032  14.581  0.1508  0.6447 -0.2613
  805TIP3    H123830   1.806   2.011  14.662  0.9351 -0.2499 -0.0284
  805TIP3    H223831   1.865   1.947  14.538 -1.7174  1.2455 -2.1627
  806TIP3   OH223832   4.679   2.449  13.933  0.3847 -0.2316 -0.6930
  806TIP3    H123833   4.678   2.356  13.956  0.4743 -0.1580 -0.3954
  806TIP3    H223834   4.700   2.494  14.014 -0.7596  0.1331 -0.5965
  807TIP3   OH223835   4.842   0.052   5.191  0.1921  0.2420 -0.4414
  807TIP3    H123836   4.808   0.018   5.273 -2.0549  1.3463 -0.8408
  807TIP3    H223837   4.792   0.132   5.175  2.2195  1.3546 -1.7241
  808TIP3   OH223838   2.537   1.889  15.255 -0.5796  0.1921  0.0578
  808TIP3    H123839   2.547   1.919  15.346 -0.9717 -2.2609  0.9818
  808TIP3    H223840   2.625   1.893  15.218 -0.5381  1.9713  0.2262
  809TIP3   OH223841   2.830   0.036   2.056 -0.2759 -0.1640 -0.2085
  809TIP3    H123842   2.786   0.002   2.133 -1.4046  0.0334 -0.7425
  809TIP3    H223843   2.851   0.127   2.078 -0.9388  0.0079 -0.2615
  810TIP3   OH223844   5.396   0.661  12.264 -0.4116 -0.1130 -0.3768
  810TIP3    H123845   5.446   0.743  12.260 -2.1353  1.1268  1.6857
  810TIP3    H223846   5.458   0.598  12.302  0.0633  1.0058  0.7767
  811TIP3   OH223847   3.714   6.050   6.190 -0.2248  0.0252  0.5174
  811TIP3    H123848   3.716   6.006   6.105 -1.4653  0.3391  0.3134
  811TIP3    H223849   3.731   5.981   6.253 -0.0416 -0.3514  0.0605
  812TIP3   OH223850   5.976   1.420   4.591  0.2607  0.8196 -0.3980
  812TIP3    H123851   6.066   1.453   4.603 -0.6051  2.8641  1.0025
  812TIP3    H223852   5.924   1.498   4.576 -1.6315 -0.0942  1.0121
  813TIP3   OH223853   0.184   4.210   0.451  0.2577 -0.6737 -1.0158
  813TIP3    H123854   0.247   4.212   0.378  0.6572 -0.8282 -0.6770
  813TIP3    H223855   0.216   4.276   0.512  0.1069 -0.7760 -0.8270
  814TIP3   OH223856   0.969   3.302   5.872 -0.9601  0.1908  0.0293
  814TIP3    H123857   0.895   3.322   5.816 -0.6990  0.8153 -0.1025
  814TIP3    H223858   0.969   3.372   5.938 -0.0126  0.6668 -0.4544
  815TIP3   OH223859   5.028   6.786   0.153  0.0821 -0.5394  0.1351
  815TIP3    H123860   5.020   6.709   0.209 -1.3077 -1.6889 -1.5520
  815TIP3    H223861   4.939   6.818   0.141  0.5257  0.7012 -0.0637
  816TIP3   OH223862   6.488   4.179  14.007  0.6585  0.1793 -0.6018
  816TIP3    H123863   6.539   4.181  13.927  0.8080 -0.3854 -0.5249
  816TIP3    H223864   6.435   4.259  14.004  1.8035  0.9531 -0.5016
  817TIP3   OH223865   2.509   1.710   0.490  0.5035  0.5057  0.0353
  817TIP3    H123866   2.589   1.701   0.438  0.1889 -3.1717 -0.0641
  817TIP3    H223867   2.538   1.746   0.573  2.5086 -1.5240  0.3033
  818TIP3   OH223868   1.349   3.723  15.889  0.0637 -0.2455  0.0960
  818TIP3    H123869   1.431   3.770  15.876  0.1749 -0.8620 -1.7043
  818TIP3    H223870   1.281   3.789  15.880  0.2946 -0.0360 -0.1027
  819TIP3   OH223871   4.566   4.507  13.180  0.4297  0.4766 -0.1395
  819TIP3    H123872   4.581   4.418  13.148 -0.8067  0.4514 -0.7263
  819TIP3    H223873   4.476   4.526  13.153  0.7415  1.9652 -0.1761
  820TIP3   OH223874   3.327   2.136   4.590  0.1551 -0.4867  0.5488
  820TIP3    H123875   3.300   2.070   4.527  1.7717  0.1314 -0.8600
  820TIP3    H223876   3.409   2.102   4.626 -0.8477 -0.9494  2.5866
  821TIP3   OH223877   6.642   6.357  14.757 -0.1705 -0.3385 -0.6148
  821TIP3    H123878   6.696   6.418  14.808 -1.9423  0.1119  0.8256
  821TIP3    H223879   6.636   6.279  14.813 -0.4327 -0.6517 -1.0777
  822TIP3   OH223880   3.557   5.480  15.589 -0.2855 -0.0160  0.7166
  822TIP3    H123881   3.541   5.472  15.496  0.2718 -1.0311  0.6989
  822TIP3    H223882   3.551   5.391  15.623  1.2654  0.0774  1.3428
  823TIP3   OH223883   4.868   1.685  15.145  0.1228 -0.2300 -0.1931
  823TIP3    H123884   4.792   1.636  15.180  0.7678  0.0361  1.7106
  823TIP3    H223885   4.848   1.776  15.164  0.9093 -0.1622  0.3765
  824TIP3   OH223886   2.062   5.548   2.725  0.0530  0.0157  0.1405
  824TIP3    H123887   2.134   5.500   2.685 -0.2237 -0.5658  0.3363
  824TIP3    H223888   2.096   5.575   2.810  0.4889  0.8743 -0.2918
  825TIP3   OH223889   4.024   1.229  13.724  0.9459  0.0261 -0.1793
  825TIP3    H123890   4.044   1.266  13.638 -0.9775  0.1752 -0.6163
  825TIP3    H223891   3.941   1.182  13.711  1.7070 -1.7859  1.1039
  826TIP3   OH223892   1.621   2.126   2.455 -0.1110  0.0262 -0.4079
  826TIP3    H123893   1.638   2.181   2.378 -1.1050  1.9445  0.6568
  826TIP3    H223894   1.561   2.178   2.508 -1.8278 -2.4779  0.3003
  827TIP3   OH223895   3.323   5.701   0.289  0.1579 -0.4955 -0.4225
  827TIP3    H123896   3.346   5.794   0.293 -1.6930  0.0436 -0.9066
  827TIP3    H223897   3.299   5.679   0.379 -2.3303  0.4090 -0.7603
  828TIP3   OH223898   5.471   4.339  16.192  0.0461 -0.2870  0.0693
  828TIP3    H123899   5.467   4.434  16.197 -0.7347 -0.3441  0.7310
  828TIP3    H223900   5.388   4.314  16.151 -0.7323 -0.7908  1.8550
  829TIP3   OH223901   6.457   1.141  11.784 -0.4189 -0.2720  0.3725
  829TIP3    H123902   6.376   1.136  11.733 -2.1412  0.0529  2.8811
  829TIP3    H223903   6.447   1.073  11.851  0.9902  0.3947  1.2941
  830TIP3   OH223904   0.839   5.042   1.689 -0.1950  0.0270  0.6500
  830TIP3    H123905   0.856   5.098   1.613 -0.6313  1.6952  1.7150
  830TIP3    H223906   0.916   4.986   1.695  0.0849  0.2325 -0.7023
  831TIP3   OH223907   5.034   5.401  16.289 -0.8128  0.1566 -0.2029
  831TIP3    H123908   4.955   5.395  16.343 -0.4902 -0.5892  0.1924
  831TIP3    H223909   5.102   5.430  16.350  0.0799 -2.8298  0.3827
  832TIP3   OH223910   2.172   0.115  13.441 -0.0472 -0.0447 -0.3091
  832TIP3    H123911   2.246   0.176  13.440 -0.3567  0.4089  1.4717
  832TIP3    H223912   2.184   0.061  13.362  2.0256  0.1806 -0.1997
  833TIP3   OH223913   2.875   2.871   4.073 -0.8510 -0.2728 -0.1430
  833TIP3    H123914   2.925   2.790   4.082  0.9353  0.6429 -1.1992
  833TIP3    H223915   2.794   2.845   4.029  0.8814 -1.1761 -3.0517
  834TIP3   OH223916   0.578   5.118   4.819  0.3101 -0.2868 -0.0431
  834TIP3    H123917   0.609   5.209   4.813  1.0116 -0.4938  0.2758
  834TIP3    H223918   0.591   5.094   4.910 -0.8709 -0.3734  0.1072
  835TIP3   OH223919   3.152   4.212   4.004  0.7169 -0.0540  0.0474
  835TIP3    H123920   3.205   4.288   4.029 -0.5076  0.3260  1.6697
  835TIP3    H223921   3.124   4.231   3.915  1.6417  0.6856 -0.1068
  836TIP3   OH223922   4.192   5.374   0.075 -0.1798  0.1704 -0.0258
  836TIP3    H123923   4.284   5.375   0.102  0.2370 -1.5239 -1.2491
  836TIP3    H223924   4.168   5.467   0.070  1.2434  0.6351  0.9602
  837TIP3   OH223925   3.971   1.541   3.644 -0.7106  0.3275 -0.1773
  837TIP3    H123926   4.032   1.516   3.575  0.2113 -0.8539  1.0088
  837TIP3    H223927   4.027   1.577   3.714 -1.0200 -2.5866  1.7564
  838TIP3   OH223928   4.905   1.975  16.889 -0.2785  0.3239 -0.7470
  838TIP3    H123929   4.942   2.044  16.943 -3.2198  3.7398 -2.6054
  838TIP3    H223930   4.821   1.954  16.931  1.1964 -3.5600  0.6774
  839TIP3   OH223931   4.383   2.202  15.953  0.5657  0.0311 -0.6407
  839TIP3    H123932   4.453   2.158  15.999  0.8804  0.5522 -0.6182
  839TIP3    H223933   4.304   2.151  15.974  0.9959 -0.7908 -0.9975
  840TIP3   OH223934   3.512   5.374   5.520  0.5636  0.0087  0.1502
  840TIP3    H123935   3.602   5.365   5.487  1.4497  0.0546  2.3755
  840TIP3    H223936   3.521   5.371   5.615 -1.6588  1.3270  0.4801
  841TIP3   OH223937   5.735   2.670   1.539 -0.4852  0.2860  0.2487
  841TIP3    H123938   5.808   2.729   1.555  0.2805 -0.8749  1.2713
  841TIP3    H223939   5.659   2.727   1.527  0.5443  1.5211 -0.7111
  842TIP3   OH223940   1.770   6.063  16.395 -0.0302  0.1123  0.5342
  842TIP3    H123941   1.713   6.093  16.324  1.9498 -1.4557 -1.9062
  842TIP3    H223942   1.814   6.142  16.425 -0.4441  0.7486 -0.4562
  843TIP3   OH223943   2.242   4.749   3.401  0.0288  0.1616 -0.1169
  843TIP3    H123944   2.165   4.693   3.390  0.3287 -0.4757  0.8572
  843TIP3    H223945   2.289   4.709   3.474  0.3928  1.5346  0.4183
  844TIP3   OH223946   5.424   0.391  11.359 -0.2186 -0.1940  0.0770
  844TIP3    H123947   5.378   0.384  11.442  0.8532  3.4281  1.1284
  844TIP3    H223948   5.514   0.365  11.380 -0.5316 -2.1936 -0.7687
  845TIP3   OH223949   6.319   2.468  14.364  0.0238 -0.8440 -0.4098
  845TIP3    H123950   6.292   2.439  14.452 -0.8746 -1.8957 -1.0040
  845TIP3    H223951   6.391   2.408  14.341  0.9652  0.0905 -0.0053
  846TIP3   OH223952   6.294   4.079   1.135 -0.2215  0.1768  0.0878
  846TIP3    H123953   6.232   4.100   1.065  0.2507 -0.2097 -0.4523
  846TIP3    H223954   6.347   4.008   1.100 -0.1753 -0.2286  0.9590
  847TIP3   OH223955   4.289   1.401  11.936 -0.1004  0.3964 -0.1887
  847TIP3    H123956   4.308   1.351  11.856 -0.1871 -3.2590  1.8489
  847TIP3    H223957   4.372   1.443  11.958  0.2337  0.5035 -1.5588
  848TIP3   OH223958   1.893   3.567   3.786  0.1804 -0.1752 -0.1280
  848TIP3    H123959   1.945   3.568   3.867 -0.4946 -1.5773  0.3495
  848TIP3    H223960   1.957   3.551   3.717  0.6273 -0.0546  0.2528
  849TIP3   OH223961   5.757   5.009  12.032 -0.7277 -0.5070  0.1929
  849TIP3    H123962   5.775   5.045  11.946  0.6009  0.9387  1.0238
  849TIP3    H223963   5.779   4.916  12.025 -0.2132 -0.3165 -0.8929
  850TIP3   OH223964   5.097   2.799  16.896 -0.0958 -0.0728  0.2532
  850TIP3    H123965   5.155   2.802  16.972 -0.7846 -0.1888  0.8029
  850TIP3    H223966   5.011   2.780  16.933 -0.2110 -1.5108 -0.6894
  851TIP3   OH223967   0.449   5.327  11.420 -0.8695  0.1496 -0.1209
  851TIP3    H123968   0.490   5.349  11.503 -1.9070  1.6380  0.0431
  851TIP3    H223969   0.518   5.339  11.355 -0.3510  0.0520  0.4069
  852TIP3   OH223970   1.401   5.394   3.090 -0.7316 -0.8058 -0.8033
  852TIP3    H123971   1.435   5.341   3.019 -2.6292 -0.4507 -2.0470
  852TIP3    H223972   1.416   5.485   3.062 -2.1456 -0.6549 -1.1117
  853TIP3   OH223973   0.342   5.184   4.699 -0.1823 -0.1602 -0.0834
  853TIP3    H123974   0.422   5.157   4.745 -0.3910  2.1194  1.8474
  853TIP3    H223975   0.369   5.196   4.608  2.0687  1.7532  0.7323
  854TIP3   OH223976   3.462   6.240   2.885 -0.1500 -0.3836 -0.6215
  854TIP3    H123977   3.551   6.205   2.888  0.0021  0.0636  0.5461
  854TIP3    H223978   3.437   6.235   2.792  1.2486 -0.0860 -1.0290
  855TIP3   OH223979   5.091   2.456  10.674  0.3758  0.2586  0.2760
  855TIP3    H123980   5.170   2.426  10.718  0.9125  0.2642 -0.6586
  855TIP3    H223981   5.100   2.552  10.671  0.7277  0.2128 -0.5183
  856TIP3   OH223982   0.338   4.855  12.719 -0.7523 -0.2280  0.0271
  856TIP3    H123983   0.398   4.913  12.671 -0.3609 -0.4028  0.2999
  856TIP3    H223984   0.279   4.821  12.652 -0.8942  0.3691 -0.1629
  857TIP3   OH223985   1.206   1.374  12.030 -0.0002 -0.2155  0.3558
  857TIP3    H123986   1.257   1.298  12.054 -1.6266 -1.0472  1.3982
  857TIP3    H223987   1.269   1.435  11.990  1.2508 -2.2538 -0.9300
  858TIP3   OH223988   4.461   0.254   5.653  0.3697 -0.9074 -0.3937
  858TIP3    H123989   4.460   0.233   5.559  0.8870 -2.4176 -0.0878
  858TIP3    H223990   4.394   0.196   5.691 -1.1390  0.9532 -0.0307
  859TIP3   OH223991   1.935   4.350   4.373 -0.3294 -1.0324  0.6034
  859TIP3    H123992   2.026   4.323   4.386 -0.2316 -2.0175 -1.7075
  859TIP3    H223993   1.883   4.273   4.394 -0.5296 -0.9317  0.4837
  860TIP3   OH223994   1.569   1.060   1.017 -0.2913  0.1294  0.3254
  860TIP3    H123995   1.645   1.024   1.063 -0.2371  0.6467  0.6493
  860TIP3    H223996   1.496   1.050   1.078 -0.1976  0.9166  0.5791
  861TIP3   OH223997   4.625   4.510   2.673 -0.1709 -0.4295  0.5658
  861TIP3    H123998   4.616   4.603   2.651 -1.5150 -0.4738  0.8447
  861TIP3    H223999   4.653   4.469   2.592 -0.6087  0.0656  0.1609
  862TIP3   OH224000   3.139   0.564  12.541  0.2399 -0.3386 -0.2770
  862TIP3    H124001   3.195   0.588  12.614 -0.4460  0.4059  0.0246
  862TIP3    H224002   3.195   0.573  12.464  0.2351  1.5679 -0.1031
  863TIP3   OH224003   0.260   0.704   1.810  0.2880 -0.5726 -0.3081
  863TIP3    H124004   0.277   0.633   1.872  1.3570  0.4544  0.6224
  863TIP3    H224005   0.183   0.749   1.845  2.0378  1.2323  1.5077
  864TIP3   OH224006   3.160   1.416  11.693 -0.2160 -0.1259 -0.6631
  864TIP3    H124007   3.138   1.369  11.613 -0.6095 -0.4042 -0.3960
  864TIP3    H224008   3.198   1.499  11.663 -0.4511 -0.1846 -1.1327
  865TIP3   OH224009   6.096   2.765  12.667 -0.1724 -0.1887  0.8460
  865TIP3    H124010   6.085   2.859  12.678 -2.5304 -0.5721  2.6897
  865TIP3    H224011   6.132   2.736  12.751 -1.2408 -1.1232  1.0028
  866TIP3   OH224012   4.880   2.256  10.488  0.2612  0.1389 -0.4225
  866TIP3    H124013   4.788   2.230  10.476  0.2244 -0.7102  1.3161
  866TIP3    H224014   4.881   2.350  10.474 -0.7426  0.0650 -1.1030
  867TIP3   OH224015   6.486   1.644  10.966 -0.3128  0.0615 -0.7152
  867TIP3    H124016   6.495   1.625  10.872  0.9623 -2.7979 -0.1178
  867TIP3    H224017   6.392   1.660  10.978 -0.4349  0.9670 -2.5146
  868TIP3   OH224018   4.837   5.103   2.875  0.0581 -0.5693 -0.3635
  868TIP3    H124019   4.766   5.103   2.811 -1.0696 -1.6419  0.8373
  868TIP3    H224020   4.811   5.037   2.940  2.3935 -1.3942 -0.1628
  869TIP3   OH224021   4.945   1.018   5.262  0.2013  0.2204  0.6028
  869TIP3    H124022   5.018   1.077   5.242 -1.3058  2.2412  0.6502
  869TIP3    H224023   4.900   1.006   5.179 -1.4884  2.0761  1.1679
  870TIP3   OH224024   3.956   6.614  12.625 -0.2364  0.0268  0.5336
  870TIP3    H124025   4.031   6.630  12.567  0.2626 -0.1679  1.1184
  870TIP3    H224026   3.952   6.519  12.634 -0.2974  0.0581  0.8391
  871TIP3   OH224027   5.191   6.134   2.921 -0.0952  0.3135 -0.2727
  871TIP3    H124028   5.111   6.095   2.956 -0.4010  1.5988  0.5129
  871TIP3    H224029   5.245   6.059   2.897 -1.3527 -0.5823 -0.4205
  872TIP3   OH224030   1.458   3.076   4.780  0.1638 -0.1051 -0.3205
  872TIP3    H124031   1.432   2.985   4.796  0.1019 -0.1001 -0.3935
  872TIP3    H224032   1.517   3.097   4.853 -0.7607  0.1826  0.3559
  873TIP3   OH224033   1.111   2.935  10.053 -0.3315  0.0889 -0.4294
  873TIP3    H124034   1.019   2.956  10.038 -0.4294 -0.9497 -1.4263
  873TIP3    H224035   1.113   2.840  10.063  0.3824  0.2916  1.7190
  874TIP3   OH224036   5.694   3.640   3.039  0.1312 -0.1681 -0.6448
  874TIP3    H124037   5.689   3.649   3.134  1.7255  1.1929 -0.6443
  874TIP3    H224038   5.656   3.553   3.022  1.5141 -1.2837  1.4228
  875TIP3   OH224039   5.982   5.074  12.828  0.1596  0.6802 -0.0367
  875TIP3    H124040   6.014   5.109  12.745  0.3589  0.9935  0.1669
  875TIP3    H224041   6.048   5.100  12.892 -0.1214  0.6714  0.2617
  876TIP3   OH224042   5.268   2.909  15.264  0.1020 -0.8171  0.2450
  876TIP3    H124043   5.258   2.817  15.242  1.0899 -1.1100  0.9668
  876TIP3    H224044   5.301   2.909  15.354  0.9162  0.2152 -0.0340
  877TIP3   OH224045   3.700   6.706   4.973  0.1006 -0.0078  0.2010
  877TIP3    H124046   3.711   6.629   5.028  0.4598 -1.2422 -1.5218
  877TIP3    H224047   3.770   6.766   5.001  1.1800 -1.1984  0.1309
  878TIP3   OH224048   3.235   3.119  14.595 -0.1514 -0.5668 -0.0105
  878TIP3    H124049   3.206   3.199  14.637 -1.3570  0.1402 -2.0584
  878TIP3    H224050   3.186   3.115  14.513  0.9129 -2.6789 -0.6322
  879TIP3   OH224051   3.463   3.078  16.885  0.0914  0.5057  0.1880
  879TIP3    H124052   3.389   3.114  16.934  0.7203  0.9513  0.8341
  879TIP3    H224053   3.519   3.153  16.868  0.5305  0.1259 -0.0552
  880TIP3   OH224054   0.248   2.975  11.341 -0.4058  0.6743  0.3454
  880TIP3    H124055   0.273   2.935  11.424 -2.2492  0.1641  0.6948
  880TIP3    H224056   0.327   2.969  11.287  0.4700 -0.0515  1.6542
  881TIP3   OH224057   3.001   1.445   1.683  0.3045 -0.3549 -0.7269
  881TIP3    H124058   3.064   1.514   1.705  0.4903 -0.9538  0.7016
  881TIP3    H224059   2.917   1.480   1.710  0.2803 -0.3415 -0.8180
  882TIP3   OH224060   4.499   3.991   2.181  0.4434  0.3508  0.3624
  882TIP3    H124061   4.417   3.942   2.186 -0.0047  1.0723  0.1243
  882TIP3    H224062   4.566   3.925   2.197 -0.1700 -0.2764  0.4206
  883TIP3   OH224063   2.568   0.897   5.055 -0.6530  0.0225  0.5481
  883TIP3    H124064   2.619   0.958   5.002 -0.5104 -0.8535 -0.3570
  883TIP3    H224065   2.477   0.914   5.031 -0.6227 -0.0447  0.3894
  884TIP3   OH224066   1.006   4.634   0.139 -0.1269  0.1690 -0.0313
  884TIP3    H124067   0.964   4.716   0.163  0.2807 -0.0330  1.4490
  884TIP3    H224068   0.974   4.616   0.050 -2.5321  0.4341  0.7174
  885TIP3   OH224069   2.099   1.988  15.557 -0.7947 -0.0663 -0.0483
  885TIP3    H124070   2.035   2.051  15.524 -1.4427  0.5217  2.1500
  885TIP3    H224071   2.049   1.934  15.618  0.5590 -0.3475  0.8432
  886TIP3   OH224072   4.399   1.924  14.751 -0.2802  0.4880 -0.3562
  886TIP3    H124073   4.414   1.838  14.790  0.7468  0.8037 -0.0298
  886TIP3    H224074   4.460   1.928  14.677 -0.3588  0.9131 -0.3998
  887TIP3   OH224075   6.592   1.793   4.270  0.5314 -0.1295 -0.4053
  887TIP3    H124076   6.516   1.780   4.327  1.0989 -1.9124  0.0039
  887TIP3    H224077   6.556   1.793   4.182 -0.0872  0.4370 -0.1635
  888TIP3   OH224078   3.612   3.927   0.226  0.0355  0.3312 -0.2396
  888TIP3    H124079   3.560   3.988   0.173  1.1552  1.7270  0.1989
  888TIP3    H224080   3.595   3.954   0.316 -0.8892 -1.2357  0.0951
  889TIP3   OH224081   0.419   2.794  10.620 -0.7489  0.5667 -0.2826
  889TIP3    H124082   0.348   2.767  10.561 -2.5772  1.5261  1.3380
  889TIP3    H224083   0.451   2.712  10.657 -0.6869  0.0778 -1.3994
  890TIP3   OH224084   4.489   6.751   6.078  0.4774 -0.2171 -0.2880
  890TIP3    H124085   4.401   6.739   6.041 -0.3662 -0.2261  1.6256
  890TIP3    H224086   4.486   6.707   6.163  2.8487 -1.6446 -0.8271
  891TIP3   OH224087   6.773   5.794  16.685  0.1213  0.1820 -0.3331
  891TIP3    H124088   6.767   5.882  16.722  0.6657 -0.1727  0.6143
  891TIP3    H224089   6.736   5.803  16.596 -0.5749  1.1805  0.0363
  892TIP3   OH224090   6.128   5.192  13.072 -0.4294 -0.0358 -0.2681
  892TIP3    H124091   6.139   5.275  13.118 -0.8643 -1.0973  1.9260
  892TIP3    H224092   6.213   5.148  13.083 -0.0292  0.2763 -1.8545
  893TIP3   OH224093   3.963   4.385  11.724  0.0185  0.2305  0.0067
  893TIP3    H124094   3.994   4.389  11.814  2.4761  0.2322 -0.7595
  893TIP3    H224095   4.025   4.328  11.680 -0.2218  1.4107 -2.0018
  894TIP3   OH224096   5.157   5.947  13.744 -0.3498 -0.4498 -0.8431
  894TIP3    H124097   5.099   5.997  13.801  1.4295 -0.5596  1.1641
  894TIP3    H224098   5.102   5.876  13.710 -1.8656  0.5503 -0.5573
  895TIP3   OH224099   1.535   0.029   4.076  0.3961  0.1672 -0.8097
  895TIP3    H124100   1.505   0.033   3.985  0.2893  0.6879 -0.7567
  895TIP3    H224101   1.460  -0.007   4.123 -0.3027  1.7385 -0.6328
  896TIP3   OH224102   4.563   1.007   1.324 -0.0360 -0.1286 -0.0909
  896TIP3    H124103   4.547   1.100   1.308  0.2695  0.3200  1.9406
  896TIP3    H224104   4.562   0.967   1.237 -0.4520  1.7195 -0.9815
  897TIP3   OH224105   4.723   0.835  14.782  0.0731 -0.0549  0.3382
  897TIP3    H124106   4.680   0.775  14.721  1.2836  0.3045 -0.9190
  897TIP3    H224107   4.807   0.793  14.803  0.1924  0.3970  0.8002
  898TIP3   OH224108   1.253   4.013  16.428 -0.1370  0.1601 -0.1748
  898TIP3    H124109   1.171   4.010  16.379  0.0623  0.1358 -0.5123
  898TIP3    H224110   1.318   4.043  16.364  0.5365 -1.8864 -0.5163
  899TIP3   OH224111   5.856   3.678   0.754  0.3962  0.1850  0.1389
  899TIP3    H124112   5.895   3.621   0.820 -0.0163 -1.9554 -1.3832
  899TIP3    H224113   5.916   3.753   0.750  1.5387 -0.5983  1.4588
  900TIP3   OH224114   3.326   0.862  15.446 -0.1195 -0.0645 -0.2829
  900TIP3    H124115   3.253   0.920  15.468 -0.4317 -0.5652  0.0274
  900TIP3    H224116   3.400   0.896  15.495 -0.2397  0.2191 -0.2995
  901TIP3   OH224117   1.331   2.368   1.373 -0.3306 -0.0116  0.1975
  901TIP3    H124118   1.364   2.309   1.306  0.3557 -1.2223  1.5628
  901TIP3    H224119   1.408   2.394   1.423 -0.9281  0.2011  1.0302
  902TIP3   OH224120   5.017   6.572   0.337  0.2655  0.5858  0.0843
  902TIP3    H124121   5.086   6.566   0.404  0.5900  0.0644 -0.2915
  902TIP3    H224122   4.961   6.497   0.354  0.9621 -0.1805 -0.9000
  903TIP3   OH224123   2.607   3.820   5.075 -0.0656  0.1155  0.0634
  903TIP3    H124124   2.689   3.846   5.118  0.6776  1.3901 -1.9250
  903TIP3    H224125   2.561   3.903   5.060 -1.7700 -0.5829  1.1519
  904TIP3   OH224126   4.584   1.271   1.227 -0.0512  0.2784  0.1858
  904TIP3    H124127   4.643   1.309   1.161 -1.4535  1.4447 -0.4512
  904TIP3    H224128   4.501   1.316   1.213 -1.2775 -1.7251  0.6717
  905TIP3   OH224129   0.951   1.995   1.162 -0.0261 -0.1187 -0.5185
  905TIP3    H124130   0.972   1.904   1.182 -0.2956 -0.0694  0.0324
  905TIP3    H224131   1.036   2.039   1.159  0.0609 -0.2313  0.0660
  906TIP3   OH224132   3.912   3.242  13.459 -0.2195  0.0076 -0.6885
  906TIP3    H124133   3.846   3.303  13.493 -1.2733 -1.0167 -0.8481
  906TIP3    H224134   3.989   3.259  13.513 -0.4409  1.5546 -0.7992
  907TIP3   OH224135   1.605   4.008  16.718  0.3071  0.0494  0.3909
  907TIP3    H124136   1.681   4.008  16.660 -0.5572 -1.3756 -0.8405
  907TIP3    H224137   1.640   3.985  16.804  1.1714 -1.5263 -0.3428
  908TIP3   OH224138   3.998   2.665   2.659  0.3460 -0.1315  0.3155
  908TIP3    H124139   4.066   2.659   2.591  0.7295 -0.5644  0.7278
  908TIP3    H224140   3.935   2.729   2.625 -0.6997 -2.0100 -1.5357
  909TIP3   OH224141   3.705   5.222  16.494  0.1758  0.0554  0.3503
  909TIP3    H124142   3.665   5.299  16.532  0.9963  0.5691  0.2086
  909TIP3    H224143   3.679   5.224  16.402  1.1290  0.8202  0.0788
  910TIP3   OH224144   5.828   0.677  12.763 -0.2569  0.1510 -0.0531
  910TIP3    H124145   5.775   0.614  12.811  1.2192  0.2918  1.9018
  910TIP3    H224146   5.858   0.739  12.830  1.4683  0.6787 -1.2423
  911TIP3   OH224147   3.484   5.754  12.938  0.2815  0.1378  0.0234
  911TIP3    H124148   3.552   5.808  12.899 -1.4707  1.7041 -1.0022
  911TIP3    H224149   3.437   5.813  12.997 -0.7337 -0.6849  0.0613
  912TIP3   OH224150   2.365   3.261  13.097  0.2280 -0.2443 -0.3655
  912TIP3    H124151   2.279   3.221  13.106  0.2839 -0.2106  0.4089
  912TIP3    H224152   2.362   3.337  13.155  0.2922  0.5983 -1.4289
  913TIP3   OH224153   2.873   2.203  16.541  0.3852 -0.5543 -0.1290
  913TIP3    H124154   2.839   2.174  16.457  1.1359 -1.7272 -0.0625
  913TIP3    H224155   2.799   2.195  16.602  0.0639 -0.4804 -0.5087
  914TIP3   OH224156   4.499   6.644   4.227 -0.0306 -0.1087 -0.3848
  914TIP3    H124157   4.544   6.721   4.260 -2.4571  0.7090  1.2939
  914TIP3    H224158   4.534   6.571   4.279 -0.3146  0.4510  0.6247
  915TIP3   OH224159   2.730   5.557  15.827  0.3716 -0.0963  0.3037
  915TIP3    H124160   2.731   5.497  15.752 -0.5584 -1.3050  1.2324
  915TIP3    H224161   2.778   5.634  15.796 -1.5787  0.2386 -2.1901
  916TIP3   OH224162   0.324   1.416   0.589  0.2010  0.1894 -0.5642
  916TIP3    H124163   0.411   1.381   0.574  0.7561  1.6554 -0.9468
  916TIP3    H224164   0.322   1.438   0.682 -0.1639 -0.8356 -0.3133
  917TIP3   OH224165   4.381   6.565   5.210  0.7294 -0.2682 -0.5002
  917TIP3    H124166   4.293   6.529   5.201  0.1318  1.2445 -1.0624
  917TIP3    H224167   4.419   6.518   5.284 -0.5810 -0.8644 -0.1765
  918TIP3   OH224168   4.007   6.608   0.575  0.1777 -0.2032  0.0807
  918TIP3    H124169   3.928   6.660   0.590 -0.0613 -0.8408  1.0628
  918TIP3    H224170   4.051   6.606   0.659  1.1806  0.0204 -0.4247
  919TIP3   OH224171   6.614   2.831   4.184 -0.6072 -0.3763  0.3572
  919TIP3    H124172   6.548   2.839   4.114 -0.7948  0.7826  0.6318
  919TIP3    H224173   6.605   2.913   4.233 -1.2347 -1.6160  2.4232
  920TIP3   OH224174   3.595   5.154   5.804 -0.2281 -0.0727 -1.0329
  920TIP3    H124175   3.511   5.117   5.830 -0.1466  1.0332  1.0180
  920TIP3    H224176   3.598   5.240   5.846  1.4585  0.3939 -1.9814
  921TIP3   OH224177   4.617   0.787  12.423  0.2545 -0.0791  0.1984
  921TIP3    H124178   4.606   0.880  12.405 -0.0931  0.0599  1.0844
  921TIP3    H224179   4.707   0.768  12.397  0.5053  0.6300  0.5228
  922TIP3   OH224180   3.171   3.483   3.920  0.1579  0.0695 -0.0133
  922TIP3    H124181   3.115   3.462   3.846  0.1314 -0.7557  0.2353
  922TIP3    H224182   3.214   3.400   3.943  1.4094  0.6517 -0.1357
  923TIP3   OH224183   4.357   6.590  13.524 -0.0188 -0.0903 -0.0055
  923TIP3    H124184   4.303   6.668  13.514 -0.6374 -0.5942 -0.8377
  923TIP3    H224185   4.294   6.517  13.519  0.7556 -0.7172 -1.4168
  924TIP3   OH224186   1.860   2.297   0.071  0.7733  0.4050 -0.2930
  924TIP3    H124187   1.872   2.276   0.164 -0.6326  3.3624  0.6728
  924TIP3    H224188   1.765   2.308   0.061  0.8168 -0.4892 -2.2965
  925TIP3   OH224189   1.049   3.444   2.355  0.2145  1.0578  0.1782
  925TIP3    H124190   1.000   3.438   2.437 -0.2632  0.0145 -0.1681
  925TIP3    H224191   1.019   3.369   2.303  0.2763  1.8831 -1.0875
  926TIP3   OH224192   1.301   0.917  13.361 -0.3893  0.9489 -0.2282
  926TIP3    H124193   1.384   0.935  13.406  0.7843 -2.1586 -0.8929
  926TIP3    H224194   1.279   0.827  13.386 -3.1864  1.3899 -0.7439
  927TIP3   OH224195   3.636   5.221  10.601 -0.5194  0.1668 -0.0539
  927TIP3    H124196   3.624   5.315  10.589  2.5525  0.9092  1.7606
  927TIP3    H224197   3.606   5.204  10.690  0.5915 -0.1972  0.2637
  928TIP3   OH224198   5.030   0.353  11.504  0.4937 -0.3540  0.6942
  928TIP3    H124199   5.095   0.338  11.573  0.7518  0.0252  0.5366
  928TIP3    H224200   5.030   0.272  11.453 -0.1679 -0.8933  1.5159
  929TIP3   OH224201   4.345   5.475   3.147 -0.1301 -0.0417  0.4562
  929TIP3    H124202   4.325   5.514   3.232  2.0249  0.2962  0.8868
  929TIP3    H224203   4.441   5.473   3.144 -0.1579 -2.1183 -1.0386
  930TIP3   OH224204   2.975   1.889  15.071  0.5421 -0.0563  0.1422
  930TIP3    H124205   2.904   1.921  15.126 -0.0268 -1.2777  0.1603
  930TIP3    H224206   2.987   1.798  15.099  0.2349 -0.7158 -1.7114
  931TIP3   OH224207   3.930   2.569   1.928 -0.6384  0.3820 -0.4661
  931TIP3    H124208   4.011   2.591   1.882  0.4547 -0.8730  0.7799
  931TIP3    H224209   3.915   2.477   1.908 -1.2596  0.3649  0.0362
  932TIP3   OH224210   2.108   3.162  14.146  0.2131  0.3141 -0.0570
  932TIP3    H124211   2.132   3.194  14.059  0.4549  0.2961  0.0033
  932TIP3    H224212   2.178   3.102  14.170  0.3865  0.6661  0.3435
  933TIP3   OH224213   2.005   1.092   5.784 -0.5083  0.1000 -0.2521
  933TIP3    H124214   2.046   1.163   5.833  0.8448  0.3839 -1.7340
  933TIP3    H224215   1.960   1.040   5.851  0.7079  0.8456  1.1980
  934TIP3   OH224216   2.263   5.272   0.120 -0.4570 -0.1818  0.4435
  934TIP3    H124217   2.201   5.259   0.048  1.4348  1.2246 -1.5783
  934TIP3    H224218   2.347   5.245   0.084  0.6024  0.8384  2.0511
  935TIP3   OH224219   0.317   3.663   1.887 -0.1273 -0.5859 -0.2119
  935TIP3    H124220   0.248   3.618   1.936  0.2984 -0.7886  0.2063
  935TIP3    H224221   0.369   3.707   1.954 -0.4148  0.3672 -0.6011
  936TIP3   OH224222   2.315   3.894  15.492 -0.5528 -0.0135 -0.1576
  936TIP3    H124223   2.379   3.900  15.562  0.1816 -2.2966 -0.5697
  936TIP3    H224224   2.347   3.954  15.425 -1.0342  1.8706  1.2065
  937TIP3   OH224225   5.771   1.546   1.908  0.1704 -0.0784 -0.4892
  937TIP3    H124226   5.794   1.619   1.851  2.2725  0.9401  1.4894
  937TIP3    H224227   5.855   1.514   1.942 -0.8320 -2.1025  0.2840
  938TIP3   OH224228   3.159   6.188   2.911 -0.2595  0.3170 -0.5530
  938TIP3    H124229   3.127   6.261   2.963 -0.5006 -1.6015  2.2220
  938TIP3    H224230   3.254   6.192   2.921 -0.3124 -2.5213  4.1931
  939TIP3   OH224231   6.497   4.559   1.891  0.6211  0.3605  0.2404
  939TIP3    H124232   6.452   4.493   1.944  1.8108 -0.6216  0.0872
  939TIP3    H224233   6.508   4.516   1.806 -2.2276  2.2952 -1.2635
  940TIP3   OH224234   3.480   1.177   2.142 -0.1146  0.3956  0.0951
  940TIP3    H124235   3.471   1.270   2.120 -0.0900  0.4929  0.4943
  940TIP3    H224236   3.414   1.134   2.088  0.8181  0.4792 -1.1576
  941TIP3   OH224237   3.008   4.870   1.247  0.2018 -0.0026 -0.0637
  941TIP3    H124238   3.066   4.868   1.171  0.6154  1.2809  0.1975
  941TIP3    H224239   2.958   4.788   1.241 -0.1231  0.2877 -1.9875
  942TIP3   OH224240   5.924   3.572  10.509  0.5090 -0.4329 -0.0216
  942TIP3    H124241   5.909   3.652  10.559  3.1130 -1.1667  2.1752
  942TIP3    H224242   5.983   3.599  10.438 -1.6477  0.2270 -1.6774
  943TIP3   OH224243   1.729   5.805   0.733 -0.4023 -0.0190  0.1007
  943TIP3    H124244   1.638   5.821   0.711 -0.0765 -0.0837 -1.4086
  943TIP3    H224245   1.753   5.727   0.683  0.0480 -0.9913  1.7416
  944TIP3   OH224246   2.199   5.822   5.632 -0.3539 -0.2045  0.5349
  944TIP3    H124247   2.237   5.898   5.587  2.1680 -0.3756  2.1418
  944TIP3    H224248   2.106   5.842   5.640  0.1399  2.4796  0.4000
  945TIP3   OH224249   1.944   0.396   0.682 -0.1991 -0.3623  0.3453
  945TIP3    H124250   1.869   0.399   0.622 -0.0578  0.9083  0.2061
  945TIP3    H224251   1.922   0.459   0.751  1.1301  0.6999 -0.1763
  946TIP3   OH224252   3.347   1.595   4.555  0.1927  0.3627  0.2450
  946TIP3    H124253   3.382   1.506   4.561 -0.3833  0.1594  0.6671
  946TIP3    H224254   3.272   1.596   4.615  0.5679  1.3104  0.7232
  947TIP3   OH224255   0.153   3.410   6.216 -0.0954 -0.7903  0.1357
  947TIP3    H124256   0.235   3.437   6.256 -1.0157  2.6522  0.0342
  947TIP3    H224257   0.117   3.345   6.277  1.9878 -1.2503  0.9358
  948TIP3   OH224258   2.844   3.499   2.309  0.0418  0.9708  0.1744
  948TIP3    H124259   2.896   3.479   2.231 -0.7599  3.4436 -1.0998
  948TIP3    H224260   2.756   3.517   2.275 -0.4909  1.4530  1.7415
  949TIP3   OH224261   1.397   5.093  11.989 -0.3923  0.1648  0.4312
  949TIP3    H124262   1.436   5.154  11.926  1.7199 -0.9586  0.5301
  949TIP3    H224263   1.430   5.007  11.962 -1.2022 -0.6052  1.7822
  950TIP3   OH224264   1.333   4.310   6.110  0.0195 -0.2868 -0.3942
  950TIP3    H124265   1.318   4.216   6.117 -0.3709 -0.2682 -0.9050
  950TIP3    H224266   1.327   4.328   6.016  2.8007 -0.2038 -0.6569
  951TIP3   OH224267   2.537   2.387   6.074 -0.5225  0.0872  0.0266
  951TIP3    H124268   2.526   2.482   6.081  2.3204  0.3538  2.5889
  951TIP3    H224269   2.510   2.353   6.159  1.6443 -0.9610  0.3722
  952TIP3   OH224270   1.274   3.904  15.592 -0.3597  0.5611 -0.2669
  952TIP3    H124271   1.187   3.930  15.562 -1.6106 -1.0309  1.7058
  952TIP3    H224272   1.273   3.809  15.587  1.7531  0.5370 -1.3106
  953TIP3   OH224273   0.124   1.015   5.524  0.0645  0.2627  0.0245
  953TIP3    H124274   0.091   1.088   5.472  0.7243 -0.5821 -1.6669
  953TIP3    H224275   0.174   0.962   5.462  1.1041 -0.6838  1.5894
  954TIP3   OH224276   5.826   5.681   0.979 -0.3674  0.1312  0.1443
  954TIP3    H124277   5.777   5.710   1.055 -0.9677 -1.5097  0.4299
  954TIP3    H224278   5.916   5.671   1.011 -0.2804  1.0215  0.1942
  955TIP3   OH224279   6.030   1.889  11.712  0.0223 -0.0135  0.7552
  955TIP3    H124280   6.101   1.942  11.675  1.3746 -1.4939  1.1361
  955TIP3    H224281   6.041   1.803  11.671 -0.8461 -0.5907  1.6961
  956TIP3   OH224282   4.426   0.009  16.994 -0.3600  0.1749  0.3125
  956TIP3    H124283   4.517   0.011  17.021 -0.9656  1.4149  2.4864
  956TIP3    H224284   4.427   0.036  16.902  1.2857  2.3238  0.8883
  957TIP3   OH224285   1.379   5.939   2.215 -0.0392  0.6442 -0.0400
  957TIP3    H124286   1.442   5.896   2.274 -0.1985 -0.3876 -0.5946
  957TIP3    H224287   1.310   5.874   2.203  0.8131  0.1455 -2.7063
  958TIP3   OH224288   2.212   2.989   4.959 -0.2279 -0.3227 -0.5363
  958TIP3    H124289   2.293   3.024   4.996 -0.2144 -0.1845 -0.6954
  958TIP3    H224290   2.164   3.066   4.929 -2.0144 -0.0272  2.6616
  959TIP3   OH224291   4.021   4.066   2.587 -0.1918 -0.2411  0.2040
  959TIP3    H124292   3.957   4.129   2.554 -0.6701 -0.5799  0.4734
  959TIP3    H224293   4.069   4.114   2.654 -0.2889 -0.0455  0.1353
  960TIP3   OH224294   4.631   2.020   3.080  0.1532 -0.1626 -0.4543
  960TIP3    H124295   4.676   2.073   3.146  0.4602  0.1042 -0.8762
  960TIP3    H224296   4.699   1.998   3.016  0.6591 -3.1932  0.9705
  961TIP3   OH224297   3.836   5.239   1.695 -0.0087 -0.0842  0.1692
  961TIP3    H124298   3.779   5.172   1.656  0.0595  0.0956 -0.2489
  961TIP3    H224299   3.924   5.202   1.688 -0.0340 -0.2001  0.4699
  962TIP3   OH224300   6.601   6.098  11.512  0.2201  0.2288 -0.2085
  962TIP3    H124301   6.578   6.010  11.539  1.0585  0.1828  0.4100
  962TIP3    H224302   6.619   6.090  11.418 -1.3121  0.0959 -0.5087
  963TIP3   OH224303   0.472   0.956  11.693  0.2054 -0.3136 -0.1932
  963TIP3    H124304   0.556   0.951  11.649  0.5407  0.8191  0.2833
  963TIP3    H224305   0.476   0.889  11.761  0.4922 -0.6362 -0.5247
  964TIP3   OH224306   2.818   5.536   5.533  0.4698  0.0492 -0.5745
  964TIP3    H124307   2.834   5.442   5.524 -1.0104 -0.0130 -3.6920
  964TIP3    H224308   2.723   5.545   5.532  0.3689  1.4165  3.4682
  965TIP3   OH224309   2.755   6.205   0.271  0.0714 -0.1877 -0.2488
  965TIP3    H124310   2.757   6.140   0.201  1.2586 -0.4491  0.0097
  965TIP3    H224311   2.785   6.158   0.349  2.3899  0.9615 -0.3470
  966TIP3   OH224312   1.362   3.530   0.658  0.0681  0.2013  0.3166
  966TIP3    H124313   1.404   3.460   0.708 -0.8380  0.1884  1.0828
  966TIP3    H224314   1.268   3.515   0.669 -0.1446  0.9446 -0.3519
  967TIP3   OH224315   6.511   3.727   2.098 -0.4178  0.1149  0.4344
  967TIP3    H124316   6.494   3.767   2.184  2.6748  0.5267  0.9429
  967TIP3    H224317   6.523   3.634   2.117 -1.9606 -0.1839  0.0688
  968TIP3   OH224318   3.027   0.697  16.202 -0.6929  0.1419 -0.4957
  968TIP3    H124319   3.079   0.721  16.126  0.2639  0.5724  0.2773
  968TIP3    H224320   3.035   0.771  16.262 -0.3599 -0.7235  0.5616
  969TIP3   OH224321   0.893   6.699   5.397  0.3633  0.4304 -0.3558
  969TIP3    H124322   0.890   6.628   5.332  0.6998  1.0126 -1.0129
  969TIP3    H224323   0.801   6.723   5.410  0.1973 -0.5018  0.2989
  970TIP3   OH224324   1.448   4.014  13.584 -0.4434  0.3240 -0.1049
  970TIP3    H124325   1.512   4.054  13.525  0.3912 -0.6401  0.1179
  970TIP3    H224326   1.473   4.045  13.671  0.7443 -1.2983  0.1751
  971TIP3   OH224327   2.495   4.776   1.867 -0.0105 -0.7407 -0.4122
  971TIP3    H124328   2.427   4.768   1.934  1.5092 -2.3471  1.0566
  971TIP3    H224329   2.448   4.793   1.786 -1.9744  0.6722  0.9416
  972TIP3   OH224330   2.174   6.147  13.728 -0.2337  0.2486 -0.3762
  972TIP3    H124331   2.109   6.089  13.690 -0.9548  0.2763  0.8041
  972TIP3    H224332   2.238   6.089  13.769 -0.7803  0.2783  0.5197
  973TIP3   OH224333   2.177   3.624   5.446  0.1114  0.3786 -0.2760
  973TIP3    H124334   2.095   3.594   5.407  1.2904 -2.0744 -1.0510
  973TIP3    H224335   2.155   3.709   5.484 -2.6640  0.0084 -0.8110
  974TIP3   OH224336   1.940   6.513   5.540 -0.4726 -0.1459  0.4025
  974TIP3    H124337   2.005   6.523   5.609  0.2536 -2.0401  0.0611
  974TIP3    H224338   1.991   6.499   5.460 -1.3023 -0.1530 -0.1445
  975TIP3   OH224339   1.041   4.476   4.487  1.1197 -0.4807 -0.1437
  975TIP3    H124340   1.007   4.562   4.464 -0.8801 -0.9297  0.8905
  975TIP3    H224341   1.129   4.493   4.520 -0.1141  1.5442  2.4440
  976TIP3   OH224342   2.970   4.907   5.689  0.8664  0.2481  0.0701
  976TIP3    H124343   2.885   4.950   5.684  0.6565 -0.2884 -1.2623
  976TIP3    H224344   2.974   4.852   5.611  1.2571 -1.8866  1.5021
  977TIP3   OH224345   6.577   6.550   0.537 -0.1565 -0.3846  0.1088
  977TIP3    H124346   6.587   6.628   0.483  1.8380 -1.1167 -0.6808
  977TIP3    H224347   6.513   6.496   0.491 -0.5686  0.2162 -0.0252
  978TIP3   OH224348   5.129   0.631  15.037 -0.1571  0.1227  0.0722
  978TIP3    H124349   5.134   0.536  15.051  0.5783  0.3357  1.3293
  978TIP3    H224350   5.186   0.646  14.962 -2.8689 -0.8141 -2.3862
  979TIP3   OH224351   5.026   1.342   3.816 -0.2645 -0.0889  0.7935
  979TIP3    H124352   4.962   1.344   3.887 -1.7471  0.6851 -0.5150
  979TIP3    H224353   4.989   1.282   3.752 -0.6075  1.7413 -0.7896
  980TIP3   OH224354   5.326   3.004  12.057 -0.0150  0.4775  0.2819
  980TIP3    H124355   5.277   3.077  12.020  0.9204  1.2444  0.5127
  980TIP3    H224356   5.365   3.039  12.137  0.0184 -0.4356  0.6837
  981TIP3   OH224357   2.455   2.317  16.882  0.0234  0.3008 -0.4307
  981TIP3    H124358   2.393   2.390  16.886  0.4947  0.6472  0.7166
  981TIP3    H224359   2.426   2.257  16.950  0.2218 -0.1285 -0.7176
  982TIP3   OH224360   0.278   3.287  12.051 -0.0095 -0.1753  0.4897
  982TIP3    H124361   0.270   3.376  12.017 -3.4773  0.6551  2.9146
  982TIP3    H224362   0.334   3.296  12.128  1.1638 -0.5403 -0.2803
  983TIP3   OH224363   0.748   4.831   1.984  0.1360 -0.7133  0.6380
  983TIP3    H124364   0.655   4.845   1.968  0.6083  2.3159 -0.1039
  983TIP3    H224365   0.767   4.882   2.063  1.5585  0.8363 -0.6105
  984TIP3   OH224366   3.085   5.191   2.308  0.7420 -0.0098 -0.1969
  984TIP3    H124367   3.163   5.214   2.257  0.0922 -0.1082 -1.2604
  984TIP3    H224368   3.083   5.256   2.378  2.2062 -0.4741  0.3227
  985TIP3   OH224369   5.874   5.878   5.403  0.2286 -0.0115 -0.1189
  985TIP3    H124370   5.823   5.803   5.434 -1.2367  0.8186 -0.4654
  985TIP3    H224371   5.810   5.946   5.387  1.5024  1.2178 -0.1687
  986TIP3   OH224372   0.538   2.058  14.822  0.1244  0.5064  0.0868
  986TIP3    H124373   0.620   2.081  14.866 -0.3463 -0.6296  1.6451
  986TIP3    H224374   0.510   2.139  14.779  1.3941  1.2507  0.6185
  987TIP3   OH224375   4.639   6.402  10.727 -0.3076 -0.4514 -0.6021
  987TIP3    H124376   4.633   6.486  10.773 -0.0331 -0.8311  0.1472
  987TIP3    H224377   4.558   6.356  10.752  0.8951 -1.5940  1.4370
  988TIP3   OH224378   4.330   2.053   1.169  0.0723  0.0651 -0.4928
  988TIP3    H124379   4.411   2.061   1.220  0.4427  1.0758 -1.2327
  988TIP3    H224380   4.278   2.130   1.193  0.7221  1.1550 -2.4595
  989TIP3   OH224381   0.647   5.732   6.714  0.2424 -0.0816  0.1459
  989TIP3    H124382   0.617   5.792   6.783  0.9922  0.4494  0.0228
  989TIP3    H224383   0.703   5.669   6.760 -1.5997 -1.5368  0.5079
  990TIP3   OH224384   0.166   3.467   4.211  0.2737 -0.0735  0.1143
  990TIP3    H124385   0.198   3.466   4.301 -1.0785 -0.5277  0.6261
  990TIP3    H224386   0.086   3.414   4.214 -1.2168  1.9968 -0.7997
  991TIP3   OH224387   3.697   1.965   1.807  0.0689 -0.1338  0.1181
  991TIP3    H124388   3.711   1.873   1.784  0.3876  0.0120 -0.2914
  991TIP3    H224389   3.646   1.962   1.888 -1.7671 -0.6579 -1.0190
  992TIP3   OH224390   4.099   5.256   4.770 -0.0911 -0.4594 -0.1860
  992TIP3    H124391   4.024   5.202   4.793 -0.0526  0.0459  1.1908
  992TIP3    H224392   4.115   5.310   4.847  0.1606  1.2076 -1.3590
  993TIP3   OH224393   4.198   2.619  12.502  0.1930 -0.6852  0.0648
  993TIP3    H124394   4.251   2.587  12.429 -0.4213  1.0214 -1.2167
  993TIP3    H224395   4.186   2.712  12.483 -0.9015 -0.4344  1.7974
  994TIP3   OH224396   1.557   2.259  10.593  0.1734  0.1404 -0.2836
  994TIP3    H124397   1.620   2.331  10.596  0.4398 -0.0505 -1.0952
  994TIP3    H224398   1.604   2.187  10.551 -0.9109  0.3395 -1.9015
  995TIP3   OH224399   6.531   1.698   5.915 -0.4618  0.3945 -0.5289
  995TIP3    H124400   6.531   1.786   5.877 -0.6274  1.8068  2.4923
  995TIP3    H224401   6.624   1.678   5.926 -0.4413  0.6705 -0.1941
  996TIP3   OH224402   0.053   6.542  14.905  0.3216 -0.4044 -0.0975
  996TIP3    H124403   0.040   6.558  14.999  0.7626 -0.9740  0.0752
  996TIP3    H224404   0.138   6.497  14.901  1.5727  1.8880 -1.0080
  997TIP3   OH224405   2.008   5.115  10.598  0.1944  0.4197  0.0237
  997TIP3    H124406   1.970   5.037  10.557  1.6085 -0.0657 -0.4285
  997TIP3    H224407   2.035   5.169  10.524  1.0668  0.3997  0.3202
  998TIP3   OH224408   1.203   5.772  14.464  0.7380 -0.0793 -0.5180
  998TIP3    H124409   1.223   5.693  14.413  1.3025 -0.0978 -0.2816
  998TIP3    H224410   1.289   5.805  14.491  0.4640  0.0640  0.2193
  999TIP3   OH224411   3.011   4.070  17.047  0.0180  0.4197 -0.4257
  999TIP3    H124412   3.065   4.012  17.102 -0.3498  0.6266  0.1575
  999TIP3    H224413   2.946   4.011  17.008  1.4908 -0.0967 -2.2600
 1000TIP3   OH224414   1.122   3.846   3.588 -0.5783 -0.0032  0.1503
 1000TIP3    H124415   1.093   3.798   3.665 -1.0065  0.3192  0.1915
 1000TIP3    H224416   1.212   3.874   3.609 -0.9595  0.7414  0.8441
 1001TIP3   OH224417   4.495   5.889  14.733  0.6111  0.4791  0.5413
 1001TIP3    H124418   4.509   5.979  14.763 -1.1022  0.4508  1.5171
 1001TIP3    H224419   4.584   5.856  14.718  1.2935  2.2232  0.4237
 1002TIP3   OH224420   0.104   0.139   4.495  0.2727  0.9544 -0.3101
 1002TIP3    H124421   0.081   0.066   4.437  1.5822  1.4018 -1.4409
 1002TIP3    H224422   0.039   0.206   4.476 -0.0889  0.6180 -0.2854
 1003TIP3   OH224423   5.710   6.170   1.925 -0.2239  0.0053  0.2428
 1003TIP3    H124424   5.674   6.081   1.927 -0.3260  0.0495  0.4297
 1003TIP3    H224425   5.733   6.188   2.016 -1.3703  0.6485  0.4224
 1004TIP3   OH224426   1.898   4.939  16.017 -0.0273 -0.5877  0.6201
 1004TIP3    H124427   1.896   4.844  16.033  0.2413 -0.7069 -0.0224
 1004TIP3    H224428   1.927   4.947  15.927  2.7265  0.1742  1.4847
 1005TIP3   OH224429   3.560   4.734   4.401 -0.1331 -0.4319 -0.6056
 1005TIP3    H124430   3.638   4.690   4.434 -0.2658  0.6370  1.2840
 1005TIP3    H224431   3.528   4.785   4.475 -0.5967  2.0099 -2.3837
 1006TIP3   OH224432   0.743   1.309  10.938  0.3995  0.0092 -0.0050
 1006TIP3    H124433   0.730   1.214  10.941 -0.7557  0.1706  2.6085
 1006TIP3    H224434   0.657   1.346  10.957  1.1037  1.5475  0.4008
 1007TIP3   OH224435   0.776   6.599  13.357 -0.0992  0.2777 -0.0128
 1007TIP3    H124436   0.681   6.604  13.343 -0.1453 -1.3908 -0.5167
 1007TIP3    H224437   0.804   6.690  13.368 -1.6962  0.8212 -0.2461
 1008TIP3   OH224438   4.834   2.818  13.282 -0.2893  0.3505  0.2091
 1008TIP3    H124439   4.764   2.753  13.286  0.3978 -0.3779  0.5525
 1008TIP3    H224440   4.834   2.858  13.369  0.4534 -0.4451  0.5914
 1009TIP3   OH224441   0.181   0.680   5.930  0.1944  0.6259 -0.3546
 1009TIP3    H124442   0.274   0.692   5.950  0.1165  1.6689 -0.6085
 1009TIP3    H224443   0.169   0.718   5.844  0.3058 -2.9820 -2.1482
 1010TIP3   OH224444   0.527   1.485  12.995 -0.0716 -0.1548 -0.5015
 1010TIP3    H124445   0.565   1.416  13.050  0.9231  1.7270  1.2990
 1010TIP3    H224446   0.592   1.498  12.926  0.5878  0.1618  0.1634
 1011TIP3   OH224447   6.265   3.264  11.494 -0.2376 -0.2847  0.1094
 1011TIP3    H124448   6.302   3.348  11.466  0.4687 -0.2167  1.2225
 1011TIP3    H224449   6.260   3.212  11.413  0.1977  0.4884 -0.4242
 1012TIP3   OH224450   1.241   6.113   1.644  0.4101 -0.2795  0.3273
 1012TIP3    H124451   1.146   6.097   1.645  0.3252  0.0736 -0.6911
 1012TIP3    H224452   1.279   6.037   1.688 -0.5586  1.4573  4.6580
 1013TIP3   OH224453   5.862   0.838  13.296  0.4564  0.3136 -0.0923
 1013TIP3    H124454   5.818   0.923  13.300 -0.9106 -0.2541 -1.7243
 1013TIP3    H224455   5.825   0.788  13.369 -0.6622  0.2965 -0.6505
 1014TIP3   OH224456   4.909   3.307  12.147  0.3271 -0.4550 -0.1187
 1014TIP3    H124457   4.880   3.262  12.226  0.7961  0.5436  0.6324
 1014TIP3    H224458   4.997   3.337  12.167  0.7098 -0.7507 -1.2639
 1015TIP3   OH224459   1.621   5.174   3.834  0.3666  0.0076  0.0100
 1015TIP3    H124460   1.576   5.190   3.751  0.9962 -0.8116 -0.5004
 1015TIP3    H224461   1.711   5.155   3.810 -0.1632 -4.1183  0.4584
 1016TIP3   OH224462   0.868   4.788  10.363  0.0546 -0.5723  0.7196
 1016TIP3    H124463   0.795   4.781  10.425 -0.2313 -1.0972  0.3239
 1016TIP3    H224464   0.926   4.854  10.402 -1.0410  0.4776  0.6219
 1017TIP3   OH224465   3.018   5.244  12.066  0.0212  0.4663  0.0729
 1017TIP3    H124466   3.032   5.327  12.112 -1.9665  1.7969 -1.5269
 1017TIP3    H224467   3.062   5.256  11.981  0.8440 -0.6560  0.3249
 1018TIP3   OH224468   1.095   4.410  12.063  0.7172 -0.3458 -0.1600
 1018TIP3    H124469   1.164   4.432  12.125  0.8449 -1.0641 -0.0444
 1018TIP3    H224470   1.112   4.466  11.987  0.1493  1.0658  0.7113
 1019TIP3   OH224471   0.394   0.610   3.853 -0.0964 -0.5536  0.1916
 1019TIP3    H124472   0.433   0.697   3.847 -1.6504  0.1952  0.4835
 1019TIP3    H224473   0.306   0.625   3.887 -0.1287 -2.3260  1.0088
 1020TIP3   OH224474   5.372   1.681   1.098 -0.0855  0.0560  0.2862
 1020TIP3    H124475   5.421   1.762   1.114  0.1780 -0.0078 -0.1858
 1020TIP3    H224476   5.285   1.711   1.072  0.5609  0.2682 -1.8452
 1021TIP3   OH224477   4.087   5.873   3.685 -0.7190 -0.2426  0.2662
 1021TIP3    H124478   4.153   5.881   3.754  1.7389 -2.4595 -1.5733
 1021TIP3    H224479   4.082   5.779   3.668 -0.2818  0.2017 -3.2594
 1022TIP3   OH224480   0.928   5.754  11.711 -0.7978 -0.3697  0.4610
 1022TIP3    H124481   0.895   5.681  11.763  0.4490 -1.5990 -0.4116
 1022TIP3    H224482   0.851   5.785  11.663 -1.4940 -0.6237  1.3774
 1023TIP3   OH224483   6.385   3.823   1.588 -0.3251  0.9013  0.3784
 1023TIP3    H124484   6.309   3.880   1.603  1.1256  2.3730  2.8630
 1023TIP3    H224485   6.442   3.839   1.663  1.6489 -1.5141 -0.4613
 1024TIP3   OH224486   5.590   1.893  11.174 -0.6159  0.3292 -0.4808
 1024TIP3    H124487   5.539   1.822  11.134 -0.2814  0.5248 -1.2580
 1024TIP3    H224488   5.680   1.876  11.147 -0.3419  0.3236  0.4062
 1025TIP3   OH224489   5.652   4.204   0.057 -0.6106  0.8563 -0.4728
 1025TIP3    H124490   5.745   4.226   0.045 -0.7561  1.3114 -0.7891
 1025TIP3    H224491   5.643   4.117   0.018 -0.5975  1.3720 -1.6676
 1026TIP3   OH224492   0.513   3.997   3.710 -0.2524  0.2345 -0.5978
 1026TIP3    H124493   0.558   3.965   3.632  3.6096  0.2479  1.3562
 1026TIP3    H224494   0.545   3.941   3.781 -1.2834  2.0125  1.4105
 1027TIP3   OH224495   1.764   2.324   1.752  0.2359 -0.8148 -0.7179
 1027TIP3    H124496   1.775   2.399   1.694  1.6733 -0.2449  0.2359
 1027TIP3    H224497   1.801   2.251   1.704  1.5441 -0.3231 -0.5059
 1028TIP3   OH224498   2.091   5.749  14.361  0.6271 -0.2409 -1.1007
 1028TIP3    H124499   2.092   5.756  14.456  0.2122  0.5912 -1.1478
 1028TIP3    H224500   2.152   5.816  14.331 -1.3608  1.4979 -1.4960
 1029TIP3   OH224501   6.527   2.602  11.970  0.0237 -0.3591 -0.2899
 1029TIP3    H124502   6.501   2.644  11.888  1.8160 -1.8967 -1.7408
 1029TIP3    H224503   6.462   2.534  11.984 -0.7865  0.4739  0.0688
 1030TIP3   OH224504   1.773   4.433   3.189 -0.3881 -0.1774  0.2177
 1030TIP3    H124505   1.803   4.486   3.115  0.0022 -0.8803 -0.1489
 1030TIP3    H224506   1.792   4.486   3.266  1.1940 -0.3004 -0.0487
 1031TIP3   OH224507   6.257   6.387  16.900 -0.5164  0.4766 -0.3560
 1031TIP3    H124508   6.289   6.412  16.814 -1.1192  0.3808 -0.6165
 1031TIP3    H224509   6.327   6.334  16.938  0.0988  1.2209 -0.4409
 1032TIP3   OH224510   1.861   5.815  10.957 -0.0439  1.2090 -0.5511
 1032TIP3    H124511   1.808   5.801  10.879 -1.5936  1.3451  0.4270
 1032TIP3    H224512   1.915   5.891  10.936 -0.1093  0.9786 -1.6292
 1033TIP3   OH224513   6.528   3.206   1.751  0.1174  0.2723 -0.1473
 1033TIP3    H124514   6.607   3.221   1.700  0.8285  1.4702  1.2243
 1033TIP3    H224515   6.461   3.261   1.709  0.8374  1.6852  0.4855
 1034TIP3   OH224516   5.218   5.148   0.386 -0.3672 -0.2922 -0.6394
 1034TIP3    H124517   5.293   5.123   0.440 -0.9706 -1.0687 -0.1457
 1034TIP3    H224518   5.251   5.219   0.330  0.4398  0.0935  0.3059
 1035TIP3   OH224519   2.942   2.996  13.255 -0.7323 -0.2665  0.1908
 1035TIP3    H124520   2.902   3.033  13.334  0.2212  1.2015  0.0246
 1035TIP3    H224521   2.898   3.040  13.182  0.1571  0.2946 -0.0220
 1036TIP3   OH224522   5.923   0.773  12.051  0.5525 -0.2766 -0.2246
 1036TIP3    H124523   5.870   0.778  12.130  1.7761 -0.2174  0.6116
 1036TIP3    H224524   5.923   0.862  12.017  0.0913 -0.2848 -0.2538
 1037TIP3   OH224525   5.658   3.522  11.418 -0.4184  0.2717 -0.0838
 1037TIP3    H124526   5.730   3.584  11.407  0.1815 -0.4771 -0.5639
 1037TIP3    H224527   5.584   3.575  11.447  0.4848  0.9731  1.0031
 1038TIP3   OH224528   2.552   0.742  14.248 -0.0539 -0.1296  0.1748
 1038TIP3    H124529   2.623   0.757  14.311  0.6730  0.0343 -0.6600
 1038TIP3    H224530   2.472   0.761  14.296  0.3626 -1.6329  1.5619
 1039TIP3   OH224531   6.531   2.900   3.176 -0.2918  0.3623  0.2524
 1039TIP3    H124532   6.490   2.905   3.262  0.0719 -0.9883  0.5256
 1039TIP3    H224533   6.617   2.941   3.187 -0.7951  1.4763  0.1563
 1040TIP3   OH224534   2.746   2.462   4.338  0.2520  0.1784  0.4229
 1040TIP3    H124535   2.802   2.425   4.268  0.1189 -1.6561  1.2148
 1040TIP3    H224536   2.806   2.511   4.393  0.7121 -0.0045  0.0929
 1041TIP3   OH224537   0.331   1.743  16.423  0.0399  0.3769 -0.1405
 1041TIP3    H124538   0.309   1.737  16.516 -1.7440 -0.0374 -0.5591
 1041TIP3    H224539   0.307   1.658  16.387  0.3129  0.6796 -1.0667
 1042TIP3   OH224540   4.436   3.257  14.847 -0.1423  0.0194 -0.3665
 1042TIP3    H124541   4.463   3.337  14.803 -1.0683  1.0451  0.8631
 1042TIP3    H224542   4.341   3.264  14.855 -0.0347 -0.2173  1.5610
 1043TIP3   OH224543   0.823   3.395  11.292  0.7322 -0.0066 -0.0994
 1043TIP3    H124544   0.880   3.425  11.362 -1.0438  0.4900  1.1947
 1043TIP3    H224545   0.784   3.475  11.257 -3.7493 -0.4158  3.1143
 1044TIP3   OH224546   4.569   4.748  14.457  0.5707 -0.2528  0.4770
 1044TIP3    H124547   4.519   4.766  14.537 -1.3042 -0.3706 -0.6131
 1044TIP3    H224548   4.613   4.831  14.438  0.3330  0.0390  1.1481
 1045TIP3   OH224549   3.914   0.935  13.011 -0.4671 -0.0398 -0.1797
 1045TIP3    H124550   3.970   0.978  12.947 -1.1645  2.5496  0.7922
 1045TIP3    H224551   3.974   0.890  13.070  0.2401 -1.4033 -1.8827
 1046TIP3   OH224552   6.002   3.587   2.013  0.3193  0.1769 -0.2901
 1046TIP3    H124553   5.981   3.595   1.920 -0.9114 -0.6044 -0.1092
 1046TIP3    H224554   5.930   3.535   2.049  1.0621 -0.0000  0.9965
 1047TIP3   OH224555   3.610   2.954  12.224  0.3336  0.3015  0.0979
 1047TIP3    H124556   3.673   2.894  12.184  0.9619  1.9772 -1.6210
 1047TIP3    H224557   3.662   3.008  12.283  0.4831  1.3604 -0.9520
 1048TIP3   OH224558   0.583   0.643   0.262 -0.2044  0.8092  0.0839
 1048TIP3    H124559   0.676   0.645   0.241 -0.2607 -0.4339 -0.3335
 1048TIP3    H224560   0.539   0.639   0.178 -0.6839  2.1147  0.2490
 1049TIP3   OH224561   2.635   0.310   1.089 -0.0481 -0.0858 -0.0999
 1049TIP3    H124562   2.637   0.364   1.010  0.5248  0.1584  0.0682
 1049TIP3    H224563   2.713   0.254   1.082  0.0311 -0.0347  0.3012
 1050TIP3   OH224564   0.757   5.453  14.494  0.3146  0.4667  0.2672
 1050TIP3    H124565   0.840   5.405  14.499  0.3392  0.5019  0.1991
 1050TIP3    H224566   0.691   5.384  14.482  0.4903  0.5332 -1.2979
 1051TIP3   OH224567   1.456   6.168  14.492 -0.3547 -0.4552  0.5013
 1051TIP3    H124568   1.458   6.256  14.530 -0.0184 -0.5639  0.7401
 1051TIP3    H224569   1.369   6.162  14.452 -0.1088  0.2557 -0.1704
 1052TIP3   OH224570   1.318   5.904   1.320  0.3065 -0.2699 -0.2824
 1052TIP3    H124571   1.256   5.977   1.326  1.4024  0.5944  1.8217
 1052TIP3    H224572   1.398   5.944   1.285  0.9707 -0.3487  1.0462
 1053TIP3   OH224573   0.655   4.685  15.863  0.2755 -0.1539 -0.1084
 1053TIP3    H124574   0.681   4.595  15.843  0.4701 -0.0776 -0.2150
 1053TIP3    H224575   0.668   4.732  15.780 -3.4352 -0.7832 -1.1968
 1054TIP3   OH224576   4.298   6.124   4.246  0.6982 -0.3268 -0.1269
 1054TIP3    H124577   4.354   6.147   4.172 -0.2104  0.5868 -0.5494
 1054TIP3    H224578   4.271   6.208   4.283 -1.5974 -0.6985 -0.8497
 1055TIP3   OH224579   5.536   5.068   4.010 -0.1472 -0.2116  0.0914
 1055TIP3    H124580   5.577   5.042   3.927 -0.4373 -0.7443  0.1101
 1055TIP3    H224581   5.514   5.161   3.997  0.2391 -0.1645 -0.2515
 1056TIP3   OH224582   5.886   2.236   3.583  0.4032  0.2513 -0.3012
 1056TIP3    H124583   5.922   2.184   3.655  0.7567 -1.9966 -2.0219
 1056TIP3    H224584   5.841   2.309   3.627  1.8332 -0.2071  2.1248
 1057TIP3   OH224585   5.035   5.751  12.448  0.0367 -0.0167  0.4550
 1057TIP3    H124586   5.077   5.827  12.489  0.4535 -0.0071  0.0110
 1057TIP3    H224587   4.946   5.751  12.484 -0.4093  1.4828 -0.5859
 1058TIP3   OH224588   1.597   3.691   0.230 -0.4634  0.4207 -0.1078
 1058TIP3    H124589   1.600   3.670   0.323 -0.4349 -0.8985 -0.3942
 1058TIP3    H224590   1.641   3.618   0.187  0.3678  1.4607 -1.0994
 1059TIP3   OH224591   6.385   5.096  16.197 -0.0011 -0.7053 -0.2907
 1059TIP3    H124592   6.439   5.024  16.166  0.7858 -0.4436  0.4205
 1059TIP3    H224593   6.319   5.109  16.129 -0.0718 -1.9967 -0.4901
 1060TIP3   OH224594   1.408   3.848  15.008  0.0354 -0.8967 -0.1276
 1060TIP3    H124595   1.339   3.827  15.071  0.0210 -1.0250 -0.1864
 1060TIP3    H224596   1.375   3.817  14.924  0.8728 -2.5239  0.1001
 1061TIP3   OH224597   0.011   2.611  17.136 -0.1425 -0.2263  0.2018
 1061TIP3    H124598   0.082   2.639  17.194  0.3334 -0.1972 -0.3816
 1061TIP3    H224599  -0.021   2.693  17.097  0.5776 -0.3704 -0.7419
 1062TIP3   OH224600   4.591   5.747   2.688  0.0738 -0.3208  0.2578
 1062TIP3    H124601   4.561   5.827   2.732 -1.1980 -0.1812 -0.7710
 1062TIP3    H224602   4.520   5.684   2.702  0.0050 -0.5214 -0.8738
 1063TIP3   OH224603   5.693   0.175  15.131 -0.0995 -0.0221 -0.7027
 1063TIP3    H124604   5.647   0.097  15.163  1.0043 -0.9709 -1.3021
 1063TIP3    H224605   5.632   0.247  15.145 -1.6827 -1.1733 -1.2921
 1064TIP3   OH224606   3.902   4.477  16.753  0.1554  0.1720  1.0068
 1064TIP3    H124607   3.924   4.566  16.726 -0.7607  0.4574  1.1818
 1064TIP3    H224608   3.829   4.487  16.813  0.8064 -0.6205  1.9632
 1065TIP3   OH224609   0.450   6.741   2.195  0.1343 -0.5064  0.1751
 1065TIP3    H124610   0.357   6.720   2.193  0.4436 -2.0382  0.2291
 1065TIP3    H224611   0.464   6.783   2.280 -0.3765 -0.9965  0.5079
 1066TIP3   OH224612   5.257   3.914  14.676 -0.2489  0.1046  1.3487
 1066TIP3    H124613   5.253   4.008  14.694 -0.0472  1.1611 -3.0463
 1066TIP3    H224614   5.243   3.907  14.581  0.4290 -4.2840  1.3722
 1067TIP3   OH224615   3.864   3.779  15.246 -0.6462  0.5438  0.4174
 1067TIP3    H124616   3.812   3.837  15.189  0.6690  1.4592  0.0951
 1067TIP3    H224617   3.912   3.839  15.303 -1.3143 -0.3493  1.9547
 1068TIP3   OH224618   0.339   1.735   4.706 -0.2052 -0.2570  0.2709
 1068TIP3    H124619   0.387   1.775   4.633 -0.0195 -0.1292  0.4623
 1068TIP3    H224620   0.353   1.641   4.694 -0.5676 -0.2667 -0.1276
 1069TIP3   OH224621   5.326   1.712  13.938 -0.2153  0.5646 -0.2176
 1069TIP3    H124622   5.306   1.663  14.017  1.9026  1.2458  0.8229
 1069TIP3    H224623   5.322   1.804  13.965 -2.7856  1.0154 -1.7900
 1070TIP3   OH224624   1.339   0.549   2.733  0.6513 -0.2340 -0.1319
 1070TIP3    H124625   1.279   0.527   2.662  1.3916 -0.0377 -0.8369
 1070TIP3    H224626   1.423   0.511   2.705  1.0902  0.3606  0.3539
 1071TIP3   OH224627   1.972   0.748   1.103 -0.4794 -0.0667 -0.2143
 1071TIP3    H124628   1.890   0.798   1.107  0.1752  0.9877  1.2743
 1071TIP3    H224629   2.016   0.768   1.186  0.4070 -2.1576 -0.1194
 1072TIP3   OH224630   5.240   4.803  11.662 -0.0287  0.3411  0.0719
 1072TIP3    H124631   5.215   4.871  11.600 -0.1262 -1.0720 -1.5157
 1072TIP3    H224632   5.330   4.826  11.688  1.1862 -0.5498 -2.9247
 1073TIP3   OH224633   4.489   0.980   0.670 -0.4766 -0.2442 -0.4073
 1073TIP3    H124634   4.436   1.012   0.597 -1.9918 -1.6930  0.0090
 1073TIP3    H224635   4.504   0.888   0.650  0.1959 -0.3395  0.4769
 1074TIP3   OH224636   0.602   1.680  16.841 -0.6893 -0.5774  0.9240
 1074TIP3    H124637   0.592   1.767  16.804 -1.7218 -0.9769  0.1908
 1074TIP3    H224638   0.592   1.692  16.935 -1.1627  0.0497  0.7971
 1075TIP3   OH224639   1.975   0.240   1.445 -0.4879 -0.4717  0.2840
 1075TIP3    H124640   1.924   0.162   1.467  0.2592 -0.9267  0.4153
 1075TIP3    H224641   2.016   0.219   1.361 -0.7043 -0.0139  0.0597
 1076TIP3   OH224642   5.550   3.021   2.728 -0.3854 -0.1483  0.0721
 1076TIP3    H124643   5.456   3.039   2.725  0.1880  4.1758  0.8460
 1076TIP3    H224644   5.574   3.039   2.819  1.2689 -0.6052 -0.2550
 1077TIP3   OH224645   5.237   4.877   5.913 -0.0626  0.4038  0.1124
 1077TIP3    H124646   5.194   4.792   5.924 -0.8683  0.7625 -0.2206
 1077TIP3    H224647   5.232   4.895   5.819  1.6220  0.0499 -0.0862
 1078TIP3   OH224648   6.427   5.459  12.946 -0.3996 -0.0242  0.6737
 1078TIP3    H124649   6.384   5.544  12.950  0.0687  0.2089  0.8693
 1078TIP3    H224650   6.399   5.421  12.863  0.2357  0.7802  0.0736
 1079TIP3   OH224651   6.288   3.955  14.241  0.0834  0.6046  0.0579
 1079TIP3    H124652   6.335   3.927  14.162 -2.0518 -0.1669 -1.0303
 1079TIP3    H224653   6.302   3.883  14.303  2.6419  1.6791  0.8692
 1080TIP3   OH224654   2.760   5.848  14.585  0.7833 -0.0278 -0.0103
 1080TIP3    H124655   2.767   5.864  14.491  0.8307 -1.4123 -0.2610
 1080TIP3    H224656   2.736   5.756  14.592  0.1638  0.2146  1.3303
 1081TIP3   OH224657   5.919   2.191  11.538 -0.3276 -0.0795 -0.2996
 1081TIP3    H124658   5.879   2.245  11.606  1.3262  1.2885 -0.3360
 1081TIP3    H224659   5.988   2.143  11.582 -1.1654 -1.4773 -0.4661
 1082TIP3   OH224660   4.417   1.277   1.882  0.3505  0.4238 -0.3298
 1082TIP3    H124661   4.483   1.254   1.817 -0.2701 -0.0508 -0.8049
 1082TIP3    H224662   4.453   1.247   1.965  1.3399  1.4110 -0.3776
 1083TIP3   OH224663   3.015   4.577   5.769 -0.0410 -0.1627 -0.2225
 1083TIP3    H124664   3.083   4.551   5.708  0.2078  0.2909 -0.1415
 1083TIP3    H224665   3.056   4.644   5.824  0.4494 -2.0333  1.8507
 1084TIP3   OH224666   2.947   3.738   4.400  0.2774 -0.2253  0.4147
 1084TIP3    H124667   2.987   3.651   4.398  0.5524 -0.0906 -0.4823
 1084TIP3    H224668   2.857   3.723   4.427  0.2661 -0.8113  0.0525
 1085TIP3   OH224669   5.367   2.293  10.767 -0.0593 -0.8985 -0.4307
 1085TIP3    H124670   5.440   2.311  10.707 -0.4538  0.9613 -0.4306
 1085TIP3    H224671   5.373   2.363  10.832 -1.6132 -0.9415 -0.2171
 1086TIP3   OH224672   4.996   0.579   4.226 -0.2202  0.1579 -0.0514
 1086TIP3    H124673   5.022   0.592   4.135  1.5578 -0.2223  0.3555
 1086TIP3    H224674   4.923   0.517   4.221  0.8255 -1.0513 -1.1655
 1087TIP3   OH224675   3.293   3.303   5.730 -0.3274 -0.3419 -0.2739
 1087TIP3    H124676   3.386   3.292   5.709 -0.2518 -0.7426  0.2600
 1087TIP3    H224677   3.287   3.285   5.824 -0.7791  0.7104 -0.0869
 1088TIP3   OH224678   6.213   5.585   5.336 -0.3747  0.0719 -0.3004
 1088TIP3    H124679   6.164   5.587   5.254  0.6992 -1.2671 -1.0203
 1088TIP3    H224680   6.271   5.510   5.328  1.2272  1.1093  0.8465
 1089TIP3   OH224681   1.669   1.114  12.244  0.4859  0.1508 -0.0519
 1089TIP3    H124682   1.647   1.021  12.246  0.5638  0.1388  0.4443
 1089TIP3    H224683   1.710   1.130  12.330  0.6400  0.5981 -0.2078
 1090TIP3   OH224684   0.874   5.854  12.134 -0.0692 -0.2570  0.5966
 1090TIP3    H124685   0.806   5.871  12.069 -0.4671  0.5476  1.2112
 1090TIP3    H224686   0.827   5.834  12.215  0.4094  0.2708  1.0178
 1091TIP3   OH224687   3.804   6.684  11.578  0.1159 -0.5424  0.0525
 1091TIP3    H124688   3.745   6.745  11.624 -1.6878 -1.5049 -0.8629
 1091TIP3    H224689   3.843   6.736  11.508  1.2290  0.3841  1.3166
 1092TIP3   OH224690   4.266   1.932   2.884 -0.3511 -0.0600  0.1698
 1092TIP3    H124691   4.312   1.867   2.830 -1.2634  0.7179 -1.6341
 1092TIP3    H224692   4.208   1.879   2.939  1.6833 -0.9633  1.5557
 1093TIP3   OH224693   0.060   1.749   4.333  0.7592 -0.0038 -0.5111
 1093TIP3    H124694   0.052   1.738   4.428  1.0303  1.0458 -0.3529
 1093TIP3    H224695  -0.030   1.756   4.302  0.6442 -1.0567 -0.4244
 1094TIP3   OH224696   4.721   1.417   1.520  0.1084 -0.0692 -0.1438
 1094TIP3    H124697   4.702   1.415   1.427 -0.1988  1.9759 -0.1737
 1094TIP3    H224698   4.713   1.509   1.545 -0.1291 -0.5946  1.9737
 1095TIP3   OH224699   4.034   6.356   0.501 -0.1659 -0.5196 -0.3418
 1095TIP3    H124700   3.940   6.336   0.494 -0.4607  1.3266 -2.8418
 1095TIP3    H224701   4.037   6.449   0.521  1.1516 -0.5506 -0.3672
 1096TIP3   OH224702   0.386   2.809   3.374  0.3018 -0.0922  0.5013
 1096TIP3    H124703   0.333   2.831   3.451 -0.9013 -0.9050 -0.0456
 1096TIP3    H224704   0.391   2.890   3.324 -0.0970  0.1006  0.7663
 1097TIP3   OH224705   2.622   1.456  12.531 -0.6720 -0.0836 -0.3544
 1097TIP3    H124706   2.597   1.425  12.444 -0.1591 -0.1762 -0.4708
 1097TIP3    H224707   2.633   1.376  12.582 -0.9553 -0.0296 -0.2047
 1098TIP3   OH224708   2.132   4.698   5.299  0.4655 -0.5030 -0.1218
 1098TIP3    H124709   2.093   4.683   5.213 -2.0887  0.0519  0.8309
 1098TIP3    H224710   2.064   4.746   5.348  1.7022 -1.0292  2.2830
 1099TIP3   OH224711   0.082   2.788  13.274  0.1285 -0.1247  0.2002
 1099TIP3    H124712   0.112   2.732  13.202 -0.2769  0.5550 -0.5194
 1099TIP3    H224713   0.132   2.758  13.350 -1.2696 -2.5639  0.2460
 1100TIP3   OH224714   4.376   6.088  12.127  0.2100 -0.0346 -0.0400
 1100TIP3    H124715   4.369   6.010  12.183 -0.2476 -0.1189 -0.2119
 1100TIP3    H224716   4.420   6.153  12.182 -0.6582  0.0394  0.5866
 1101TIP3   OH224717   0.129   3.219  16.534 -0.4411  0.8930 -0.3070
 1101TIP3    H124718   0.183   3.284  16.578 -0.4403  0.0179  1.0596
 1101TIP3    H224719   0.110   3.154  16.602 -3.2046  1.1550 -0.7188
 1102TIP3   OH224720   6.041   3.212  16.210 -0.2266 -0.0040 -0.2231
 1102TIP3    H124721   6.092   3.147  16.259  0.5233  0.1546 -0.7650
 1102TIP3    H224722   6.104   3.250  16.149 -1.1254 -0.1592 -1.2722
 1103TIP3   OH224723   4.013   5.730  12.976 -0.9742  0.4166  0.3521
 1103TIP3    H124724   4.005   5.764  12.887 -2.0606 -1.9098 -0.5352
 1103TIP3    H224725   4.086   5.668  12.971 -1.9982 -0.8623  0.6381
 1104TIP3   OH224726   2.599   0.432  13.524  0.1606 -0.0606 -0.3368
 1104TIP3    H124727   2.591   0.387  13.609  0.8277  0.8559  0.2309
 1104TIP3    H224728   2.669   0.384  13.479  0.3901 -0.0265 -0.0203
 1105TIP3   OH224729   0.814   2.006   1.967 -0.0023  0.0015 -0.6822
 1105TIP3    H124730   0.815   1.989   1.873  1.2185 -1.9200 -0.3719
 1105TIP3    H224731   0.755   1.941   2.003  0.6743 -0.2474  0.0192
 1106TIP3   OH224732   0.454   3.781   2.069 -0.1125 -0.3293 -0.4646
 1106TIP3    H124733   0.512   3.746   2.137 -0.2174 -2.6726 -1.5046
 1106TIP3    H224734   0.417   3.860   2.109 -0.0668 -1.5185  2.1531
 1107TIP3   OH224735   5.543   3.317   3.693  0.5678  0.4263  0.0091
 1107TIP3    H124736   5.530   3.408   3.665 -0.3207  0.8470  1.6478
 1107TIP3    H224737   5.618   3.320   3.752  1.3576 -0.1475 -0.9474
 1108TIP3   OH224738   5.824   4.748  11.966 -0.7610 -0.0620 -0.4249
 1108TIP3    H124739   5.810   4.668  12.016 -0.6511 -0.8087 -1.5559
 1108TIP3    H224740   5.770   4.737  11.888 -0.3927  0.7671 -0.8089
 1109TIP3   OH224741   2.045   6.034  11.766  0.9340  0.5269  0.2363
 1109TIP3    H124742   2.021   6.123  11.792 -0.8497 -0.1187  1.0055
 1109TIP3    H224743   1.999   5.978  11.829 -0.7948 -1.0196 -2.2341
 1110TIP3   OH224744   5.078   3.474   4.977  0.2416  0.1008  0.1169
 1110TIP3    H124745   5.162   3.511   5.005 -0.6559  1.7973  0.7128
 1110TIP3    H224746   5.020   3.550   4.970 -1.1021 -0.9739 -0.8213
 1111TIP3   OH224747   2.279   2.346   1.106 -0.1838  0.1749  1.2026
 1111TIP3    H124748   2.316   2.420   1.058 -0.7175  0.4084  1.1419
 1111TIP3    H224749   2.341   2.275   1.093 -1.2548 -0.3664 -1.4979
 1112TIP3   OH224750   2.766   1.094   2.778  0.1392  0.3850 -0.4050
 1112TIP3    H124751   2.808   1.147   2.710  1.8129  1.1350  1.1460
 1112TIP3    H224752   2.807   1.008   2.771  0.2905  0.4533 -0.3537
 1113TIP3   OH224753   5.431   2.052  12.998  0.0640 -0.5643  0.2297
 1113TIP3    H124754   5.341   2.039  13.028 -0.0055 -0.4528  0.0723
 1113TIP3    H224755   5.445   2.147  13.003  0.9011 -0.7523  2.3313
 1114TIP3   OH224756   0.140   4.734  15.379  0.5093 -0.3078 -0.1172
 1114TIP3    H124757   0.193   4.655  15.383  2.2905  0.8171 -0.2644
 1114TIP3    H224758   0.147   4.763  15.288 -0.4986 -0.2139 -0.1721
 1115TIP3   OH224759   6.714   6.553   1.682 -0.3133  0.0497 -0.1155
 1115TIP3    H124760   6.661   6.618   1.636 -1.7389 -0.2152  1.0696
 1115TIP3    H224761   6.653   6.481   1.700 -0.0152  0.3908  2.6765
 1116TIP3   OH224762   1.453   4.628  12.521  0.4262 -0.3151  0.8725
 1116TIP3    H124763   1.519   4.673  12.468  1.0547 -1.8128  0.3374
 1116TIP3    H224764   1.423   4.555  12.467 -1.9766  0.5126  0.9658
 1117TIP3   OH224765   4.663   2.140   1.446  0.6477  0.2923 -0.0754
 1117TIP3    H124766   4.669   2.179   1.359  1.7506 -1.5300 -0.8951
 1117TIP3    H224767   4.710   2.057   1.438 -1.5524 -1.2425  1.5232
 1118TIP3   OH224768   3.902   0.142   1.791  0.0602  0.5175  0.0276
 1118TIP3    H124769   3.857   0.072   1.743 -0.5529  1.0877 -0.2339
 1118TIP3    H224770   3.847   0.219   1.779  0.3763  0.8876  0.8877
 1119TIP3   OH224771   3.079   5.098   1.933  0.3565 -0.0447 -0.5892
 1119TIP3    H124772   3.143   5.133   1.871 -0.2083  0.2275 -1.0306
 1119TIP3    H224773   2.998   5.090   1.882 -0.8598  2.6472  0.7130
 1120TIP3   OH224774   2.528   5.820   4.564 -0.1371  0.0199  0.0002
 1120TIP3    H124775   2.615   5.858   4.557 -0.8184  1.3774 -2.2225
 1120TIP3    H224776   2.473   5.890   4.599 -0.7622  0.0037 -0.8951
 1121TIP3   OH224777   3.643   3.884  11.546 -0.6612 -0.1584  0.0656
 1121TIP3    H124778   3.732   3.861  11.520 -0.7717 -1.2789  0.6036
 1121TIP3    H224779   3.641   3.871  11.641 -0.5424  2.8758  0.5894
 1122TIP3   OH224780   6.257   0.669   0.828 -0.5887  0.2723 -0.2176
 1122TIP3    H124781   6.328   0.704   0.881 -0.6890  1.8661 -1.0637
 1122TIP3    H224782   6.178   0.704   0.868 -0.8950 -1.0532  0.3938
 1123TIP3   OH224783   0.444   3.766   5.169 -0.0336 -0.7607 -0.1196
 1123TIP3    H124784   0.393   3.828   5.118 -0.6213 -2.0997 -1.2196
 1123TIP3    H224785   0.533   3.802   5.170 -0.3999  0.1814 -0.5587
 1124TIP3   OH224786   3.366   0.809   0.447 -1.1001  0.4178  0.3849
 1124TIP3    H124787   3.395   0.737   0.391 -2.5790 -0.6409  0.9136
 1124TIP3    H224788   3.439   0.824   0.507 -0.6963 -0.5240  0.1443
 1125TIP3   OH224789   2.154   0.152  12.334 -0.1094 -0.3619  0.4960
 1125TIP3    H124790   2.099   0.158  12.256  0.2731  2.0890  0.3265
 1125TIP3    H224791   2.102   0.102  12.397 -1.4891 -0.2164 -0.4845
 1126TIP3   OH224792   1.467   1.985   5.736  0.1675 -0.3618  0.4025
 1126TIP3    H124793   1.515   1.940   5.666  0.5865  1.5256 -0.5759
 1126TIP3    H224794   1.534   2.008   5.800 -0.0019 -0.8561  0.7627
 1127TIP3   OH224795   6.298   1.473   4.492  0.3013  0.5537 -0.2274
 1127TIP3    H124796   6.364   1.525   4.537  0.9773 -0.2452 -0.2677
 1127TIP3    H224797   6.268   1.529   4.420 -0.5970  1.7399  1.0036
 1128TIP3   OH224798   5.432   4.696  15.238 -0.0752 -0.0884  0.8074
 1128TIP3    H124799   5.499   4.723  15.301  0.7897  1.4715 -0.7037
 1128TIP3    H224800   5.352   4.741  15.267  0.2461  0.3864  0.9709
 1129TIP3   OH224801   1.967   4.427  16.948 -0.1066 -0.2046 -0.2014
 1129TIP3    H124802   1.929   4.383  17.025  0.6417 -0.4462  0.0369
 1129TIP3    H224803   1.900   4.418  16.880  0.2179 -2.2002 -0.3192
 1130TIP3   OH224804   6.532   1.509  15.703  0.2473  0.5633  0.1560
 1130TIP3    H124805   6.599   1.459  15.750 -1.0979 -2.0091 -0.4953
 1130TIP3    H224806   6.574   1.536  15.621  0.6241 -0.7005 -0.0811
 1131TIP3   OH224807   5.737   3.052   2.936 -0.0278 -0.0331  0.2283
 1131TIP3    H124808   5.724   3.147   2.929  0.1042 -0.0873 -1.1838
 1131TIP3    H224809   5.677   3.024   3.006 -0.9862  0.9258 -0.1760
 1132TIP3   OH224810   1.085   2.600  11.043 -0.2185 -0.1161  0.0840
 1132TIP3    H124811   1.068   2.670  10.981  1.4109 -0.8227 -1.2480
 1132TIP3    H224812   1.151   2.637  11.102  0.4886 -0.4310 -0.4933
 1133TIP3   OH224813   2.817   3.416  14.253 -0.1882 -0.2789 -0.5139
 1133TIP3    H124814   2.909   3.402  14.276  0.0846  0.7732 -0.9010
 1133TIP3    H224815   2.769   3.400  14.334  0.4828  0.5669  0.0690
 1134TIP3   OH224816   0.766   4.993  14.951 -0.4373 -0.8348  0.5812
 1134TIP3    H124817   0.835   4.944  14.997  0.8096 -0.1233 -0.4667
 1134TIP3    H224818   0.760   4.950  14.865 -0.4084 -0.1189  0.2129
 1135TIP3   OH224819   4.102   0.729   0.257 -0.0058 -0.0428  0.6508
 1135TIP3    H124820   4.036   0.729   0.327 -2.1135 -1.0675 -1.1915
 1135TIP3    H224821   4.112   0.637   0.233  0.7650  0.2736 -0.3156
 1136TIP3   OH224822   1.537   4.956   1.350  0.8569  0.5344 -0.6424
 1136TIP3    H124823   1.445   4.958   1.374  1.2245 -0.2177  0.9495
 1136TIP3    H224824   1.551   4.868   1.316  0.8970  0.7947 -1.3099
 1137TIP3   OH224825   3.789   0.507  12.290  0.9251 -0.2602 -0.2209
 1137TIP3    H124826   3.741   0.432  12.326  2.1009 -0.3312  1.2949
 1137TIP3    H224827   3.784   0.573  12.359 -0.2695  1.1948 -1.6145
 1138TIP3   OH224828   2.541   3.459  16.339 -0.0327  0.3153 -0.2591
 1138TIP3    H124829   2.549   3.379  16.390 -1.4594  0.9059  0.9705
 1138TIP3    H224830   2.451   3.456  16.305 -1.0857  2.5964  2.0345
 1139TIP3   OH224831   4.274   2.754   3.064  0.1878 -0.2207  0.5806
 1139TIP3    H124832   4.245   2.771   3.154  1.6681 -4.1922  2.0464
 1139TIP3    H224833   4.194   2.735   3.016 -0.5379  0.9894  1.2490
 1140TIP3   OH224834   3.062   1.848  16.307  0.3348  0.0991 -0.0173
 1140TIP3    H124835   2.982   1.851  16.359  0.2098  0.3888 -0.2196
 1140TIP3    H224836   3.082   1.940  16.291  0.6942  0.0248  0.0107
 1141TIP3   OH224837   1.558   2.571  12.693  0.2578 -0.0117 -0.4049
 1141TIP3    H124838   1.574   2.598  12.602 -0.2269 -1.3921 -0.9259
 1141TIP3    H224839   1.463   2.575  12.702  0.3109  0.2143  0.0871
 1142TIP3   OH224840   6.465   5.459   6.029  0.6691 -0.0383 -0.2256
 1142TIP3    H124841   6.409   5.501   6.094 -1.7992 -0.1857 -2.1186
 1142TIP3    H224842   6.518   5.531   5.993 -0.4533  0.6911 -0.4650
 1143TIP3   OH224843   1.529   1.035  14.873 -0.2464  0.0610  0.5425
 1143TIP3    H124844   1.537   1.012  14.781  0.1263 -1.1127  0.8486
 1143TIP3    H224845   1.519   1.130  14.873 -0.1761  0.0890 -0.6976
 1144TIP3   OH224846   2.191   2.083  13.201  0.2921 -0.0608  0.1385
 1144TIP3    H124847   2.200   2.168  13.246 -0.5254  0.8466 -1.3527
 1144TIP3    H224848   2.106   2.087  13.159  0.8956 -1.0162 -1.2254
 1145TIP3   OH224849   5.992   0.875  15.030 -0.2074  0.5794  0.1399
 1145TIP3    H124850   5.987   0.882  15.125 -1.0159  0.4940  0.1129
 1145TIP3    H224851   5.972   0.963  14.998  0.4587  0.7032  0.0555
 1146TIP3   OH224852   0.460   2.682   2.029  0.1126  0.0829  0.5446
 1146TIP3    H124853   0.479   2.746   2.097  2.4153  0.9688 -0.8262
 1146TIP3    H224854   0.505   2.602   2.058 -0.7822 -0.2489  1.0896
 1147TIP3   OH224855   6.625   4.164  16.532 -0.0491  0.3169  0.3178
 1147TIP3    H124856   6.677   4.189  16.608  0.6941 -1.3515  0.4160
 1147TIP3    H224857   6.569   4.093  16.563  0.4376 -0.5615 -0.7185
 1148TIP3   OH224858   3.551   0.962  15.589 -0.3443 -0.2654  0.2349
 1148TIP3    H124859   3.510   0.939  15.672 -2.2299  4.4009  0.8819
 1148TIP3    H224860   3.639   0.992  15.614 -1.3913  2.5187  0.9678
 1149TIP3   OH224861   0.624   4.091  11.434 -0.5106 -0.0074  0.2945
 1149TIP3    H124862   0.651   4.072  11.524 -1.2058  0.1498  0.5478
 1149TIP3    H224863   0.584   4.009  11.404 -0.1737 -0.0966  0.0825
 1150TIP3   OH224864   0.994   6.178  15.070 -0.3163 -0.7843 -0.1225
 1150TIP3    H124865   1.008   6.143  15.158 -1.5330 -2.2199 -0.4488
 1150TIP3    H224866   1.011   6.272  15.079  2.2866 -1.2723  0.9926
 1151TIP3   OH224867   0.186   4.559   1.009 -0.1807  0.0440 -0.4067
 1151TIP3    H124868   0.258   4.513   1.054 -0.8755  0.4649  1.2097
 1151TIP3    H224869   0.181   4.644   1.053 -0.8819  0.4946 -1.3342
 1152TIP3   OH224870   1.440   3.162  15.280  0.0001 -0.4031  0.7148
 1152TIP3    H124871   1.535   3.152  15.284  0.1294  0.3743 -0.1524
 1152TIP3    H224872   1.424   3.254  15.303 -0.5821 -0.6370  1.2899
 1153TIP3   OH224873   5.608   3.871  12.102 -0.2078  0.7698  0.9188
 1153TIP3    H124874   5.547   3.930  12.057 -1.6627 -0.4232  1.2676
 1153TIP3    H224875   5.682   3.928  12.125 -1.0651  2.2166  0.2880
 1154TIP3   OH224876   4.193   3.565   4.432 -0.3600 -0.0048 -0.6434
 1154TIP3    H124877   4.192   3.515   4.513  0.7581  2.1488  0.8036
 1154TIP3    H224878   4.254   3.517   4.375  1.7778  0.3584  1.2052
 1155TIP3   OH224879   5.628   2.642   4.278  0.0743  0.0252  0.2172
 1155TIP3    H124880   5.648   2.642   4.184 -1.3549  1.0910 -0.1285
 1155TIP3    H224881   5.677   2.715   4.314 -0.6182  0.6149 -0.0162
 1156TIP3   OH224882   5.598   3.812  12.873  0.3216  0.3330 -0.1043
 1156TIP3    H124883   5.506   3.786  12.865  0.1489  0.2970  1.5784
 1156TIP3    H224884   5.648   3.733  12.852 -0.0398  0.2621 -0.7027
 1157TIP3   OH224885   3.983   3.534   2.782  0.5384 -0.3212 -0.0850
 1157TIP3    H124886   4.074   3.529   2.753  0.9897  0.5733  1.0771
 1157TIP3    H224887   3.979   3.478   2.859 -0.0360 -0.7584 -0.4208
 1158TIP3   OH224888   0.713   4.608  15.458 -0.5313 -0.1965 -0.4403
 1158TIP3    H124889   0.714   4.686  15.513  0.4241  0.0546 -0.7934
 1158TIP3    H224890   0.634   4.561  15.484 -1.2282  0.9867 -0.3535
 1159TIP3   OH224891   0.793   5.210   3.255 -0.4003  0.3386  0.1331
 1159TIP3    H124892   0.774   5.116   3.260 -1.5708  0.5039 -0.5980
 1159TIP3    H224893   0.824   5.233   3.342 -2.8750 -0.1910  1.2599
 1160TIP3   OH224894   4.930   5.649   4.720  0.5526 -0.1121  0.1383
 1160TIP3    H124895   4.894   5.563   4.698  0.3301 -0.4077  1.5715
 1160TIP3    H224896   4.974   5.677   4.640  0.5613 -1.5147 -0.3847
 1161TIP3   OH224897   2.847   1.536   6.372  0.3025  0.5884  0.3572
 1161TIP3    H124898   2.828   1.486   6.452  2.6446  0.6870  1.0318
 1161TIP3    H224899   2.828   1.476   6.300 -2.8557  0.8163  0.8415
 1162TIP3   OH224900   6.440   5.763  15.277  0.2437  0.5845  0.6486
 1162TIP3    H124901   6.499   5.804  15.340  0.8120  0.5798  0.1354
 1162TIP3    H224902   6.358   5.813  15.284  0.2334  0.4590  1.5179
 1163TIP3   OH224903   4.374   1.075  12.758  0.1536 -0.0195  1.1687
 1163TIP3    H124904   4.291   1.029  12.763 -0.0028  0.3608  2.3669
 1163TIP3    H224905   4.388   1.110  12.846  1.1342  0.6983  0.7511
 1164TIP3   OH224906   4.591   0.388   3.163 -0.1018  0.0659  0.3274
 1164TIP3    H124907   4.595   0.384   3.068 -1.1533 -1.2462  0.3035
 1164TIP3    H224908   4.598   0.297   3.191 -1.0303  0.2988  1.4215
 1165TIP3   OH224909   4.227   1.350   3.714 -0.0589 -0.2538  0.1944
 1165TIP3    H124910   4.205   1.425   3.658 -0.9961 -1.1961 -0.7570
 1165TIP3    H224911   4.196   1.374   3.801 -0.9154  0.2082 -0.2324
 1166TIP3   OH224912   2.168   4.130  16.251  0.3205 -0.2062 -0.2949
 1166TIP3    H124913   2.106   4.121  16.324  0.3959 -0.2242 -0.2327
 1166TIP3    H224914   2.154   4.219  16.219  0.7980  0.0535  0.2071
 1167TIP3   OH224915   6.214   1.850  13.951 -0.1068 -0.0359 -0.0904
 1167TIP3    H124916   6.192   1.765  13.911 -0.5870  0.7882 -1.6504
 1167TIP3    H224917   6.129   1.887  13.974  0.0851  0.1590  0.3024
 1168TIP3   OH224918   5.960   4.488   0.041  0.1191  0.0472  0.7346
 1168TIP3    H124919   5.974   4.580   0.019  3.3088 -0.4708  0.1435
 1168TIP3    H224920   6.048   4.454   0.057 -1.0983 -2.5396  2.5400
 1169TIP3   OH224921   4.262   5.887  15.374  0.2945  0.1067 -0.5896
 1169TIP3    H124922   4.333   5.828  15.349  0.7823  0.1304  0.6522
 1169TIP3    H224923   4.218   5.841  15.445  0.2141  0.9004 -0.1136
 1170TIP3   OH224924   6.774   3.805  13.531 -0.0131  0.1976  0.3989
 1170TIP3    H124925   6.815   3.804  13.445 -0.9210 -2.4063 -0.0970
 1170TIP3    H224926   6.840   3.846  13.588  1.4086  0.2094 -1.1595
 1171TIP3   OH224927   6.609   1.967   1.575 -0.0975  1.3205 -0.1517
 1171TIP3    H124928   6.659   2.034   1.529 -2.9687  3.5318 -0.3383
 1171TIP3    H224929   6.552   1.929   1.509  0.5500 -0.4474  0.2420
 1172TIP3   OH224930   6.500   6.158   2.185  0.4829 -0.0405  0.5409
 1172TIP3    H124931   6.451   6.102   2.126 -0.5063  0.9127  0.4325
 1172TIP3    H224932   6.555   6.098   2.236  0.1958 -0.9948 -0.2648
 1173TIP3   OH224933   0.203   6.585   0.924 -0.4897  0.1273 -0.4215
 1173TIP3    H124934   0.208   6.630   1.008 -0.7953 -2.0672  0.8446
 1173TIP3    H224935   0.276   6.622   0.873 -0.7513  2.0398  0.4771
 1174TIP3   OH224936   1.105   0.083  12.130 -0.4462  0.3169 -0.6500
 1174TIP3    H124937   1.101  -0.006  12.166 -0.0803  0.4472 -0.2783
 1174TIP3    H224938   1.144   0.072  12.043 -1.1127  0.0284 -0.9189
 1175TIP3   OH224939   1.501   3.648  16.958 -0.2634  0.1074  0.1814
 1175TIP3    H124940   1.420   3.686  16.923  0.3264  0.0159 -1.3688
 1175TIP3    H224941   1.528   3.585  16.892 -0.9950 -2.8877  2.4889
 1176TIP3   OH224942   6.690   0.883   4.827  0.4826 -0.0648  0.1530
 1176TIP3    H124943   6.654   0.886   4.739 -1.3424  0.5402  0.8621
 1176TIP3    H224944   6.753   0.955   4.830  1.9656 -1.2517 -1.1735
 1177TIP3   OH224945   3.987   0.265   2.382 -0.0812  0.5466 -0.1983
 1177TIP3    H124946   4.025   0.341   2.338  1.8434 -0.3968 -0.2816
 1177TIP3    H224947   4.062   0.211   2.406 -1.3041 -0.6553  1.1473
 1178TIP3   OH224948   1.816   4.653   2.182 -0.2810 -0.0141  0.4114
 1178TIP3    H124949   1.881   4.585   2.201 -0.3303 -0.1636  0.0450
 1178TIP3    H224950   1.737   4.624   2.227 -0.1482  0.0757  0.7065
 1179TIP3   OH224951   3.778   6.726  16.032  0.8702 -0.3177 -0.4305
 1179TIP3    H124952   3.871   6.729  16.054  0.5252  0.0935  1.0934
 1179TIP3    H224953   3.739   6.798  16.083 -0.0229  0.6806 -2.4285
 1180TIP3   OH224954   2.979   6.456  11.889  0.5627 -0.3660 -0.0685
 1180TIP3    H124955   3.068   6.424  11.879  0.5826  0.1298 -2.0461
 1180TIP3    H224956   2.924   6.378  11.886  0.9170 -0.6655  1.0856
 1181TIP3   OH224957   1.114   0.284  15.736 -0.6666  0.8270 -0.6567
 1181TIP3    H124958   1.028   0.259  15.700 -1.6087  1.6482  0.9192
 1181TIP3    H224959   1.100   0.371  15.773  0.5648  0.5283  0.5967
 1182TIP3   OH224960   3.151   1.374  15.816 -0.1125  1.1622 -0.2810
 1182TIP3    H124961   3.093   1.403  15.886  0.0577 -0.9850  0.8197
 1182TIP3    H224962   3.095   1.374  15.737 -1.2206  0.5750  0.4716
 1183TIP3   OH224963   0.899   3.376  14.121 -0.0770 -0.1973 -0.3699
 1183TIP3    H124964   0.873   3.465  14.145  1.4626  0.5136 -1.1964
 1183TIP3    H224965   0.889   3.325  14.202  0.1425  0.9790  0.4158
 1184TIP3   OH224966   0.328   5.812  11.830  0.0732 -0.0976 -0.0467
 1184TIP3    H124967   0.243   5.811  11.787 -0.2598  0.3922  0.5729
 1184TIP3    H224968   0.313   5.859  11.912  0.9703  0.1219  0.0100
 1185TIP3   OH224969   2.929   2.574   4.533  0.2707  0.3727  0.2374
 1185TIP3    H124970   2.905   2.658   4.572 -1.8574  0.4230 -1.0346
 1185TIP3    H224971   2.975   2.527   4.603 -1.1934  1.4164  1.9762
 1186TIP3   OH224972   2.698   1.224  14.515 -0.2642  0.1509 -0.8595
 1186TIP3    H124973   2.688   1.316  14.487  0.0287  1.0890  1.8587
 1186TIP3    H224974   2.614   1.202  14.555 -0.4654 -0.9363 -1.8353
 1187TIP3   OH224975   6.497   4.778   6.237  0.8301 -0.3668  0.2051
 1187TIP3    H124976   6.502   4.849   6.173  1.0045 -1.4564 -1.0404
 1187TIP3    H224977   6.455   4.817   6.313 -1.0114  0.5444 -1.1978
 1188TIP3   OH224978   5.235   5.531   0.350  0.2026 -0.2838  0.0269
 1188TIP3    H124979   5.220   5.488   0.434  0.3706  1.0386  0.7746
 1188TIP3    H224980   5.327   5.516   0.331  0.2755 -0.1903  0.3103
 1189TIP3   OH224981   3.289   1.998  13.978  0.3603 -0.4385 -0.0024
 1189TIP3    H124982   3.243   1.928  14.025 -0.4927 -0.2657 -0.5585
 1189TIP3    H224983   3.339   1.952  13.910  0.7603 -0.5992  0.3945
 1190TIP3   OH224984   4.454   4.871   2.950 -0.0342  0.6208 -0.4861
 1190TIP3    H124985   4.375   4.856   3.002  0.0999 -0.6246 -0.6230
 1190TIP3    H224986   4.423   4.909   2.869 -0.3142  1.8700  0.1847
 1191TIP3   OH224987   4.966   3.799  14.924  0.1095  0.0905  0.0012
 1191TIP3    H124988   5.020   3.767  14.852  0.0963 -0.4756  0.2321
 1191TIP3    H224989   4.965   3.894  14.914  1.4343  0.1405  0.1814
 1192TIP3   OH224990   3.689   1.655  12.837  0.5506 -0.4321 -0.1108
 1192TIP3    H124991   3.658   1.646  12.927  1.3290  4.1465  0.8757
 1192TIP3    H224992   3.781   1.628  12.840  0.8405  0.5689  0.7921
 1193TIP3   OH224993   6.242   1.296  15.519  0.4214 -0.0646  0.1597
 1193TIP3    H124994   6.322   1.331  15.480  0.0327  0.8514  0.1677
 1193TIP3    H224995   6.233   1.343  15.601  0.0949 -0.4765  0.3639
 1194TIP3   OH224996   0.666   5.027   1.448  0.1116 -0.4692  0.4617
 1194TIP3    H124997   0.629   4.995   1.530  0.6518  2.0061  1.7501
 1194TIP3    H224998   0.625   5.112   1.434 -0.6785 -1.2080 -2.3929
 1195TIP3   OH224999   0.005   4.181  11.723  0.0298 -0.3427  0.1335
 1195TIP3    H125000   0.054   4.102  11.700 -0.7781 -0.5873 -0.7851
 1195TIP3    H225001  -0.041   4.206  11.643  0.0981  0.9453  0.4726
 1196TIP3   OH225002   2.272   0.878  13.346 -0.4683  0.2255 -0.4768
 1196TIP3    H125003   2.362   0.853  13.322  0.4150  0.2161  2.4626
 1196TIP3    H225004   2.283   0.954  13.403 -2.3825  0.4712 -0.3838
 1197TIP3   OH225005   2.013   0.359  16.384  0.1173 -0.2462 -0.4145
 1197TIP3    H125006   2.053   0.426  16.328 -3.6209  1.7533 -1.0298
 1197TIP3    H225007   2.052   0.374  16.470  1.0987  1.1416 -1.0515
 1198TIP3   OH225008   0.790   6.411   4.465 -0.4948 -0.8628  0.0166
 1198TIP3    H125009   0.767   6.503   4.453 -0.9872 -1.2528 -2.6201
 1198TIP3    H225010   0.862   6.412   4.529 -0.5522  1.3262  0.1006
 1199TIP3   OH225011   4.883   4.388  15.132  0.0475  0.1072 -0.2731
 1199TIP3    H125012   4.842   4.453  15.189 -2.0227 -1.3061 -0.0294
 1199TIP3    H225013   4.830   4.388  15.053  1.1126 -0.0254 -1.0019
 1200TIP3   OH225014   5.492   5.015   0.830 -0.2586 -0.0591  0.6372
 1200TIP3    H125015   5.574   5.025   0.879  0.3367 -0.8214 -0.1627
 1200TIP3    H225016   5.451   5.101   0.834  0.1796  0.1182  1.7419
 1201TIP3   OH225017   2.286   5.883  11.706 -0.2518  0.2416  0.2441
 1201TIP3    H125018   2.196   5.916  11.694  0.3778  1.9902  0.0294
 1201TIP3    H225019   2.319   5.932  11.781  1.0468  0.8043 -0.6666
 1202TIP3   OH225020   3.798   5.980   1.726 -0.1974 -0.5936  0.5127
 1202TIP3    H125021   3.865   5.920   1.697 -1.1069 -0.6372 -1.6490
 1202TIP3    H225022   3.735   5.925   1.774 -0.6911 -1.2793 -0.8824
 1203TIP3   OH225023   3.541   4.618  15.936  0.1037  0.7559  0.0209
 1203TIP3    H125024   3.631   4.649  15.949  0.6248 -0.4440 -0.5278
 1203TIP3    H225025   3.514   4.589  16.023  0.5359  0.4195  0.0492
 1204TIP3   OH225026   5.258   6.726  14.856 -0.0557  0.6475  0.7375
 1204TIP3    H125027   5.347   6.743  14.888 -0.4598  1.7865  1.3173
 1204TIP3    H225028   5.201   6.759  14.925 -0.9699 -1.6729  1.1647
 1205TIP3   OH225029   2.266   2.870  13.616 -0.6667  0.3614 -0.2318
 1205TIP3    H125030   2.308   2.933  13.675  0.9429 -0.5209 -0.3612
 1205TIP3    H225031   2.255   2.919  13.534  0.4431  0.5435 -0.2915
 1206TIP3   OH225032   4.964   0.023  12.461  0.4934 -0.5929 -0.1368
 1206TIP3    H125033   4.881   0.007  12.417  0.5274 -0.3454 -0.2915
 1206TIP3    H225034   4.943   0.086  12.530  0.7274  0.1931 -0.7732
 1207TIP3   OH225035   3.726   3.787   4.525  0.2250 -0.1922 -0.1567
 1207TIP3    H125036   3.805   3.733   4.526  0.3855  0.0008  1.5791
 1207TIP3    H225037   3.657   3.729   4.493  0.7529 -0.8652 -0.0942
 1208TIP3   OH225038   0.748   0.625   5.695 -0.0570  0.8310  0.5908
 1208TIP3    H125039   0.692   0.562   5.650  1.6870 -1.8809  1.9156
 1208TIP3    H225040   0.805   0.660   5.627  0.0758 -0.3722  0.0619
 1209TIP3   OH225041   4.956   6.105  11.823 -0.3903  0.1635 -0.1969
 1209TIP3    H125042   4.861   6.096  11.829 -0.3951 -0.7221 -1.3037
 1209TIP3    H225043   4.990   6.021  11.855  0.0192  0.4215  0.0522
 1210TIP3   OH225044   6.012   6.642  15.337 -0.4364  0.2499 -0.0639
 1210TIP3    H125045   5.938   6.612  15.284  0.3245 -1.5136 -0.2016
 1210TIP3    H225046   6.005   6.593  15.419  0.3912  0.2811  0.0378
 1211TIP3   OH225047   5.805   3.649  10.993 -0.0134  0.0115 -0.3496
 1211TIP3    H125048   5.877   3.602  10.951 -0.0115  0.3111 -0.6859
 1211TIP3    H225049   5.778   3.715  10.929  1.1050  1.6157  0.7711
 1212TIP3   OH225050   2.870   4.484   0.541 -0.0291  0.4787  0.7091
 1212TIP3    H125051   2.915   4.492   0.625 -1.3155  1.3616  1.3429
 1212TIP3    H225052   2.786   4.445   0.563 -0.3590  0.6832 -0.1725
 1213TIP3   OH225053   1.813   5.476  11.424  0.2819  0.0718 -0.3812
 1213TIP3    H125054   1.867   5.535  11.370  1.6545  1.4159  2.2700
 1213TIP3    H225055   1.816   5.514  11.512 -3.1402 -1.1295  0.4156
 1214TIP3   OH225056   0.923   0.046  11.869  0.1494  0.0344  0.7356
 1214TIP3    H125057   0.904   0.127  11.821 -1.9850 -1.1471 -0.5753
 1214TIP3    H225058   1.006   0.064  11.914  1.0283  2.0831 -1.4522
 1215TIP3   OH225059   6.086   3.910   1.768  0.6907 -0.1748 -0.2537
 1215TIP3    H125060   5.994   3.898   1.793  0.4221  0.1789 -1.0251
 1215TIP3    H225061   6.129   3.828   1.794  0.1712 -0.3163  0.1772
 1216TIP3   OH225062   0.222   2.844   4.379  0.4003 -0.3813  0.1066
 1216TIP3    H125063   0.209   2.756   4.344  0.9208 -0.2968 -0.3071
 1216TIP3    H225064   0.312   2.844   4.411  0.5650  0.1521 -0.3482
 1217TIP3   OH225065   6.147   6.678   0.494 -0.2013  0.8796 -0.1933
 1217TIP3    H125066   6.126   6.745   0.430  0.6872  0.1170 -1.3281
 1217TIP3    H225067   6.241   6.688   0.509 -0.2226  0.4361  0.2771
 1218TIP3   OH225068   2.699   4.132  13.065 -0.0698  0.2139  0.5126
 1218TIP3    H125069   2.661   4.219  13.082 -1.8237  0.1370 -2.4047
 1218TIP3    H225070   2.793   4.146  13.068 -0.3118  2.2329  0.0615
 1219TIP3   OH225071   5.256   5.603   5.626  0.8650 -0.4471  0.4321
 1219TIP3    H125072   5.165   5.631   5.616  0.7500 -0.6647  0.8819
 1219TIP3    H225073   5.307   5.672   5.582  0.5136 -0.1135  0.5454
 1220TIP3   OH225074   0.914   4.773   0.494  0.1393 -0.3043  0.7896
 1220TIP3    H125075   0.882   4.850   0.540  0.8906  1.2890 -1.2083
 1220TIP3    H225076   1.002   4.759   0.529  0.2938  0.2356  0.6241
 1221TIP3   OH225077   0.852   0.934  13.697  0.5878 -0.1382  0.4770
 1221TIP3    H125078   0.844   0.936  13.792 -0.7741 -3.9775  0.6326
 1221TIP3    H225079   0.935   0.977  13.678  1.4482 -0.2644  3.5196
 1222TIP3   OH225080   6.013   4.789   0.545 -0.2719  0.4384 -0.0004
 1222TIP3    H125081   5.940   4.840   0.580  0.0391  1.4040 -0.7117
 1222TIP3    H225082   6.082   4.800   0.610 -0.4808  0.2254  0.2595
 1223TIP3   OH225083   4.193   4.184   5.439 -0.0261  0.0621  0.4766
 1223TIP3    H125084   4.214   4.274   5.412 -1.2486  0.1175 -0.3623
 1223TIP3    H225085   4.174   4.191   5.532  0.5059  0.5596  0.5529
 1224TIP3   OH225086   1.284   3.838  11.377  0.2346 -0.2730 -0.7478
 1224TIP3    H125087   1.313   3.747  11.373 -1.2009 -0.7826 -0.1193
 1224TIP3    H225088   1.361   3.886  11.410  1.3076 -1.0859 -1.9736
 1225TIP3   OH225089   1.087   1.719  15.740 -1.0118  0.0887  0.0508
 1225TIP3    H125090   1.041   1.784  15.686 -1.7531 -0.3606  0.1251
 1225TIP3    H225091   1.094   1.642  15.683 -1.2387 -0.1775  0.3810
 1226TIP3   OH225092   0.869   6.567  15.969 -0.1276  0.1141  0.0088
 1226TIP3    H125093   0.913   6.630  16.025  1.1658  0.5704 -1.4436
 1226TIP3    H225094   0.836   6.619  15.895 -1.0200 -0.5837 -0.1017
 1227TIP3   OH225095   2.165   5.596  11.131  0.7156 -0.7254 -0.0166
 1227TIP3    H125096   2.213   5.664  11.083  0.2669 -0.9983 -0.8637
 1227TIP3    H225097   2.228   5.564  11.196  1.3609 -0.4055 -0.4690
 1228TIP3   OH225098   0.777   0.066   2.482 -0.1869  0.0373  0.5405
 1228TIP3    H125099   0.849   0.098   2.428  0.4324  0.7760  1.7654
 1228TIP3    H225100   0.735  -0.001   2.428  0.9736  0.0877 -0.4761
 1229TIP3   OH225101   2.892   4.821   0.464  0.6146  0.2146  0.6781
 1229TIP3    H125102   2.842   4.815   0.383  3.0089 -1.4020 -0.7919
 1229TIP3    H225103   2.830   4.796   0.532 -0.7123 -1.2622 -0.9849
 1230TIP3   OH225104   4.094   3.082   4.889 -0.0487 -0.3768 -0.2699
 1230TIP3    H125105   4.072   3.148   4.954  0.3568 -2.1270  1.7676
 1230TIP3    H225106   4.189   3.087   4.880 -0.1060 -0.1275 -0.7389
 1231TIP3   OH225107   1.259   2.302  11.431  0.1303 -0.3197  0.3142
 1231TIP3    H125108   1.323   2.334  11.495 -1.5865  1.8495  1.0650
 1231TIP3    H225109   1.288   2.340  11.348  0.6062 -0.5065  0.3942
 1232TIP3   OH225110   4.459   5.781  14.991 -0.2238  0.2641 -0.6436
 1232TIP3    H125111   4.524   5.804  14.924 -1.3351  0.9172 -1.5402
 1232TIP3    H225112   4.423   5.865  15.019  0.4050  0.0146  0.9973
 1233TIP3   OH225113   3.892   3.133   1.883 -0.5615 -1.0060  0.3456
 1233TIP3    H125114   3.987   3.144   1.888 -0.7821  0.8052  1.0921
 1233TIP3    H225115   3.872   3.147   1.790 -0.0233 -2.2996  0.0143
 1234TIP3   OH225116   1.812   4.931   1.094 -0.4295 -0.0089 -0.7331
 1234TIP3    H125117   1.771   4.963   1.014  0.7499  0.4405 -1.1781
 1234TIP3    H225118   1.843   5.010   1.139 -0.0237 -0.3343 -0.4292
 1235TIP3   OH225119   5.146   4.414   0.214 -0.0767  0.4257 -0.6486
 1235TIP3    H125120   5.210   4.485   0.217 -0.2110  0.5507 -0.7467
 1235TIP3    H225121   5.131   4.391   0.305  0.0230  0.4733 -0.6202
 1236TIP3   OH225122   4.077   1.687  16.661  0.0780 -0.4306 -0.1420
 1236TIP3    H125123   4.094   1.661  16.751 -0.0359  0.0674  0.0274
 1236TIP3    H225124   3.995   1.736  16.665 -1.1006 -2.2312 -0.8401
 1237TIP3   OH225125   2.717   4.973   3.191  0.5056  0.0730  0.9786
 1237TIP3    H125126   2.723   5.068   3.199  1.0554 -0.0328  1.9825
 1237TIP3    H225127   2.648   4.948   3.252 -0.0935 -0.1149  0.2321
 1238TIP3   OH225128   3.474   1.799   4.444  0.5462  0.0752 -0.7961
 1238TIP3    H125129   3.429   1.721   4.478 -1.5960  0.8876 -1.5687
 1238TIP3    H225130   3.513   1.770   4.362 -0.7028 -0.0847 -1.3534
 1239TIP3   OH225131   3.315   4.798  15.154 -0.0570 -0.0726 -0.1519
 1239TIP3    H125132   3.266   4.848  15.088  2.0614  0.7552 -1.1922
 1239TIP3    H225133   3.406   4.817  15.135  0.7090 -1.7494  1.5599
 1240TIP3   OH225134   5.645   6.680  11.938  0.1005 -0.1755 -0.5779
 1240TIP3    H125135   5.626   6.716  12.025  0.4785 -1.1401 -0.0777
 1240TIP3    H225136   5.715   6.736  11.904  0.7783 -0.4965  0.2386
 1241TIP3   OH225137   2.639   2.624   5.753 -0.3373 -0.0945 -0.7626
 1241TIP3    H125138   2.561   2.651   5.801 -0.8726  2.7284 -2.9984
 1241TIP3    H225139   2.611   2.616   5.662  1.4604 -1.5345 -1.2682
 1242TIP3   OH225140   0.511   0.813   5.595 -0.1055  0.6093 -0.4777
 1242TIP3    H125141   0.583   0.865   5.559 -0.5946  0.2469 -2.0472
 1242TIP3    H225142   0.497   0.743   5.531 -0.0220 -0.9977  1.1844
 1243TIP3   OH225143   6.466   4.265   6.604 -0.2367  0.0117  0.2919
 1243TIP3    H125144   6.427   4.332   6.660 -0.2339 -0.6036  1.0426
 1243TIP3    H225145   6.525   4.216   6.661  0.9525  0.3446 -0.6093
 1244TIP3   OH225146   3.287   0.056   1.718  0.2455 -0.0756  0.4315
 1244TIP3    H125147   3.281   0.014   1.632  0.2441 -0.6018  0.6838
 1244TIP3    H225148   3.200   0.094   1.732 -0.5883 -2.1360  1.2672
 1245TIP3   OH225149   0.798   0.213  15.912  0.4369  0.1581  0.6775
 1245TIP3    H125150   0.822   0.183  15.824 -0.8997  1.3664 -0.1405
 1245TIP3    H225151   0.818   0.307  15.912 -0.7634  0.4270  1.2260
 1246TIP3   OH225152   1.204   2.265   0.343 -0.0910 -0.0623 -0.0702
 1246TIP3    H125153   1.133   2.330   0.342 -1.0065 -0.9927 -2.3558
 1246TIP3    H225154   1.159   2.181   0.350  0.9344 -0.5798  0.4780
 1247TIP3   OH225155   2.777   2.872  10.933 -0.6038  0.0762  0.4695
 1247TIP3    H125156   2.805   2.827  11.012 -0.1855  0.2433  0.4184
 1247TIP3    H225157   2.763   2.802  10.869 -1.8434 -0.1411  0.9509
 1248TIP3   OH225158   5.101   1.600  15.041  0.2453 -0.3718 -0.0815
 1248TIP3    H125159   5.007   1.599  15.058  0.0873 -1.0378 -0.8753
 1248TIP3    H225160   5.129   1.511  15.061  0.6507 -0.2511 -0.1198
 1249TIP3   OH225161   5.909   2.697  10.550  0.6679  0.2605  0.0655
 1249TIP3    H125162   5.911   2.645  10.470 -0.3247 -0.2229  0.3294
 1249TIP3    H225163   5.821   2.735  10.551 -0.0310 -1.2552  1.8451
 1250TIP3   OH225164   0.388   1.313   5.628  0.2300  0.2128  0.1586
 1250TIP3    H125165   0.339   1.381   5.673  1.4926  0.7013  0.8582
 1250TIP3    H225166   0.480   1.330   5.651  0.5530 -2.1061  0.9006
 1251TIP3   OH225167   1.101   3.933   5.401  0.1539  0.3618  0.4234
 1251TIP3    H125168   1.142   4.005   5.353  1.3356  0.0874  0.9970
 1251TIP3    H225169   1.081   3.969   5.487  2.7330 -0.5230  1.4930
 1252TIP3   OH225170   0.842   0.560   0.593 -0.2101 -0.1927 -0.8677
 1252TIP3    H125171   0.801   0.611   0.523  1.3061  2.5396  0.0564
 1252TIP3    H225172   0.934   0.588   0.592  0.2538 -1.4710  1.0220
 1253TIP3   OH225173   5.630   5.411   4.380  0.0472 -0.1644 -0.1581
 1253TIP3    H125174   5.669   5.325   4.366 -2.9277 -2.0612  1.8253
 1253TIP3    H225175   5.646   5.430   4.472 -1.3677  0.1998  0.0412
 1254TIP3   OH225176   2.160   1.593  15.076  0.0640  0.3397  0.3330
 1254TIP3    H125177   2.157   1.526  15.007 -0.8598  0.1833  0.5077
 1254TIP3    H225178   2.098   1.561  15.142 -0.2961  1.3095  0.4741
 1255TIP3   OH225179   4.732   1.436   6.447  0.2633  0.5476 -0.2675
 1255TIP3    H125180   4.793   1.465   6.379 -2.0423 -0.5797 -3.0023
 1255TIP3    H225181   4.700   1.518   6.486  1.6415  1.2250 -0.4976
 1256TIP3   OH225182   4.976   4.121  11.660  0.3881 -0.3348 -0.5013
 1256TIP3    H125183   4.961   4.051  11.596  0.5946 -0.7491 -0.1028
 1256TIP3    H225184   5.051   4.170  11.625  1.6055 -1.5832  0.2450
 1257TIP3   OH225185   5.429   1.252  14.783  0.0886  0.8191  0.2046
 1257TIP3    H125186   5.338   1.268  14.759 -0.4264 -0.8311  0.8806
 1257TIP3    H225187   5.432   1.158  14.802  2.3068  0.4979 -1.3615
 1258TIP3   OH225188   0.182   0.930   2.414 -0.2857  0.2804  0.0652
 1258TIP3    H125189   0.259   0.873   2.419 -0.4075  0.1733  0.8882
 1258TIP3    H225190   0.122   0.883   2.356  0.6286  0.8163 -1.3667
 1259TIP3   OH225191   5.105   2.221  12.748 -0.5209 -0.6971  0.2850
 1259TIP3    H125192   5.015   2.252  12.735  0.7956  2.6419 -2.7072
 1259TIP3    H225193   5.152   2.299  12.778  1.3030 -2.5604  2.5426
 1260TIP3   OH225194   4.572   1.765   1.427 -0.0342  0.1857  0.3268
 1260TIP3    H125195   4.652   1.781   1.478  0.3363  0.7812 -0.4261
 1260TIP3    H225196   4.583   1.817   1.348  0.0168 -1.7313 -1.0013
 1261TIP3   OH225197   2.586   1.448   5.019  0.4348  0.2746  0.2567
 1261TIP3    H125198   2.552   1.458   5.108  1.6055 -0.0620  0.7767
 1261TIP3    H225199   2.650   1.518   5.010 -1.7563  2.1791 -1.4453
 1262TIP3   OH225200   6.166   2.875  16.017  0.0831  0.2224 -0.1669
 1262TIP3    H125201   6.141   2.949  15.961 -0.0543  0.1147 -0.2483
 1262TIP3    H225202   6.250   2.846  15.984 -0.4078 -0.4076 -0.8817
 1263TIP3   OH225203   3.347   2.890  14.436  0.2456 -0.1944  0.5669
 1263TIP3    H125204   3.405   2.846  14.499 -0.2490  0.4287  1.4713
 1263TIP3    H225205   3.307   2.961  14.486  1.9303  2.1078 -1.1325
 1264TIP3   OH225206   2.958   0.491  14.966 -0.0241  0.3926  0.0755
 1264TIP3    H125207   2.990   0.557  14.904  0.1522 -0.6117 -0.9333
 1264TIP3    H225208   3.020   0.495  15.038 -0.1161  1.4475  0.1160
 1265TIP3   OH225209   0.314   5.224  15.753 -0.0593 -0.1700 -0.0254
 1265TIP3    H125210   0.360   5.159  15.806  1.1034  0.4416 -0.2591
 1265TIP3    H225211   0.227   5.229  15.792 -0.2471 -2.0077 -0.1333
 1266TIP3   OH225212   6.344   6.019  13.392  0.1204  0.2975 -0.1956
 1266TIP3    H125213   6.251   6.041  13.380 -0.7083 -3.5963 -2.5962
 1266TIP3    H225214   6.353   6.005  13.486 -1.8770  0.2496  0.0316
 1267TIP3   OH225215   3.501   5.778  12.171  0.1405 -0.0798  0.0486
 1267TIP3    H125216   3.515   5.714  12.102 -0.8156 -0.0038 -0.2352
 1267TIP3    H225217   3.406   5.779  12.184  0.1906  0.8876  0.4221
 1268TIP3   OH225218   4.746   5.828  13.436 -0.6167  0.1764 -0.7835
 1268TIP3    H125219   4.768   5.793  13.350 -0.2558 -0.1353 -0.5683
 1268TIP3    H225220   4.750   5.923  13.425  2.5087  0.2013 -0.3690
 1269TIP3   OH225221   2.923   6.554  14.217 -0.1039 -0.2677  0.4610
 1269TIP3    H125222   2.935   6.609  14.139  0.1203 -0.7434  0.1540
 1269TIP3    H225223   2.989   6.586  14.279  0.9244 -1.0592 -0.2054
 1270TIP3   OH225224   0.949   2.296   3.056  0.0441 -0.1464  0.8675
 1270TIP3    H125225   1.015   2.358   3.086 -1.9512  1.6234  1.8729
 1270TIP3    H225226   0.865   2.335   3.081 -1.3869 -2.8634  0.7688
 1271TIP3   OH225227   6.537   4.772   2.215  0.3462  0.3310  0.0864
 1271TIP3    H125228   6.610   4.712   2.200 -0.9788 -1.2954 -0.2122
 1271TIP3    H225229   6.481   4.726   2.279  0.0140  1.9333  1.0095
 1272TIP3   OH225230   0.059   2.752   1.144 -0.0864  0.1467 -0.0590
 1272TIP3    H125231   0.006   2.819   1.189 -0.4507  0.2951 -0.7011
 1272TIP3    H225232   0.128   2.802   1.100  0.3346 -0.0092  0.4094
 1273TIP3   OH225233   5.438   0.326  14.743 -0.5178 -0.1269 -0.2505
 1273TIP3    H125234   5.409   0.406  14.699 -0.5333  1.6778  2.7690
 1273TIP3    H225235   5.358   0.275  14.754 -0.9276  0.4929 -0.2773
 1274TIP3   OH225236   1.692   5.926  13.097  0.3891  0.2537 -0.6099
 1274TIP3    H125237   1.635   5.886  13.163 -0.1738  2.3232  0.2156
 1274TIP3    H225238   1.681   5.871  13.020 -1.5335 -0.3013  0.0001
 1275TIP3   OH225239   5.124   5.546  12.264 -0.3369  0.5116 -0.3722
 1275TIP3    H125240   5.108   5.594  12.345  0.3580  1.1845 -0.6278
 1275TIP3    H225241   5.038   5.508  12.242 -0.4981  0.2115  0.7339
 1276TIP3   OH225242   1.222   1.514  11.709  0.4500  0.2761  0.2529
 1276TIP3    H125243   1.273   1.436  11.732 -0.5659 -1.2154 -2.1826
 1276TIP3    H225244   1.194   1.499  11.619 -2.5794  1.9313  0.7723
 1277TIP3   OH225245   1.128   0.034   3.932 -0.2284 -0.6099  0.1344
 1277TIP3    H125246   1.111   0.085   4.011 -1.1376  0.4456 -0.7002
 1277TIP3    H225247   1.096   0.089   3.860  0.5277 -1.5512 -0.9733
 1278TIP3   OH225248   2.541   0.673   5.860  0.5323  0.1312 -0.0634
 1278TIP3    H125249   2.608   0.659   5.794 -0.4378  0.2800 -1.1188
 1278TIP3    H225250   2.585   0.721   5.930  1.9678 -1.4002  0.1379
 1279TIP3   OH225251   3.088   6.010  15.962  0.0270  0.6304 -0.2447
 1279TIP3    H125252   3.017   6.031  15.902 -1.6342 -2.4584  0.4551
 1279TIP3    H225253   3.167   6.016  15.908 -1.3245 -1.3792 -2.6690
 1280TIP3   OH225254   4.133   4.749  11.707  0.1022 -0.1135  0.2962
 1280TIP3    H125255   4.050   4.730  11.749 -0.9120 -0.9361 -1.8891
 1280TIP3    H225256   4.170   4.663  11.687 -0.0327  0.1702 -1.4100
 1281TIP3   OH225257   6.142   4.693   2.855  0.0019 -0.2062 -0.0750
 1281TIP3    H125258   6.130   4.771   2.910 -0.2808  0.2353 -0.7471
 1281TIP3    H225259   6.059   4.647   2.860 -0.5566  0.6189 -1.3119
 1282TIP3   OH225260   4.581   5.522   6.203 -0.1412  0.0639 -0.0149
 1282TIP3    H125261   4.654   5.475   6.241 -1.6205 -2.3777 -0.0181
 1282TIP3    H225262   4.614   5.556   6.120  0.9494 -1.0731 -0.0574
 1283TIP3   OH225263   3.734   1.199   2.576 -0.4091 -0.1684  0.3480
 1283TIP3    H125264   3.827   1.204   2.558 -0.6729  3.6440 -0.7568
 1283TIP3    H225265   3.692   1.232   2.497 -2.2315  4.7405  2.9487
 1284TIP3   OH225266   4.224   6.759  11.387 -0.3877  0.0092  0.6712
 1284TIP3    H125267   4.272   6.801  11.459  1.0428 -0.4633  0.0226
 1284TIP3    H225268   4.133   6.780  11.405  0.1052  1.7133  1.4517
 1285TIP3   OH225269   4.711   6.503   3.210  0.1894 -0.7086 -0.2733
 1285TIP3    H125270   4.649   6.558   3.163 -1.7201 -1.2925  1.3953
 1285TIP3    H225271   4.785   6.560   3.228 -1.0327  0.8713 -0.0033
 1286TIP3   OH225272   1.495   0.462  12.174 -0.1287 -0.5533  0.3669
 1286TIP3    H125273   1.463   0.395  12.113  0.0960 -0.5859  0.2852
 1286TIP3    H225274   1.494   0.543  12.123 -2.0665 -0.1360  0.9584
 1287TIP3   OH225275   5.783   1.059  14.102 -0.0081 -0.3530  0.1356
 1287TIP3    H125276   5.753   0.993  14.039  1.0818 -0.4164 -0.3390
 1287TIP3    H225277   5.801   1.136  14.048  0.0891 -0.1233  0.4939
 1288TIP3   OH225278   4.071   1.619  13.321 -0.8137 -0.2087 -0.9237
 1288TIP3    H125279   4.018   1.540  13.328 -2.0381  0.6573 -0.0237
 1288TIP3    H225280   4.090   1.643  13.412 -0.8534  0.7965 -1.1749
 1289TIP3   OH225281   1.720   2.245  13.510  0.0614 -0.3486  0.0508
 1289TIP3    H125282   1.656   2.209  13.448 -1.9332  0.8058  1.3086
 1289TIP3    H225283   1.782   2.293  13.456 -2.9165  2.6121 -1.0580
 1290TIP3   OH225284   1.799   4.540   5.299 -0.3050 -0.2666 -0.0806
 1290TIP3    H125285   1.720   4.574   5.342 -0.1242  0.7779 -0.5495
 1290TIP3    H225286   1.847   4.618   5.272  0.8288 -0.8961  0.0745
 1291TIP3   OH225287   5.493   0.293  11.130  0.0372  0.2018  0.0343
 1291TIP3    H125288   5.410   0.267  11.090 -0.5089  0.8810  0.6950
 1291TIP3    H225289   5.468   0.330  11.215  1.0580 -0.0301  0.4565
 1292TIP3   OH225290   4.478   4.751   5.425 -0.3207 -0.2141 -0.4649
 1292TIP3    H125291   4.414   4.819   5.402  0.6612  0.3742 -1.5141
 1292TIP3    H225292   4.428   4.669   5.422 -1.0563  0.2476 -1.1731
 1293TIP3   OH225293   4.881   4.544   4.769 -0.1412 -0.0898 -0.4917
 1293TIP3    H125294   4.791   4.566   4.793 -0.1422  0.7764 -1.2203
 1293TIP3    H225295   4.934   4.585   4.838 -0.3034 -0.8042  0.0711
 1294TIP3   OH225296   2.552   0.502  12.592  0.0947 -0.3596 -0.0183
 1294TIP3    H125297   2.625   0.523  12.650  1.1942 -0.5823 -1.2762
 1294TIP3    H225298   2.512   0.587  12.572  1.5741  0.0816 -1.2810
 1295TIP3   OH225299   3.518   5.995  16.822  0.1767  0.5533 -0.0537
 1295TIP3    H125300   3.459   6.051  16.772  0.1540  0.5562 -0.0239
 1295TIP3    H225301   3.459   5.934  16.868  0.1088  1.4083  1.0344
 1296TIP3   OH225302   6.131   0.142  12.824 -0.7201  0.1033 -0.0100
 1296TIP3    H125303   6.095   0.094  12.750 -2.3546  1.0944  0.0994
 1296TIP3    H225304   6.057   0.154  12.883  0.5639 -0.7944  1.8934
 1297TIP3   OH225305   4.732   6.747   6.362  0.1364 -0.2109 -0.2382
 1297TIP3    H125306   4.697   6.665   6.397 -1.2168  0.6895  0.6290
 1297TIP3    H225307   4.822   6.725   6.336 -0.7530 -2.4033 -1.7480
 1298TIP3   OH225308   3.528   3.862  16.489  1.1839 -0.2672  0.3869
 1298TIP3    H125309   3.517   3.955  16.511  3.5630 -0.1174  1.1788
 1298TIP3    H225310   3.521   3.859  16.393 -1.6606  0.2382  0.4915
 1299TIP3   OH225311   4.708   4.958  14.347  0.1640  0.3677 -0.2235
 1299TIP3    H125312   4.798   4.923  14.349 -0.0334 -0.2731 -1.3823
 1299TIP3    H225313   4.702   5.002  14.262 -0.7921 -0.1097 -0.4131
 1300TIP3   OH225314   3.308   0.035  11.708 -0.1026 -0.6497  0.0773
 1300TIP3    H125315   3.282   0.080  11.627 -0.5590  0.5664  0.8653
 1300TIP3    H225316   3.338   0.105  11.766 -0.7811 -1.3588  1.3348
 1301TIP3   OH225317   2.335   0.499   0.532 -0.0355 -0.0256 -0.0868
 1301TIP3    H125318   2.263   0.545   0.576  2.5825  2.7461  1.7115
 1301TIP3    H225319   2.354   0.554   0.456  0.2031 -0.7180 -0.5289
 1302TIP3   OH225320   4.313   3.027  11.949  0.0857  0.0126 -0.1451
 1302TIP3    H125321   4.319   2.980  11.866 -0.3248  0.8631 -0.6641
 1302TIP3    H225322   4.224   3.012  11.980  0.4784 -0.9792  0.5675
 1303TIP3   OH225323   6.785   2.683  12.510  0.5632  0.2364  0.0619
 1303TIP3    H125324   6.859   2.656  12.564  1.5136  0.4660 -1.0718
 1303TIP3    H225325   6.725   2.726  12.571  1.4451  0.2044  0.9789
 1304TIP3   OH225326   0.928   6.213   5.858 -0.5276  0.0426  0.2934
 1304TIP3    H125327   0.838   6.218   5.825 -1.2796 -1.3555  1.9472
 1304TIP3    H225328   0.919   6.226   5.953  0.7435 -1.9735  0.7414
 1305TIP3   OH225329   5.413   2.900  15.500  0.4456  0.3261  0.1107
 1305TIP3    H125330   5.492   2.935  15.457  1.3645  0.3294  1.7048
 1305TIP3    H225331   5.447   2.850  15.574 -1.0129 -1.0496 -0.1072
 1306TIP3   OH225332   4.688   4.349   3.106  0.4828  0.4045 -0.3843
 1306TIP3    H125333   4.671   4.302   3.024  0.5231 -0.2281 -0.0323
 1306TIP3    H225334   4.672   4.441   3.084  1.0271  0.3091 -1.2558
 1307TIP3   OH225335   6.017   6.663  13.704 -0.1180 -0.0689 -0.0769
 1307TIP3    H125336   5.996   6.701  13.618 -0.9925  0.8808  0.5342
 1307TIP3    H225337   6.107   6.689  13.720 -0.0025 -0.1019 -0.6250
 1308TIP3   OH225338   1.600   0.366   2.780 -0.3569  0.3601  0.0318
 1308TIP3    H125339   1.579   0.286   2.733 -2.2928 -0.2989  1.8751
 1308TIP3    H225340   1.675   0.343   2.834 -1.2395 -0.4199  0.9609
 1309TIP3   OH225341   1.627   4.471   0.481  0.2548  0.0620  0.1646
 1309TIP3    H125342   1.638   4.546   0.422  0.5431 -0.3281 -0.2912
 1309TIP3    H225343   1.715   4.436   0.492  0.1602 -0.0448  0.5986
 1310TIP3   OH225344   2.061   4.363   3.859 -0.6833  0.1772 -0.0952
 1310TIP3    H125345   2.150   4.338   3.884 -0.2858  0.0249 -1.5799
 1310TIP3    H225346   2.036   4.301   3.791 -1.2212  1.3465 -1.0056
 1311TIP3   OH225347   3.467   1.919  10.864  0.0381 -0.1780 -0.4338
 1311TIP3    H125348   3.522   1.847  10.891 -0.0991  0.4136  1.5325
 1311TIP3    H225349   3.484   1.988  10.927 -1.2555  0.8313 -1.1345
 1312TIP3   OH225350   4.761   5.660   0.149  0.0296  0.5679 -0.1264
 1312TIP3    H125351   4.830   5.648   0.214  1.0403  3.8786 -0.4425
 1312TIP3    H225352   4.777   5.591   0.085  1.5843 -0.1779  0.9936
 1313TIP3   OH225353   6.745   6.295   3.017 -0.0295 -0.0537 -1.2496
 1313TIP3    H125354   6.791   6.324   2.938  1.2454 -1.7801 -1.1872
 1313TIP3    H225355   6.676   6.237   2.985  0.3808 -0.6206 -1.1107
 1314TIP3   OH225356   5.294   5.334   5.746  0.4439  0.4653 -0.2953
 1314TIP3    H125357   5.297   5.426   5.721  1.0216  0.3208 -0.7737
 1314TIP3    H225358   5.375   5.319   5.795 -0.4546  0.6328  1.3340
 1315TIP3   OH225359   5.348   5.891   2.829  0.5701 -0.0361 -0.2188
 1315TIP3    H125360   5.416   5.823   2.833  1.0813  0.4366 -0.8133
 1315TIP3    H225361   5.273   5.852   2.875  1.2632 -0.5304  0.5267
 1316TIP3   OH225362   1.224   5.496  12.523 -0.0758  0.4124  0.1011
 1316TIP3    H125363   1.230   5.571  12.465  2.1037  2.0419  2.2316
 1316TIP3    H225364   1.150   5.445  12.490 -1.8185  3.6067 -1.2891
 1317TIP3   OH225365   3.176   0.025  14.219 -1.0233 -0.8175 -0.1751
 1317TIP3    H125366   3.134  -0.011  14.298 -1.6611  1.7188  0.7209
 1317TIP3    H225367   3.264  -0.012  14.220 -0.5795  0.1112  2.4793
 1318TIP3   OH225368   4.640   5.847   1.843  0.4407  0.8701  0.0231
 1318TIP3    H125369   4.690   5.905   1.900  1.8098 -0.1549 -0.0813
 1318TIP3    H225370   4.706   5.800   1.792 -0.4776 -1.7334  1.0281
 1319TIP3   OH225371   3.105   0.128  10.953  0.5173  0.1255  0.0145
 1319TIP3    H125372   3.015   0.153  10.974  0.3419  0.9787 -1.5469
 1319TIP3    H225373   3.115   0.154  10.861  2.4145  0.1918  0.2163
 1320TIP3   OH225374   2.077   2.929  11.703 -0.4347 -0.1941 -0.2857
 1320TIP3    H125375   2.107   2.985  11.775  0.1992 -0.0915 -0.6219
 1320TIP3    H225376   2.056   2.846  11.744  1.3328 -0.6120 -0.1730
 1321TIP3   OH225377   3.119   3.088   2.183  0.2537 -0.2676  0.2846
 1321TIP3    H125378   3.208   3.112   2.158  0.7986  2.2164  3.7974
 1321TIP3    H225379   3.129   3.043   2.267 -1.7896  0.3107  0.8980
 1322TIP3   OH225380   0.731   3.781   5.172  0.0090 -0.3896  0.0711
 1322TIP3    H125381   0.795   3.748   5.108  0.3777 -1.5504  1.0159
 1322TIP3    H225382   0.771   3.861   5.206  0.6563 -0.7397  0.1580
 1323TIP3   OH225383   6.319   0.228  13.477 -0.3681 -0.8159 -0.2147
 1323TIP3    H125384   6.315   0.133  13.483  1.5116 -0.8525  1.3159
 1323TIP3    H225385   6.295   0.247  13.386 -1.6035 -2.6525 -0.3261
 1324TIP3   OH225386   0.883   6.297  11.744 -0.4581 -0.5295  0.3648
 1324TIP3    H125387   0.915   6.376  11.787 -0.0062 -1.0216  0.9512
 1324TIP3    H225388   0.885   6.230  11.812 -1.8408 -0.8082  0.1481
 1325TIP3   OH225389   1.150   2.222   5.480  0.0395 -0.2468 -1.2643
 1325TIP3    H125390   1.227   2.240   5.427  0.3369 -0.4176 -0.8989
 1325TIP3    H225391   1.155   2.287   5.551 -0.5767  0.2540 -1.6662
 1326TIP3   OH225392   1.270   4.605   0.215  0.0568  0.3748 -0.3423
 1326TIP3    H125393   1.188   4.629   0.172 -0.2841 -2.0979 -1.1974
 1326TIP3    H225394   1.248   4.602   0.308 -0.6087  0.4784 -0.4902
 1327TIP3   OH225395   6.497   1.090   0.244 -0.3198 -0.1429 -0.5881
 1327TIP3    H125396   6.521   1.121   0.157  1.4549  0.8648  0.2073
 1327TIP3    H225397   6.402   1.102   0.249 -0.3940  0.1525 -2.2284
 1328TIP3   OH225398   6.365   0.310  11.797 -0.3357  0.1967  0.3892
 1328TIP3    H125399   6.378   0.388  11.852  0.9975  0.5496 -0.3935
 1328TIP3    H225400   6.393   0.237  11.852 -1.0833  0.3062  0.9375
 1329TIP3   OH225401   4.656   4.369   1.664 -0.7320  0.2293  0.0739
 1329TIP3    H125402   4.672   4.380   1.570  0.1558 -1.3419  0.0017
 1329TIP3    H225403   4.566   4.336   1.669 -0.7875  0.3339 -0.2119
 1330TIP3   OH225404   2.278   1.084   3.477 -0.2846  0.2852 -0.3940
 1330TIP3    H125405   2.360   1.129   3.495  0.8272 -1.4501 -0.9095
 1330TIP3    H225406   2.284   1.058   3.385 -0.9662 -0.7018 -0.1817
 1331TIP3   OH225407   1.432   5.182   3.599  0.1706  0.6072  1.0991
 1331TIP3    H125408   1.366   5.196   3.531 -0.8107 -1.1565  1.6350
 1331TIP3    H225409   1.506   5.237   3.571 -1.0625  1.7544 -0.1179
 1332TIP3   OH225410   5.739   1.715   2.250  0.0315 -0.3869 -0.6782
 1332TIP3    H125411   5.690   1.779   2.198 -1.1365 -0.7935 -0.1147
 1332TIP3    H225412   5.672   1.665   2.296  1.0098 -0.2795  0.9627
 1333TIP3   OH225413   0.971   6.773   4.511  0.4749 -0.0355 -0.5200
 1333TIP3    H125414   0.934   6.837   4.571  1.3525 -0.7101  0.8105
 1333TIP3    H225415   1.030   6.823   4.455  2.7266  0.1291  1.8223
 1334TIP3   OH225416   1.270   4.691  11.385  0.0900  0.3648 -0.0841
 1334TIP3    H125417   1.265   4.604  11.424  1.5650  0.6368  0.7677
 1334TIP3    H225418   1.178   4.720  11.380 -0.3412 -0.8344  0.5117
 1335TIP3   OH225419   1.316   2.521   0.920  0.0790  0.5154 -0.8325
 1335TIP3    H125420   1.329   2.615   0.912  0.6475  0.5436  0.2390
 1335TIP3    H225421   1.270   2.509   1.003  0.8253 -0.2003 -0.5063
 1336TIP3   OH225422   6.345   2.638  14.138  0.4202 -0.4630  0.2471
 1336TIP3    H125423   6.344   2.613  14.231  0.7851 -0.6697  0.1991
 1336TIP3    H225424   6.378   2.560  14.093 -0.6272 -0.6861 -0.1586
 1337TIP3   OH225425   6.148   2.810   4.352  0.6599 -0.0576  0.5678
 1337TIP3    H125426   6.174   2.866   4.279  1.0151 -0.0350  0.7089
 1337TIP3    H225427   6.108   2.734   4.311 -1.7295  1.1909  0.3968
 1338TIP3   OH225428   3.390   6.732   1.970 -0.1059 -0.2232 -0.5511
 1338TIP3    H125429   3.337   6.771   1.901  0.3273  0.5318 -0.4708
 1338TIP3    H225430   3.340   6.655   1.998 -1.9046  1.2254  0.4979
 1339TIP3   OH225431   1.671   2.254   2.232  0.3169  0.3457 -0.5303
 1339TIP3    H125432   1.729   2.303   2.174  0.0518  2.5121  0.8988
 1339TIP3    H225433   1.589   2.305   2.233 -0.4947 -0.9154 -0.0630
 1340TIP3   OH225434   3.262   0.686  13.879  0.0013 -0.3132 -0.5914
 1340TIP3    H125435   3.279   0.595  13.902  1.3348  0.0059 -0.2109
 1340TIP3    H225436   3.298   0.696  13.791  1.6299  0.3035  0.1090
 1341TIP3   OH225437   5.794   4.221  14.987  0.1600 -0.1373  0.1662
 1341TIP3    H125438   5.775   4.279  15.061  0.5193 -0.1922  0.3034
 1341TIP3    H225439   5.888   4.231  14.972  0.2402 -0.7506  0.2475
 1342TIP3   OH225440   4.472   0.561  12.396 -0.4015 -0.1017  0.3034
 1342TIP3    H125441   4.397   0.578  12.452 -0.3542  0.3859  0.2209
 1342TIP3    H225442   4.520   0.643  12.393  0.2015 -0.4401  0.4465
 1343TIP3   OH225443   4.321   1.740  13.615  0.3642  0.5644  0.1737
 1343TIP3    H125444   4.333   1.825  13.659 -1.2914  1.0118 -0.1669
 1343TIP3    H225445   4.226   1.733  13.603  0.4347 -1.5410  0.5645
 1344TIP3   OH225446   3.457   4.622  16.789 -0.4834 -0.1537  0.4903
 1344TIP3    H125447   3.462   4.704  16.740 -1.0399 -0.4257 -0.0332
 1344TIP3    H225448   3.363   4.603  16.796 -0.3572 -2.0361 -1.6256
 1345TIP3   OH225449   4.226   3.248   3.385 -0.0695  0.5632  0.0577
 1345TIP3    H125450   4.215   3.240   3.480 -0.1398 -2.5308 -0.1132
 1345TIP3    H225451   4.141   3.220   3.349  0.4252  0.2909 -0.9282
 1346TIP3   OH225452   3.796   4.733  14.103 -0.4539 -0.4939  0.2965
 1346TIP3    H125453   3.871   4.688  14.141  0.1904  0.3950  0.1283
 1346TIP3    H225454   3.778   4.804  14.164 -1.9155 -1.3868  0.9380
 1347TIP3   OH225455   5.389   3.901   0.009  0.7116  0.5394 -0.1983
 1347TIP3    H125456   5.360   3.980  -0.038  0.8801  0.9045  0.2987
 1347TIP3    H225457   5.392   3.833  -0.058  0.1620  0.8582 -0.5554
 1348TIP3   OH225458   4.387   3.746   4.593  0.3128  0.0727  0.2720
 1348TIP3    H125459   4.348   3.691   4.525  1.9801  0.2645 -0.8983
 1348TIP3    H225460   4.327   3.738   4.667 -1.8504  0.2460 -1.3484
 1349TIP3   OH225461   3.906   1.107  14.685  0.5128  0.3291  0.0218
 1349TIP3    H125462   3.968   1.061  14.741  1.2695 -0.0237 -1.0659
 1349TIP3    H225463   3.915   1.199  14.711  0.8947  0.1794  0.4443
 1350TIP3   OH225464   1.868   3.580  16.726  0.7667  0.1427 -0.4254
 1350TIP3    H125465   1.781   3.567  16.764 -0.6854  2.9327 -2.4005
 1350TIP3    H225466   1.864   3.534  16.642  1.1408  0.3609 -0.5629
 1351TIP3   OH225467   4.886   6.467   4.390 -0.3570 -0.5370 -0.0168
 1351TIP3    H125468   4.933   6.440   4.311 -0.6912 -0.8985 -0.0972
 1351TIP3    H225469   4.918   6.555   4.409 -0.0813 -0.5529 -0.4042
 1352TIP3   OH225470   2.625   2.157   3.631  0.9984  0.0601  0.2162
 1352TIP3    H125471   2.594   2.168   3.541  1.0171 -1.4564 -0.0072
 1352TIP3    H225472   2.609   2.241   3.673 -0.2557  0.3710 -0.8383
 1353TIP3   OH225473   1.474   6.357  17.176 -0.8824 -0.3156  0.2478
 1353TIP3    H125474   1.464   6.425  17.242 -0.5643  0.6121 -0.6371
 1353TIP3    H225475   1.384   6.334  17.151 -0.9916 -0.2869  0.6098
 1354TIP3   OH225476   2.033   1.676  13.463 -0.0773  0.2890 -0.1600
 1354TIP3    H125477   2.050   1.695  13.371 -0.8426 -0.6732 -0.5150
 1354TIP3    H225478   1.957   1.730  13.485  0.3812  0.8573  0.0373
 1355TIP3   OH225479   4.765   0.126  13.705  0.1024 -0.0075  0.1478
 1355TIP3    H125480   4.812   0.042  13.697 -0.5172 -0.2994 -0.5243
 1355TIP3    H225481   4.834   0.190  13.721  0.8328 -0.3127 -1.5837
 1356TIP3   OH225482   3.722   0.120   5.778 -0.0733  0.0550 -0.2484
 1356TIP3    H125483   3.663   0.194   5.759 -0.0213 -0.1280 -1.2114
 1356TIP3    H225484   3.669   0.058   5.827 -0.8884 -0.3526 -1.5799
 1357TIP3   OH225485   4.938   6.229   2.844  0.4179  0.2037 -0.3863
 1357TIP3    H125486   5.027   6.235   2.879  0.7407 -0.1412 -1.1229
 1357TIP3    H225487   4.898   6.158   2.895  0.6819  0.1150 -0.2983
 1358TIP3   OH225488   3.251   5.401   5.423 -0.1250  0.4088  0.4700
 1358TIP3    H125489   3.346   5.385   5.423  0.1582  1.8021 -0.9304
 1358TIP3    H225490   3.233   5.436   5.509  0.4635 -0.6506  1.0561
 1359TIP3   OH225491   4.824   3.911   1.675  0.2507 -0.0752  0.2601
 1359TIP3    H125492   4.831   3.852   1.749 -0.4539 -0.5707 -0.0621
 1359TIP3    H225493   4.738   3.892   1.636 -0.6683  2.1874  1.0307
 1360TIP3   OH225494   4.130   0.810   1.688  0.2067 -0.0715  0.0251
 1360TIP3    H125495   4.192   0.880   1.711  0.3986 -0.3762  0.4686
 1360TIP3    H225496   4.080   0.796   1.768 -0.1480 -0.1203 -0.2066
 1361TIP3   OH225497   0.170   6.192  15.834 -0.3577  0.5133  0.3988
 1361TIP3    H125498   0.181   6.286  15.820 -0.1592  0.3105 -0.9562
 1361TIP3    H225499   0.254   6.154  15.808 -0.5803 -0.0757  0.5321
 1362TIP3   OH225500   1.980   1.219   6.655  0.3699 -0.2972 -0.1487
 1362TIP3    H125501   1.989   1.272   6.576  1.7151 -0.5706 -0.2006
 1362TIP3    H225502   2.069   1.205   6.685 -0.0809 -0.8244  1.0157
 1363TIP3   OH225503   0.518   3.121  15.501 -0.2217  0.3988 -0.1191
 1363TIP3    H125504   0.506   3.075  15.584  2.4393 -0.8393 -0.3278
 1363TIP3    H225505   0.520   3.214  15.524  1.0314  0.0420  1.3221
 1364TIP3   OH225506   3.398   5.759   4.929 -0.6213  0.3710  0.6196
 1364TIP3    H125507   3.305   5.772   4.946 -0.0002  1.3793  4.0048
 1364TIP3    H225508   3.405   5.668   4.901 -2.5436  0.0225  1.1443
 1365TIP3   OH225509   0.305   4.719   0.377  0.3061  0.0583  0.4276
 1365TIP3    H125510   0.286   4.670   0.297 -0.0121  0.6700  0.1233
 1365TIP3    H225511   0.221   4.756   0.404  0.9527  2.8576 -0.9737
 1366TIP3   OH225512   4.222   0.990   2.800 -0.4016 -0.0950  0.1631
 1366TIP3    H125513   4.180   1.073   2.777 -0.4729 -0.3521 -0.6550
 1366TIP3    H225514   4.316   1.009   2.797 -0.4248  0.4189  1.7647
 1367TIP3   OH225515   6.265   0.955  12.473 -0.2495 -0.4002 -0.0571
 1367TIP3    H125516   6.194   0.898  12.444  0.2574  0.9044 -4.4878
 1367TIP3    H225517   6.259   1.033  12.418  3.4237  0.6734  0.7348
 1368TIP3   OH225518   1.635   6.126  12.818  0.4428  0.2152  0.0788
 1368TIP3    H125519   1.708   6.081  12.776 -1.8307 -0.8976 -3.0320
 1368TIP3    H225520   1.622   6.205  12.766 -2.7355 -1.4264 -1.9240
 1369TIP3   OH225521   3.283   3.463  13.151 -0.8245 -0.2441  0.1467
 1369TIP3    H125522   3.195   3.432  13.174 -1.2199 -0.1411 -1.1990
 1369TIP3    H225523   3.321   3.391  13.102 -0.6918  0.2672 -0.5118
 1370TIP3   OH225524   4.307   1.383  11.649  0.0555  0.1922 -0.3343
 1370TIP3    H125525   4.377   1.420  11.596  1.8000  0.8530  2.2724
 1370TIP3    H225526   4.262   1.459  11.686 -0.2579 -0.2492  0.2094
 1371TIP3   OH225527   3.103   1.788  12.682 -0.0318 -0.0946 -0.5385
 1371TIP3    H125528   3.064   1.806  12.767 -0.6084 -0.9356 -0.6139
 1371TIP3    H225529   3.049   1.718  12.645  1.6963 -1.5076 -0.5197
 1372TIP3   OH225530   4.952   2.867   4.050  0.5024  0.0798  0.5637
 1372TIP3    H125531   4.943   2.781   4.008  1.0282 -0.5154  1.6220
 1372TIP3    H225532   4.869   2.880   4.095  1.1236 -0.8405  2.0783
 1373TIP3   OH225533   3.718   3.233  13.025 -0.0797  0.1358  0.3199
 1373TIP3    H125534   3.798   3.277  13.055 -0.6212  0.8853  0.7090
 1373TIP3    H225535   3.738   3.140  13.031  0.6144  0.3064  0.8233
 1374TIP3   OH225536   2.145   0.824   2.513  0.2114 -0.1997  0.3785
 1374TIP3    H125537   2.238   0.841   2.526  0.0418  1.5943 -0.4315
 1374TIP3    H225538   2.102   0.905   2.542 -1.0041 -0.5954 -0.2746
 1375TIP3   OH225539   3.555   5.511  10.869  0.1152 -0.8861  0.1380
 1375TIP3    H125540   3.604   5.593  10.875 -0.9189  0.0049 -2.2857
 1375TIP3    H225541   3.515   5.501  10.955  1.0906  0.6126  0.8147
 1376TIP3   OH225542   1.301   0.672   4.873 -0.4169 -0.1182  0.1643
 1376TIP3    H125543   1.233   0.654   4.939 -0.4159 -0.5637  0.0511
 1376TIP3    H225544   1.382   0.642   4.913  0.0984  2.4562  1.2013
 1377TIP3   OH225545   3.732   4.000  15.534  0.6223 -0.6110 -0.2474
 1377TIP3    H125546   3.822   3.978  15.509  0.2183 -0.4368 -1.9492
 1377TIP3    H225547   3.684   4.004  15.452 -0.2205  2.7214  0.2618
 1378TIP3   OH225548   3.690   0.191  15.546  0.0522 -0.4591 -0.0620
 1378TIP3    H125549   3.665   0.158  15.632 -0.5542 -1.3224 -0.5529
 1378TIP3    H225550   3.786   0.188  15.546  0.0327 -2.8332 -0.2725
 1379TIP3   OH225551   5.543   2.416  11.357 -0.1927  0.1961 -0.3441
 1379TIP3    H125552   5.636   2.417  11.332  0.0179 -0.2992  0.3706
 1379TIP3    H225553   5.498   2.381  11.280  0.4211 -1.1948 -0.1130
 1380TIP3   OH225554   5.795   6.502   1.071 -0.1062 -0.1912 -0.2487
 1380TIP3    H125555   5.772   6.552   1.149  0.0910 -2.8294  1.6523
 1380TIP3    H225556   5.861   6.556   1.027  0.7712  0.8291  2.1347
 1381TIP3   OH225557   6.292   5.679  12.183 -0.1563 -0.4709  1.0756
 1381TIP3    H125558   6.225   5.616  12.211 -0.1482 -0.7672  0.4468
 1381TIP3    H225559   6.372   5.647  12.223  0.1667 -1.8124 -0.5080
 1382TIP3   OH225560   4.472   1.975  11.112 -0.4366  0.5920 -0.1844
 1382TIP3    H125561   4.378   1.962  11.108 -0.3179 -0.5781  0.4175
 1382TIP3    H225562   4.500   1.983  11.021 -1.0949  0.8187 -0.3657
 1383TIP3   OH225563   5.540   3.442  16.188  0.1473  0.1995  0.0726
 1383TIP3    H125564   5.507   3.352  16.178 -2.1461  0.8912  0.7129
 1383TIP3    H225565   5.629   3.439  16.154 -1.0887 -1.4762 -3.5120
 1384TIP3   OH225566   0.277   4.462   4.182 -0.1903  0.2593 -0.0323
 1384TIP3    H125567   0.211   4.407   4.139 -1.3503  1.6529 -0.1119
 1384TIP3    H225568   0.228   4.536   4.217  1.0708  0.3687  1.6455
 1385TIP3   OH225569   2.899   1.543   3.401 -0.3497  0.7171  0.3218
 1385TIP3    H125570   2.880   1.456   3.367  2.6218 -0.6843  1.8347
 1385TIP3    H225571   2.857   1.546   3.487  0.5846  0.2133  0.8174
 1386TIP3   OH225572   5.104   3.398  11.401 -0.2155  0.3800 -0.0608
 1386TIP3    H125573   5.056   3.479  11.417 -0.1233  0.1875  1.3689
 1386TIP3    H225574   5.131   3.403  11.310 -2.5819  0.6853 -0.8214
 1387TIP3   OH225575   0.319   3.773   4.694  0.3314 -0.0955 -0.1120
 1387TIP3    H125576   0.319   3.823   4.776 -0.6345 -2.1277  1.2213
 1387TIP3    H225577   0.410   3.777   4.664  0.3496  2.1583  0.0531
 1388TIP3   OH225578   0.301   6.317  14.078 -0.0243  0.0767 -0.2505
 1388TIP3    H125579   0.275   6.290  14.166  0.4460  1.0620  0.2063
 1388TIP3    H225580   0.242   6.390  14.057  0.8313  0.8215 -0.1372
 1389TIP3   OH225581   4.225   6.676  12.526  0.0768 -0.0389 -0.0334
 1389TIP3    H125582   4.279   6.679  12.604  1.5711 -0.4206 -1.0229
 1389TIP3    H225583   4.275   6.723  12.459  0.4023 -2.5317 -1.6672
 1390TIP3   OH225584   5.214   4.653   1.944 -0.4471 -0.2503 -0.4526
 1390TIP3    H125585   5.288   4.606   1.905 -1.5745 -1.4035 -1.3068
 1390TIP3    H225586   5.222   4.742   1.911 -0.7732 -0.9366 -2.5290
 1391TIP3   OH225587   5.027   5.979   5.182 -0.1197 -0.4813 -0.6063
 1391TIP3    H125588   5.067   6.025   5.108  2.4264 -1.7608 -0.1408
 1391TIP3    H225589   5.078   5.899   5.191 -1.2229 -1.0154  1.6810
 1392TIP3   OH225590   1.864   3.113  17.155 -0.2186 -0.1408  0.6749
 1392TIP3    H125591   1.786   3.138  17.204  0.3083  1.6935  0.6584
 1392TIP3    H225592   1.850   3.151  17.068  1.5183  1.9753  1.2418
 1393TIP3   OH225593   2.974   6.131  11.817  0.5659 -0.0596  0.3979
 1393TIP3    H125594   3.019   6.094  11.892 -0.4993 -1.0246  0.5878
 1393TIP3    H225595   3.037   6.192  11.779  1.1575  0.4202  2.0331
 1394TIP3   OH225596   0.184   2.100  13.197 -0.0085  0.2830  0.1576
 1394TIP3    H125597   0.109   2.122  13.141 -1.1032 -0.7264  1.1498
 1394TIP3    H225598   0.239   2.044  13.143 -0.9135 -0.4573 -0.0235
 1395TIP3   OH225599   2.823   4.573  15.832 -0.1886  0.0440  0.6129
 1395TIP3    H125600   2.756   4.636  15.857 -0.6715  0.4979 -1.6453
 1395TIP3    H225601   2.868   4.613  15.758  1.3401 -1.0912  0.8637
 1396TIP3   OH225602   0.244   2.513  14.225  0.1225 -0.0544 -0.3040
 1396TIP3    H125603   0.224   2.448  14.293  0.4870  0.3046  0.1603
 1396TIP3    H225604   0.260   2.461  14.146  1.0362 -0.5821  0.2128
 1397TIP3   OH225605   1.754   2.483   5.708 -0.1189  0.0492  0.4519
 1397TIP3    H125606   1.689   2.415   5.688 -0.0033  0.0197  0.1677
 1397TIP3    H225607   1.741   2.502   5.801 -1.0468  0.5845  0.2266
 1398TIP3   OH225608   3.408   3.521   0.152 -0.1199 -0.1018  0.0600
 1398TIP3    H125609   3.380   3.431   0.166 -0.9936 -0.0186 -0.9401
 1398TIP3    H225610   3.410   3.560   0.239 -1.4314 -0.6362  0.3609
 1399TIP3   OH225611   2.818   3.059  13.534  0.2024 -0.1055 -0.2392
 1399TIP3    H125612   2.743   3.113  13.506 -0.8080 -1.3253  0.0117
 1399TIP3    H225613   2.871   3.117  13.587 -0.6218  0.7718 -0.3464
 1400TIP3   OH225614   2.426   0.530   3.062  0.0712  0.3420 -0.2720
 1400TIP3    H125615   2.450   0.437   3.056  0.7594  0.5739 -1.3801
 1400TIP3    H225616   2.332   0.531   3.044 -0.4498 -0.3644  2.0797
 1401TIP3   OH225617   5.165   6.134  14.005 -0.1934  0.1936 -0.1704
 1401TIP3    H125618   5.085   6.080  14.004  0.2721 -0.5091 -0.3388
 1401TIP3    H225619   5.146   6.205  13.944 -0.9458  0.4173  0.3090
 1402TIP3   OH225620   3.177   2.213   3.828  0.1425 -0.1215  0.6396
 1402TIP3    H125621   3.220   2.136   3.792  0.4431  0.4535 -0.2712
 1402TIP3    H225622   3.109   2.178   3.884  0.8171 -1.0511  0.9110
 1403TIP3   OH225623   5.804   1.946  12.300 -0.1974  0.3053 -0.3159
 1403TIP3    H125624   5.730   1.938  12.360  1.2930 -0.1494  1.5769
 1403TIP3    H225625   5.798   2.036  12.267 -1.4615  0.3368 -0.0544
 1404TIP3   OH225626   3.704   0.409  13.520  0.2081 -0.3886 -0.8645
 1404TIP3    H125627   3.663   0.457  13.448  0.4638  0.7675 -0.2566
 1404TIP3    H225628   3.639   0.343  13.545 -0.1835 -0.3153 -1.6525
 1405TIP3   OH225629   3.799   0.309   0.312  0.1098  0.2870  0.2298
 1405TIP3    H125630   3.818   0.285   0.402 -0.6385 -3.0276 -0.3390
 1405TIP3    H225631   3.880   0.287   0.264  0.0944  0.8952 -0.0872
 1406TIP3   OH225632   0.217   6.250  11.022  0.0311 -0.0749  0.2209
 1406TIP3    H125633   0.226   6.175  11.080 -0.0349 -0.7343 -0.6037
 1406TIP3    H225634   0.131   6.238  10.982  0.3530  0.0130 -0.5043
 1407TIP3   OH225635   3.564   6.303  16.482 -0.0265 -0.8133  0.0347
 1407TIP3    H125636   3.599   6.231  16.430 -1.5092 -0.7283 -1.1334
 1407TIP3    H225637   3.506   6.351  16.423  0.1882  0.7989  1.0548
 1408TIP3   OH225638   1.055   4.989  16.760 -0.0094  0.4070  0.5288
 1408TIP3    H125639   1.125   5.051  16.739  0.8539  0.1172  2.3303
 1408TIP3    H225640   0.975   5.033  16.733  0.7204  1.5556  0.1487
 1409TIP3   OH225641   6.160   1.571  17.099  0.2340 -0.0347 -0.3205
 1409TIP3    H125642   6.169   1.653  17.050 -0.4609 -0.4701 -1.2128
 1409TIP3    H225643   6.148   1.504  17.031 -0.6673 -0.6688  0.4376
 1410TIP3   OH225644   0.627   1.824  15.069 -0.3176 -0.0914  0.4003
 1410TIP3    H125645   0.723   1.828  15.077 -0.3129 -0.8610  0.9369
 1410TIP3    H225646   0.611   1.746  15.016 -0.6641 -0.3763  0.9140
 1411TIP3   OH225647   4.106   5.598  12.224 -0.1730  0.0735  0.7132
 1411TIP3    H125648   4.059   5.516  12.209  0.6007 -0.1756 -0.3960
 1411TIP3    H225649   4.138   5.591  12.314 -2.8457  0.5670  1.8017
 1412TIP3   OH225650   3.839   3.759   3.455  0.5880  0.3075 -0.0609
 1412TIP3    H125651   3.820   3.748   3.362 -3.0372 -0.3952  0.6194
 1412TIP3    H225652   3.850   3.670   3.488 -1.4825  0.2959  0.7016
 1413TIP3   OH225653   3.125   0.424  10.817 -0.6327 -0.0387 -0.4874
 1413TIP3    H125654   3.055   0.441  10.881  0.1642 -1.8274  0.9715
 1413TIP3    H225655   3.171   0.507  10.809  0.1163 -0.0637  2.4559
 1414TIP3   OH225656   6.678   5.596   4.829  0.1448 -0.0092 -0.2191
 1414TIP3    H125657   6.696   5.512   4.786 -0.9057 -0.6109  0.4847
 1414TIP3    H225658   6.761   5.619   4.872  0.3048 -0.9462 -0.0045
 1415TIP3   OH225659   5.458   4.516   2.298  0.0834 -0.0382 -0.3041
 1415TIP3    H125660   5.397   4.519   2.224 -0.7760  0.2306  0.3913
 1415TIP3    H225661   5.540   4.486   2.261 -0.1227  0.8287 -1.5170
 1416TIP3   OH225662   1.677   2.497   0.232 -0.5017 -0.2117  0.4633
 1416TIP3    H125663   1.737   2.512   0.305 -1.5198 -0.9421  1.4849
 1416TIP3    H225664   1.677   2.579   0.183  0.3622  0.2162  1.1566
 1417TIP3   OH225665   5.707   5.511  12.674 -0.2847  0.0687  0.2325
 1417TIP3    H125666   5.778   5.573  12.690 -1.8639  1.4944  2.2902
 1417TIP3    H225667   5.701   5.505  12.578  1.9566  0.6210  0.0209
 1418TIP3   OH225668   2.078   2.551   4.068 -0.2413 -0.0023 -0.2281
 1418TIP3    H125669   2.131   2.521   3.995 -0.7972 -1.8097  0.0722
 1418TIP3    H225670   2.120   2.632   4.096  2.0474 -1.0718 -0.3309
 1419TIP3   OH225671   4.662   4.196   3.666  1.0176  0.2269  0.0513
 1419TIP3    H125672   4.588   4.163   3.615  1.6002  0.3954 -0.9334
 1419TIP3    H225673   4.728   4.219   3.600  2.7168 -1.7551  0.9452
 1420TIP3   OH225674   1.541   5.353   2.228  0.3949 -0.1416  0.2476
 1420TIP3    H125675   1.529   5.323   2.138 -1.2656 -0.7113  0.6241
 1420TIP3    H225676   1.554   5.447   2.221 -0.9698  0.0169 -0.5399
 1421TIP3   OH225677   4.102   1.315   4.561 -0.2393  0.1291 -0.0227
 1421TIP3    H125678   4.045   1.380   4.520 -1.6088  0.3088  1.9994
 1421TIP3    H225679   4.049   1.235   4.564  0.5191 -0.3992 -0.2386
 1422TIP3   OH225680   4.123   1.840   1.688 -0.4568  0.1078 -0.0331
 1422TIP3    H125681   4.194   1.811   1.630  0.3635 -1.4718  1.6486
 1422TIP3    H225682   4.167   1.861   1.771 -1.8917 -0.5782  0.9477
 1423TIP3   OH225683   1.596   1.376  11.043 -0.5868 -0.0194  0.1167
 1423TIP3    H125684   1.541   1.404  11.116 -1.1540  0.9224 -0.6507
 1423TIP3    H225685   1.546   1.397  10.965 -0.1053 -1.2709 -0.5559
 1424TIP3   OH225686   0.964   5.664   2.923 -0.1377  0.4651  0.3649
 1424TIP3    H125687   0.880   5.618   2.918  1.4287 -2.4612 -2.5616
 1424TIP3    H225688   0.977   5.681   3.017 -2.9585 -0.8941  1.1088
 1425TIP3   OH225689   6.712   4.697   5.467  0.2334 -0.2598  0.6757
 1425TIP3    H125690   6.773   4.757   5.424  0.1820 -1.2678 -0.8784
 1425TIP3    H225691   6.700   4.733   5.555 -1.5728  3.3534 -0.8514
 1426TIP3   OH225692   4.486   0.132   4.067 -0.3377 -0.4190  0.2753
 1426TIP3    H125693   4.523   0.045   4.051 -2.0442 -1.3456  1.1803
 1426TIP3    H225694   4.512   0.182   3.989  0.5096 -1.7678 -0.3727
 1427TIP3   OH225695   2.331   4.062  12.426  0.0570  0.1350  0.5200
 1427TIP3    H125696   2.329   4.079  12.332  0.0379  0.1876  0.5300
 1427TIP3    H225697   2.271   4.126  12.464  0.2463  0.2707  0.5916
 1428TIP3   OH225698   4.772   6.682   2.905  0.1895 -0.5547  1.2080
 1428TIP3    H125699   4.749   6.700   2.814  1.1551 -1.2555  0.8163
 1428TIP3    H225700   4.762   6.587   2.914  2.1211 -0.7861  1.2358
 1429TIP3   OH225701   4.847   0.781   4.979 -0.1609  0.4441  0.4672
 1429TIP3    H125702   4.767   0.832   4.992 -0.2697  0.0498  1.4428
 1429TIP3    H225703   4.916   0.846   4.969 -0.7542  0.8242 -1.7296
 1430TIP3   OH225704   2.745   0.093   1.378  0.0210  0.1417  0.4848
 1430TIP3    H125705   2.738   0.045   1.296 -0.9226  0.7417  0.1950
 1430TIP3    H225706   2.711   0.180   1.358  4.0374  1.8852  0.2753
 1431TIP3   OH225707   1.752   2.928   6.626  0.0135  0.0922 -0.3936
 1431TIP3    H125708   1.660   2.903   6.631  0.2366 -0.5393  0.7384
 1431TIP3    H225709   1.788   2.873   6.557 -0.4540  0.3781 -0.8794
 1432TIP3   OH225710   1.355   1.501   2.874  0.6455 -0.0590 -0.0329
 1432TIP3    H125711   1.417   1.437   2.908 -0.8832 -1.6353 -0.0579
 1432TIP3    H225712   1.303   1.528   2.950 -0.8988 -1.4235 -0.5494
 1433TIP3   OH225713   5.072   3.801  13.064 -1.1131 -0.0222 -0.5443
 1433TIP3    H125714   5.047   3.845  12.982  0.2083 -2.2801 -2.2644
 1433TIP3    H225715   5.013   3.726  13.070 -1.3544  0.2520  0.7311
 1434TIP3   OH225716   1.904   1.238  14.923 -0.1781  0.5952 -0.1503
 1434TIP3    H125717   1.873   1.329  14.915 -0.6147  0.3663 -1.2265
 1434TIP3    H225718   1.838   1.186  14.877 -0.1777 -0.3372  0.8594
 1435TIP3   OH225719   3.303   2.634   5.947 -0.3662  0.1838  0.7639
 1435TIP3    H125720   3.235   2.568   5.965 -1.8701  1.6324  0.6387
 1435TIP3    H225721   3.259   2.717   5.962  0.3146  1.3310 -2.6819
 1436TIP3   OH225722   0.089   1.588   2.795  0.1621  0.4786 -0.1834
 1436TIP3    H125723   0.127   1.640   2.723  1.4170  1.5807  1.1936
 1436TIP3    H225724   0.159   1.585   2.861 -0.4320 -1.7309  0.4166
 1437TIP3   OH225725   3.642   5.767  15.442 -0.1234 -0.3780 -0.0291
 1437TIP3    H125726   3.656   5.807  15.357  2.4890 -0.1544  0.3995
 1437TIP3    H225727   3.665   5.675  15.429 -0.0125 -0.4050  0.3384
 1438TIP3   OH225728   4.784   6.220   3.152 -0.1601 -0.4609  0.1582
 1438TIP3    H125729   4.777   6.315   3.148 -1.0961 -0.4881  0.8481
 1438TIP3    H225730   4.874   6.201   3.127 -0.4819  0.4790 -1.9235
 1439TIP3   OH225731   3.394   0.410  12.077 -0.1167 -0.4384  0.6386
 1439TIP3    H125732   3.470   0.399  12.134  0.7125 -1.6298 -0.6358
 1439TIP3    H225733   3.332   0.344  12.108 -0.1526 -0.2735  0.9208
 1440TIP3   OH225734   3.439   5.193  15.235 -0.0220  0.6976 -0.0311
 1440TIP3    H125735   3.423   5.280  15.272 -1.4016 -0.2271  1.7283
 1440TIP3    H225736   3.449   5.136  15.311 -1.7718 -1.1067 -1.0401
 1441TIP3   OH225737   0.045   4.965  16.805 -0.0354 -0.3443 -0.0265
 1441TIP3    H125738   0.089   5.017  16.738 -0.1662 -0.6498 -0.3508
 1441TIP3    H225739  -0.048   4.981  16.791 -0.0574  2.2957  2.2171
 1442TIP3   OH225740   2.849   5.455   3.419  0.0775 -0.5682  0.2366
 1442TIP3    H125741   2.861   5.496   3.505 -0.9781  0.0805  0.0851
 1442TIP3    H225742   2.888   5.367   3.430 -0.7264 -0.7864  1.6246
 1443TIP3   OH225743   1.192   2.513  16.395 -0.1367  0.2504  0.3616
 1443TIP3    H125744   1.181   2.577  16.325 -0.2721 -0.0465  0.1111
 1443TIP3    H225745   1.139   2.438  16.368  0.9232 -0.4234  0.0982
 1444TIP3   OH225746   3.554   4.709  12.777 -0.4665  0.0362  0.5486
 1444TIP3    H125747   3.589   4.728  12.864  1.1575  0.4189 -0.1623
 1444TIP3    H225748   3.539   4.614  12.778  0.1610 -0.0658  1.0259
 1445TIP3   OH225749   0.004   2.435  12.746  0.4692 -0.1648  0.1349
 1445TIP3    H125750  -0.071   2.415  12.690 -0.6661  0.1640  1.4770
 1445TIP3    H225751   0.033   2.522  12.717  1.8475 -1.2473 -1.9348
 1446TIP3   OH225752   2.896   6.132  13.522 -0.2319 -0.3111 -0.3822
 1446TIP3    H125753   2.931   6.206  13.572 -2.9354  0.6140  0.2941
 1446TIP3    H225754   2.880   6.065  13.587  1.9898 -1.5148 -0.9661
 1447TIP3   OH225755   3.838   6.361  12.558  0.3569 -0.3031  0.8482
 1447TIP3    H125756   3.845   6.387  12.467  0.1201 -1.4175  0.4922
 1447TIP3    H225757   3.754   6.396  12.587  0.1497 -0.4599  0.4489
 1448TIP3   OH225758   1.209   2.246   4.505 -0.5083  0.0569  0.5253
 1448TIP3    H125759   1.153   2.190   4.451 -0.2490  0.5349 -0.2518
 1448TIP3    H225760   1.172   2.333   4.496  1.6096  0.8506 -1.8781
 1449TIP3   OH225761   6.274   3.395   5.419  0.0632  0.3088 -0.1540
 1449TIP3    H125762   6.237   3.421   5.334 -0.5933  0.5953  0.2164
 1449TIP3    H225763   6.207   3.418   5.483  0.8999  0.8561  0.5415
 1450TIP3   OH225764   0.956   1.692  14.717  0.1504 -0.9539 -0.2154
 1450TIP3    H125765   0.971   1.617  14.659 -1.7204 -2.4221  1.0477
 1450TIP3    H225766   0.977   1.659  14.805  1.5000  0.7496  0.1515
 1451TIP3   OH225767   6.675   3.440  13.891 -0.5827 -0.3823 -0.0927
 1451TIP3    H125768   6.679   3.535  13.897 -1.8485 -0.3001 -0.2286
 1451TIP3    H225769   6.765   3.411  13.905 -0.8169  0.5202  4.7301
 1452TIP3   OH225770   5.022   0.120  15.366  0.1786  0.6950  0.2778
 1452TIP3    H125771   5.097   0.126  15.308  1.2021 -0.2199  1.4516
 1452TIP3    H225772   5.059   0.127  15.454 -0.8353 -1.6097  0.9657
 1453TIP3   OH225773   1.936   6.380  14.613 -0.0253  0.5897  0.6005
 1453TIP3    H125774   1.912   6.288  14.602  0.4816  0.4481  0.6264
 1453TIP3    H225775   2.032   6.379  14.616 -0.0369  0.9904  1.6655
 1454TIP3   OH225776   4.935   2.857  12.518 -0.2505 -0.3179 -0.0554
 1454TIP3    H125777   5.008   2.857  12.456 -0.9259 -0.3016 -0.8664
 1454TIP3    H225778   4.913   2.764  12.528 -0.8031 -0.2609 -0.6522
 1455TIP3   OH225779   2.249   0.341  15.453 -0.6961  0.2086 -0.1229
 1455TIP3    H125780   2.322   0.374  15.400  0.1520 -1.0314  0.2263
 1455TIP3    H225781   2.171   0.362  15.401  0.0002  0.3780 -1.1444
 1456TIP3   OH225782   5.701   4.462  16.049 -0.5002 -0.3636  0.1204
 1456TIP3    H125783   5.712   4.406  15.972  0.9874  0.1735 -0.0894
 1456TIP3    H225784   5.656   4.407  16.113 -1.7905 -0.8091 -1.1280
 1457TIP3   OH225785   6.575   2.879  16.669  0.2898 -0.2255  0.3676
 1457TIP3    H125786   6.638   2.815  16.700  0.7236  1.3251  3.0055
 1457TIP3    H225787   6.626   2.941  16.617  0.1158 -1.1950 -1.0105
 1458TIP3   OH225788   6.201   5.121   1.016 -0.1257  0.0196  0.0060
 1458TIP3    H125789   6.170   5.040   1.057 -0.6071 -0.0240 -0.4408
 1458TIP3    H225790   6.189   5.188   1.083 -0.1879 -0.1918  0.2076
 1459TIP3   OH225791   2.804   1.099   5.324  0.4181  0.2879  0.5558
 1459TIP3    H125792   2.716   1.135   5.330  0.4072  0.2817  0.4258
 1459TIP3    H225793   2.791   1.005   5.316  0.2969  0.4844 -2.8573
 1460TIP3   OH225794   4.759   1.043  16.797 -0.3955 -0.1595 -0.0667
 1460TIP3    H125795   4.827   1.006  16.740 -0.9917 -0.6851 -0.4607
 1460TIP3    H225796   4.757   1.136  16.774  0.7550  0.0307  0.5480
 1461TIP3   OH225797   0.516   1.960   3.689 -0.1646  0.5813  0.1333
 1461TIP3    H125798   0.594   1.907   3.671 -0.8936 -0.5356  0.1749
 1461TIP3    H225799   0.544   2.050   3.672  0.4635  0.0165 -2.2456
 1462TIP3   OH225800   1.850   1.722   0.349  0.0239 -0.3874 -0.5059
 1462TIP3    H125801   1.850   1.755   0.259 -0.4693  0.9549 -0.0374
 1462TIP3    H225802   1.866   1.628   0.340  0.7410 -0.1580 -1.9439
 1463TIP3   OH225803   3.531   6.742  15.598  0.5622 -0.0568  0.1907
 1463TIP3    H125804   3.439   6.726  15.579  0.3994  0.4973  0.4882
 1463TIP3    H225805   3.557   6.810  15.537 -0.0438  1.9468  2.0414
 1464TIP3   OH225806   2.391   4.130   6.226  0.0000 -0.1135  0.5001
 1464TIP3    H125807   2.484   4.145   6.208 -0.4620  1.4621 -0.8348
 1464TIP3    H225808   2.389   4.101   6.317  1.9147 -1.7129  0.1075
 1465TIP3   OH225809   4.815   1.724   3.833  0.2938 -0.5754 -0.5128
 1465TIP3    H125810   4.895   1.770   3.808 -0.6444  0.7002 -1.3117
 1465TIP3    H225811   4.752   1.748   3.766 -0.8638 -1.2972  0.2802
 1466TIP3   OH225812   4.962   1.208  14.052 -0.0370 -0.4727 -0.2385
 1466TIP3    H125813   4.874   1.243  14.069  0.6454  1.0517  0.3186
 1466TIP3    H225814   5.021   1.277  14.081  1.4828 -2.8720  3.0422
 1467TIP3   OH225815   2.600   4.655  16.993  0.2409 -0.5170  0.3649
 1467TIP3    H125816   2.525   4.613  17.036 -0.5523 -1.0801 -1.4401
 1467TIP3    H225817   2.564   4.735  16.955  0.4103 -1.0202 -0.9061
 1468TIP3   OH225818   3.384   0.238  15.800  0.1428 -0.6895  0.3138
 1468TIP3    H125819   3.399   0.332  15.796 -0.3074 -0.6197  0.1849
 1468TIP3    H225820   3.470   0.199  15.789  0.2320 -0.3066 -0.3438
 1469TIP3   OH225821   4.262   4.156   1.422 -0.0345  0.2519 -0.9232
 1469TIP3    H125822   4.315   4.201   1.356 -1.9988  3.0841 -0.7445
 1469TIP3    H225823   4.327   4.117   1.481  1.8601  1.7996 -1.8414
 1470TIP3   OH225824   0.094   2.080   5.543 -0.0319  0.0217 -0.6664
 1470TIP3    H125825   0.176   2.130   5.546 -0.4885  0.8138 -1.0761
 1470TIP3    H225826   0.099   2.021   5.618  0.9174  0.0570 -0.6921
 1471TIP3   OH225827   3.120   0.164  14.529 -0.2519  0.2593  0.1250
 1471TIP3    H125828   3.031   0.190  14.506 -0.0368  0.3597 -0.6341
 1471TIP3    H225829   3.144   0.220  14.603 -0.7284  0.3981  0.1776
 1472TIP3   OH225830   3.228   5.388  17.198 -0.0973 -0.4753  0.2509
 1472TIP3    H125831   3.203   5.356  17.284 -1.3771  0.6288  0.3136
 1472TIP3    H225832   3.283   5.465  17.215  0.5144 -0.8644  0.0777
 1473TIP3   OH225833   4.248   0.470   4.196  0.1246 -0.1421  0.3400
 1473TIP3    H125834   4.344   0.464   4.195  0.3763  2.2313  1.4881
 1473TIP3    H225835   4.223   0.468   4.103  1.4010  0.2202 -0.0419
 1474TIP3   OH225836   2.905   4.944  16.682  0.3253  0.6016  0.2620
 1474TIP3    H125837   2.926   4.874  16.620 -1.3136 -0.3585  0.7334
 1474TIP3    H225838   2.811   4.957  16.673  0.6032  2.8810  0.0890
 1475TIP3   OH225839   1.165   2.106  10.757 -0.1279  0.2850 -0.2653
 1475TIP3    H125840   1.129   2.022  10.729 -0.9868  1.0818 -1.6988
 1475TIP3    H225841   1.118   2.126  10.838  1.0624 -1.2154  0.8501
 1476TIP3   OH225842   1.060   5.882  12.490 -0.8570 -0.0858 -0.3626
 1476TIP3    H125843   0.979   5.862  12.537 -1.3076  1.3943 -0.4523
 1476TIP3    H225844   1.075   5.975  12.508  0.9660 -0.3926 -0.1524
 1477TIP3   OH225845   5.390   2.518   1.128  0.0028 -0.1576 -0.2938
 1477TIP3    H125846   5.373   2.448   1.191 -1.4229 -0.1775 -0.6654
 1477TIP3    H225847   5.486   2.525   1.124  0.1208 -0.4720  1.5019
 1478TIP3   OH225848   0.268   1.917   4.306 -0.0414 -0.3917 -0.2059
 1478TIP3    H125849   0.230   1.991   4.259  0.6972 -0.6798 -1.2968
 1478TIP3    H225850   0.194   1.862   4.328 -0.4165 -0.2005 -0.9680
 1479TIP3   OH225851   4.267   1.656   5.217  0.2411  0.2128 -0.3665
 1479TIP3    H125852   4.185   1.636   5.173  0.7597 -0.5064 -1.0391
 1479TIP3    H225853   4.282   1.580   5.274  1.2217 -0.4192 -1.4331
 1480TIP3   OH225854   0.398   3.577  13.797 -0.2492  0.2339 -0.2622
 1480TIP3    H125855   0.380   3.490  13.764 -2.7001  0.9776 -1.0684
 1480TIP3    H225856   0.339   3.635  13.749  2.5228  2.6609 -1.1133
 1481TIP3   OH225857   3.368   0.026   2.628  0.0354  0.2834 -0.2400
 1481TIP3    H125858   3.438   0.070   2.677  0.0884 -0.8695  0.7648
 1481TIP3    H225859   3.400  -0.064   2.616 -1.6622 -0.5858  1.1616
 1482TIP3   OH225860   5.475   5.185   1.329  0.2622  0.3254 -0.1090
 1482TIP3    H125861   5.465   5.239   1.251  1.0238  0.2971 -0.2343
 1482TIP3    H225862   5.473   5.095   1.295  1.4236  0.3250 -0.2127
 1483TIP3   OH225863   3.195   3.562   2.225  0.1318 -0.1148  0.9299
 1483TIP3    H125864   3.256   3.501   2.185 -0.7808 -0.1416 -0.4602
 1483TIP3    H225865   3.183   3.528   2.314 -0.3887 -1.9957  0.1873
 1484TIP3   OH225866   5.754   1.078  16.972 -0.0172 -0.4691 -0.0435
 1484TIP3    H125867   5.773   1.079  17.066  1.6490  1.7313 -0.3243
 1484TIP3    H225868   5.694   1.153  16.960  2.2555  1.2931 -1.0942
 1485TIP3   OH225869   1.918   3.737  13.246  0.4920 -0.5108  0.0364
 1485TIP3    H125870   2.013   3.738  13.250  0.4444  0.7656  2.4873
 1485TIP3    H225871   1.894   3.817  13.199  0.6079 -0.7420 -0.4222
 1486TIP3   OH225872   4.824   1.812  14.365 -0.4562  0.4137 -0.6106
 1486TIP3    H125873   4.860   1.741  14.312 -1.4610  0.4088 -1.3221
 1486TIP3    H225874   4.735   1.783  14.386  0.4815 -0.4594  2.7343
 1487TIP3   OH225875   3.711   0.128  12.883  0.0225 -0.5419  0.5715
 1487TIP3    H125876   3.650   0.093  12.818  0.9284 -2.3117  0.6203
 1487TIP3    H225877   3.759   0.051  12.915  0.0111  0.3511  2.9085
 1488TIP3   OH225878   0.890   0.634  11.594  0.0443  0.1069  0.4394
 1488TIP3    H125879   0.893   0.616  11.688 -0.2773 -1.5683  0.1632
 1488TIP3    H225880   0.842   0.560  11.557  0.3229  0.6437 -1.0752
 1489TIP3   OH225881   1.305   5.407  11.152  0.5660 -0.0867 -0.0668
 1489TIP3    H125882   1.377   5.464  11.177  1.9097 -1.4913 -0.5492
 1489TIP3    H225883   1.348   5.332  11.111 -1.0500 -1.8144  1.2374
 1490TIP3   OH225884   4.650   5.055  14.847  0.0871  0.2255  0.0952
 1490TIP3    H125885   4.607   4.970  14.857 -0.2304  0.2013 -1.2959
 1490TIP3    H225886   4.582   5.119  14.867 -0.7198  0.1894 -2.1993
 1491TIP3   OH225887   0.652   1.096  14.440 -0.0918 -0.2345 -0.2965
 1491TIP3    H125888   0.741   1.061  14.449 -0.3841 -0.8950  0.1169
 1491TIP3    H225889   0.620   1.060  14.358  0.1757  0.3538 -0.6604
 1492TIP3   OH225890   2.730   3.744  11.903 -0.2732  0.5011 -0.1778
 1492TIP3    H125891   2.786   3.762  11.979 -0.5465 -0.8995  0.3806
 1492TIP3    H225892   2.780   3.778  11.828 -0.1068  2.1295  0.6246
 1493TIP3   OH225893   4.009   3.849  11.024  0.5591  0.0161  0.2899
 1493TIP3    H125894   3.985   3.871  10.934  1.8413  3.6026  0.6271
 1493TIP3    H225895   4.001   3.754  11.029 -0.1904 -0.2741 -3.3870
 1494TIP3   OH225896   5.142   5.916  11.774 -0.7095  0.6065  0.4201
 1494TIP3    H125897   5.163   5.969  11.697 -1.0341 -0.5580 -0.4902
 1494TIP3    H225898   5.227   5.899  11.814 -0.3344 -0.2687 -0.6934
 1495TIP3   OH225899   2.608   3.567   3.015 -0.0545 -0.1395  0.4972
 1495TIP3    H125900   2.636   3.586   3.104  0.9661  3.1962 -0.4147
 1495TIP3    H225901   2.687   3.531   2.973  0.8580  2.3576 -0.1071
 1496TIP3   OH225902   1.663   3.474  14.665  0.0929 -0.7637 -0.4834
 1496TIP3    H125903   1.609   3.553  14.667  0.6466 -0.4015  0.1966
 1496TIP3    H225904   1.599   3.403  14.652 -0.6164 -0.3877  0.7552
 1497TIP3   OH225905   2.339   1.518  14.354 -0.2355 -0.0091  0.7239
 1497TIP3    H125906   2.317   1.602  14.395 -2.3227 -0.4340  0.6101
 1497TIP3    H225907   2.434   1.513  14.358  0.0256  2.7687 -0.0751
 1498TIP3   OH225908   4.981   4.963   4.880  0.1221 -0.7611 -0.1914
 1498TIP3    H125909   4.938   4.904   4.942 -1.0989 -0.5821 -0.8370
 1498TIP3    H225910   4.997   4.909   4.802  2.0541 -1.1074  0.3782
 1499TIP3   OH225911   5.478   6.541  15.234  0.7967  0.0208 -0.1450
 1499TIP3    H125912   5.426   6.566  15.158  0.0806  0.3273  0.4341
 1499TIP3    H225913   5.427   6.472  15.277 -1.1680  2.8595  2.5566
 1500TIP3   OH225914   0.640   2.302   4.794 -0.2608  0.0860  0.2511
 1500TIP3    H125915   0.718   2.353   4.774  0.6998 -0.4201  2.3693
 1500TIP3    H225916   0.571   2.367   4.808  0.9497  0.9464  2.9209
 1501TIP3   OH225917   4.373   4.618  13.778  0.0344  0.0233  0.3231
 1501TIP3    H125918   4.424   4.693  13.806 -0.3286  0.2759  0.3210
 1501TIP3    H225919   4.328   4.648  13.698  2.6515 -1.3086 -1.8211
 1502TIP3   OH225920   1.813   5.112  15.120 -0.3847 -0.1656 -0.2209
 1502TIP3    H125921   1.902   5.101  15.151  1.2964  2.1848 -3.5873
 1502TIP3    H225922   1.798   5.207  15.121 -2.4784 -0.4259 -0.7289
 1503TIP3   OH225923   5.052   2.535   2.840  0.0820 -0.0969 -0.5254
 1503TIP3    H125924   5.020   2.472   2.777  0.4536  0.0128 -0.8327
 1503TIP3    H225925   4.975   2.562   2.890  0.2476 -2.5088  1.1958
 1504TIP3   OH225926   6.276   0.199  13.948 -0.1682 -0.1524  0.1078
 1504TIP3    H125927   6.202   0.205  14.008  0.8508 -0.9448  1.5042
 1504TIP3    H225928   6.346   0.247  13.991  0.1867  0.4972 -1.1416
 1505TIP3   OH225929   2.715   5.075   5.674  0.8032 -0.3685 -0.0202
 1505TIP3    H125930   2.638   5.030   5.710 -0.0755 -1.6695 -3.2221
 1505TIP3    H225931   2.689   5.167   5.669 -1.1489 -0.9378 -2.1557
 1506TIP3   OH225932   4.834   0.940   1.477 -0.1134 -0.1262 -0.4008
 1506TIP3    H125933   4.750   0.980   1.456  0.1637  0.1588 -0.9719
 1506TIP3    H225934   4.885   0.946   1.396  0.0995 -1.2073 -0.3666
 1507TIP3   OH225935   1.095   0.060   5.076 -0.0359 -0.0532 -0.0897
 1507TIP3    H125936   1.004   0.087   5.063 -0.0824  0.1228  0.5686
 1507TIP3    H225937   1.105   0.056   5.171 -0.0190 -2.2946 -0.1236
 1508TIP3   OH225938   6.733   3.762  11.187  0.0437 -0.1342 -0.5711
 1508TIP3    H125939   6.787   3.734  11.261  0.1242  1.4111  0.0071
 1508TIP3    H225940   6.710   3.853  11.208 -0.2979  0.1953 -2.2452
 1509TIP3   OH225941   0.350   4.383  11.436  0.3751 -0.0063  0.2619
 1509TIP3    H125942   0.286   4.435  11.484  0.3631  0.7108 -0.5020
 1509TIP3    H225943   0.423   4.374  11.496 -0.2395 -0.4265  0.9694
 1510TIP3   OH225944   4.440   1.672  15.131  0.6213  0.3425 -0.8913
 1510TIP3    H125945   4.426   1.606  15.063  2.1207 -0.3341 -0.5847
 1510TIP3    H225946   4.513   1.724  15.099 -0.8704  2.2551 -1.3753
 1511TIP3   OH225947   4.032   1.668   1.359  0.0034 -0.0058 -0.3192
 1511TIP3    H125948   3.966   1.642   1.294  0.3904 -0.7749 -0.4199
 1511TIP3    H225949   4.102   1.706   1.307 -0.5608  1.2710 -0.1713
 1512TIP3   OH225950   2.627   0.337   1.347  0.1404  0.3889 -0.0364
 1512TIP3    H125951   2.614   0.364   1.256  0.2246  1.2860  0.2051
 1512TIP3    H225952   2.585   0.407   1.398  0.7405  0.2733  0.6247
 1513TIP3   OH225953   5.418   5.974   6.154 -0.4938  0.1645  1.1289
 1513TIP3    H125954   5.418   6.057   6.202 -0.3091  0.8909 -0.0941
 1513TIP3    H225955   5.477   5.918   6.203  0.7644  1.3475  1.0041
 1514TIP3   OH225956   4.984   5.149   2.209 -0.2292  0.0113  0.3121
 1514TIP3    H125957   5.012   5.062   2.239 -0.0215  0.1907  0.6461
 1514TIP3    H225958   5.055   5.207   2.237 -0.2147  0.2396 -0.1930
 1515TIP3   OH225959   2.375   3.830  15.161  0.2322  0.2533  0.1853
 1515TIP3    H125960   2.446   3.875  15.115 -1.1256  1.3269 -0.9574
 1515TIP3    H225961   2.317   3.900  15.191  0.7341 -0.4297  3.1182
 1516TIP3   OH225962   4.850   6.140  11.561  0.2256  0.0160  0.0141
 1516TIP3    H125963   4.830   6.112  11.650 -0.7859 -0.0677 -0.2318
 1516TIP3    H225964   4.781   6.203  11.540  0.8936  0.6128 -0.4379
 1517TIP3   OH225965   3.394   4.822   5.050 -0.2126  0.4465  0.4421
 1517TIP3    H125966   3.359   4.797   5.136  0.2220  1.6832  1.0062
 1517TIP3    H225967   3.452   4.750   5.026 -0.3139  0.1022  1.1943
 1518TIP3   OH225968   6.017   4.450  11.322 -0.3699 -0.3329  0.0386
 1518TIP3    H125969   5.994   4.440  11.229 -3.8479  0.9380  0.6313
 1518TIP3    H225970   5.987   4.538  11.345  1.2976 -0.2508  2.1880
 1519TIP3   OH225971   1.797   0.136   3.633 -0.0758 -0.0059  0.7182
 1519TIP3    H125972   1.819   0.046   3.659  3.0024  0.7350  1.0428
 1519TIP3    H225973   1.756   0.127   3.547  3.5910 -1.5933 -1.0616
 1520TIP3   OH225974   4.166   2.155   2.640  0.2153 -0.4114  0.4851
 1520TIP3    H125975   4.095   2.121   2.586  1.0620 -0.6253 -0.5268
 1520TIP3    H225976   4.235   2.089   2.633  0.4121 -0.3566  1.6957
 1521TIP3   OH225977   4.545   5.820   6.016 -0.3179  0.1112 -0.4115
 1521TIP3    H125978   4.468   5.810   5.960 -0.0965 -2.3009 -0.3904
 1521TIP3    H225979   4.619   5.811   5.957 -0.0856 -1.7351  0.1083
 1522TIP3   OH225980   1.036   3.246   2.182  0.6957  0.1069 -0.0629
 1522TIP3    H125981   0.979   3.200   2.121  0.4193  1.3581 -0.7883
 1522TIP3    H225982   1.116   3.264   2.133  0.7090  0.5963  0.1262
 1523TIP3   OH225983   5.860   4.135  11.881  0.1417  0.0726  0.1956
 1523TIP3    H125984   5.943   4.134  11.833  0.5341 -0.0456  0.8603
 1523TIP3    H225985   5.795   4.162  11.816  0.2840 -2.1285 -0.9676
 1524TIP3   OH225986   4.811   1.001  13.542  0.2691 -0.3831 -0.1116
 1524TIP3    H125987   4.831   1.016  13.634 -0.4970 -2.1206  0.3732
 1524TIP3    H225988   4.841   1.081  13.498 -1.9055  1.7542  1.9795
 1525TIP3   OH225989   0.406   5.831   4.155  0.3104 -0.2696  0.1613
 1525TIP3    H125990   0.474   5.787   4.105 -0.8325 -0.7913 -0.9984
 1525TIP3    H225991   0.417   5.924   4.135  0.3619 -0.4014 -0.4312
 1526TIP3   OH225992   5.782   1.337   4.064  1.0430 -0.1309 -0.8438
 1526TIP3    H125993   5.815   1.351   4.153  0.3913 -0.6443 -0.5117
 1526TIP3    H225994   5.861   1.323   4.011  1.5364  1.4719 -0.6136
 1527TIP3   OH225995   5.512   5.720  15.897  0.0638  1.0944 -0.1220
 1527TIP3    H125996   5.483   5.718  15.989 -0.1403 -1.6536 -0.1795
 1527TIP3    H225997   5.430   5.721  15.847  0.1355  4.4288 -0.3847
 1528TIP3   OH225998   2.228   4.113  12.170  0.1040  0.0578 -0.2227
 1528TIP3    H125999   2.221   4.127  12.076  2.2172  0.7408 -0.3152
 1528TIP3    H226000   2.138   4.092  12.198 -0.3032 -1.8286 -2.6279
 1529TIP3   OH226001   4.146   4.592  13.985  0.8622  0.3069  0.0508
 1529TIP3    H126002   4.109   4.511  14.019 -0.1070  1.0137  0.7341
 1529TIP3    H226003   4.241   4.583  13.998  0.7564 -0.6450  0.2313
 1530TIP3   OH226004   3.188   4.842   5.857 -0.3474 -0.4894 -0.1043
 1530TIP3    H126005   3.106   4.840   5.808 -0.9578 -0.6158  0.8843
 1530TIP3    H226006   3.164   4.807   5.944  0.7519 -0.5361  0.1880
 1531TIP3   OH226007   4.805   2.683   4.415 -0.1134  0.3081  0.3286
 1531TIP3    H126008   4.847   2.752   4.362 -1.6809  0.1613 -1.2110
 1531TIP3    H226009   4.820   2.603   4.365 -2.1949  0.2644 -0.3379
 1532TIP3   OH226010   5.416   1.419  16.427 -0.0352  0.2940 -0.4362
 1532TIP3    H126011   5.349   1.482  16.398  0.1250  0.6377 -0.0669
 1532TIP3    H226012   5.499   1.462  16.406  0.0820  0.4474  0.2991
 1533TIP3   OH226013   4.276   6.238   0.487  0.6082  0.5124  0.4827
 1533TIP3    H126014   4.315   6.293   0.419  0.0403 -0.0685 -0.3387
 1533TIP3    H226015   4.183   6.260   0.485  0.2250 -1.0296 -0.4419
 1534TIP3   OH226016   0.242   0.270  14.406  0.1090 -0.1115  0.2224
 1534TIP3    H126017   0.246   0.325  14.484 -1.6186 -1.0314  1.0070
 1534TIP3    H226018   0.162   0.297  14.361  0.1678 -0.7750 -0.3076
 1535TIP3   OH226019   2.982   0.430  16.797 -0.9722  0.2605  0.5688
 1535TIP3    H126020   2.963   0.343  16.761 -2.9640  1.2102 -0.8654
 1535TIP3    H226021   2.994   0.415  16.891 -1.2342 -1.5647  0.3494
 1536TIP3   OH226022   1.539   1.238   4.543 -0.3282  0.8150  0.0063
 1536TIP3    H126023   1.607   1.236   4.610 -2.4376  0.7056  2.2895
 1536TIP3    H226024   1.536   1.149   4.509  0.8368  0.8959 -0.3602
 1537TIP3   OH226025   3.685   5.718   0.882 -0.3949  0.4171 -0.2582
 1537TIP3    H126026   3.773   5.750   0.863 -0.1058  0.2348  0.7045
 1537TIP3    H226027   3.680   5.715   0.978 -1.8441  1.5213 -0.2542
 1538TIP3   OH226028   2.267   2.682   1.968 -0.1857 -0.1860 -0.6447
 1538TIP3    H126029   2.282   2.770   2.003 -0.3572 -0.3991 -0.0275
 1538TIP3    H226030   2.283   2.691   1.874  0.3496  0.3782 -0.5075
 1539TIP3   OH226031   3.839   4.395  11.004 -0.6837  0.3992  0.3199
 1539TIP3    H126032   3.783   4.390  11.081 -2.1794  1.0519 -0.6834
 1539TIP3    H226033   3.908   4.330  11.020 -1.0109  0.4401  2.1334
 1540TIP3   OH226034   6.369   0.039   0.836  0.3477  0.0185 -0.5592
 1540TIP3    H126035   6.429   0.076   0.770  0.9731  0.5650  0.2897
 1540TIP3    H226036   6.427   0.008   0.906 -0.2524 -1.4383 -0.6810
 1541TIP3   OH226037   1.002   0.497  16.711  0.0466  0.5554 -0.1126
 1541TIP3    H126038   0.985   0.406  16.686  2.7604  0.5580 -2.4757
 1541TIP3    H226039   0.968   0.549  16.639 -0.3169  1.3282  0.6068
 1542TIP3   OH226040   4.785   6.054   4.197  0.1533  0.0254  1.3774
 1542TIP3    H126041   4.695   6.046   4.166  0.3896  0.1414  0.6383
 1542TIP3    H226042   4.823   5.968   4.183 -0.6374 -0.9553  4.4158
 1543TIP3   OH226043   2.571   1.027   0.156  0.2962  0.2347 -0.2930
 1543TIP3    H126044   2.519   1.107   0.166  0.2552  0.1203  0.5024
 1543TIP3    H226045   2.571   0.988   0.243  1.5655  0.1424 -0.3057
 1544TIP3   OH226046   1.253   3.690  12.591  0.3987 -0.1220  0.6461
 1544TIP3    H126047   1.181   3.735  12.547 -0.7876 -1.6455  0.9789
 1544TIP3    H226048   1.231   3.694  12.684  0.3372 -1.2464  0.6903
 1545TIP3   OH226049   5.752   3.682  13.867  0.0056  0.0177 -0.4273
 1545TIP3    H126050   5.784   3.598  13.899 -0.1473  0.1517  0.0747
 1545TIP3    H226051   5.746   3.737  13.945  0.9545  0.7765 -0.8643
 1546TIP3   OH226052   1.476   5.422  13.012 -0.4659  0.1298  0.7003
 1546TIP3    H126053   1.489   5.411  12.918 -0.9196 -0.5279  0.7072
 1546TIP3    H226054   1.462   5.333  13.045 -0.3660  0.3581  1.3814
 1547TIP3   OH226055   0.125   2.504  16.543 -0.5510 -0.0438 -0.2686
 1547TIP3    H126056   0.119   2.428  16.485 -0.6930 -1.2480  1.2398
 1547TIP3    H226057   0.181   2.566  16.496 -0.3110 -1.1337 -1.4933
 1548TIP3   OH226058   2.983   0.071  13.606 -0.2318 -0.3771  0.1258
 1548TIP3    H126059   3.062   0.077  13.659  0.8319 -4.2280 -0.7053
 1548TIP3    H226060   3.011   0.095  13.518 -0.6422  0.6666  0.2694
 1549TIP3   OH226061   3.114   5.034  16.152 -0.5628 -0.0770  0.0930
 1549TIP3    H126062   3.059   5.095  16.200 -0.7297  0.1756 -0.4140
 1549TIP3    H226063   3.168   4.992  16.219  0.1479  1.2186  0.3695
 1550TIP3   OH226064   4.436   3.190   2.293  0.4436  0.2397  0.1182
 1550TIP3    H126065   4.373   3.129   2.332  0.7576 -0.4863 -0.4624
 1550TIP3    H226066   4.476   3.234   2.367  2.0048 -2.0801  0.7755
 1551TIP3   OH226067   1.061   1.654   1.596 -0.1545 -0.1175  0.2022
 1551TIP3    H126068   1.064   1.610   1.681 -3.6391 -2.8285 -0.8426
 1551TIP3    H226069   1.088   1.587   1.534 -1.5409  0.5037 -1.1255
 1552TIP3   OH226070   0.044   5.741   0.155  0.0771 -0.0320 -0.2046
 1552TIP3    H126071  -0.010   5.714   0.080 -1.4078  0.8924  0.4985
 1552TIP3    H226072   0.093   5.662   0.178 -1.1386 -0.9838 -0.7428
 1553TIP3   OH226073   0.055   1.383   4.490 -0.2019  0.2822  0.0558
 1553TIP3    H126074   0.011   1.300   4.474  1.3233 -0.5268 -0.1231
 1553TIP3    H226075  -0.006   1.433   4.543 -0.6979 -1.3956  1.1440
 1554TIP3   OH226076   4.138   0.782  11.131 -0.1362 -0.2094  0.0540
 1554TIP3    H126077   4.170   0.796  11.042 -2.1107 -1.5099 -0.9376
 1554TIP3    H226078   4.053   0.826  11.133 -0.4301 -0.7887  1.0543
 1555TIP3   OH226079   2.250   3.435   4.723 -0.5775 -0.1517  0.0516
 1555TIP3    H126080   2.213   3.351   4.697 -0.5542 -0.7804  1.8881
 1555TIP3    H226081   2.203   3.458   4.803  0.9081  0.5085  0.7804
 1556TIP3   OH226082   6.585   2.385  11.264 -0.0679  0.4059  0.1084
 1556TIP3    H126083   6.587   2.425  11.177 -0.1863  2.2754  0.9267
 1556TIP3    H226084   6.596   2.458  11.325  0.6721 -0.9401  1.6643
 1557TIP3   OH226085   2.280   4.911   5.342 -0.3153 -0.0657  0.7043
 1557TIP3    H126086   2.237   4.826   5.327  1.4087 -0.9002  0.1850
 1557TIP3    H226087   2.331   4.926   5.263  1.8276 -0.0795  1.9992
 1558TIP3   OH226088   2.715   5.780   2.842  0.0377 -0.1979 -0.4903
 1558TIP3    H126089   2.756   5.864   2.821 -0.5060  0.4505  0.9634
 1558TIP3    H226090   2.658   5.761   2.767  1.3733 -0.0948 -1.5763
 1559TIP3   OH226091   1.392   5.481   3.673 -0.2356  0.0015 -0.2794
 1559TIP3    H126092   1.386   5.388   3.653  3.1693 -0.0042 -1.9841
 1559TIP3    H226093   1.452   5.516   3.607 -1.1629  3.3768  0.4857
 1560TIP3   OH226094   4.689   3.819  15.957 -0.2396  0.0875  0.0006
 1560TIP3    H126095   4.607   3.775  15.978 -1.0094  0.4285 -2.0523
 1560TIP3    H226096   4.662   3.905  15.924  1.1332  1.3736  2.0066
 1561TIP3   OH226097   2.830   5.361  14.716 -0.8131  0.6719  0.1805
 1561TIP3    H126098   2.881   5.408  14.783 -0.4874  1.4979 -0.6194
 1561TIP3    H226099   2.756   5.324  14.763 -0.3614  0.8883  1.0746
 1562TIP3   OH226100   4.669   1.583  15.323 -0.4591  0.3161 -0.4621
 1562TIP3    H126101   4.580   1.585  15.289 -0.7878 -0.0033  0.3480
 1562TIP3    H226102   4.688   1.490  15.335  0.1644  0.3567 -1.0721
 1563TIP3   OH226103   1.340   2.675  17.056  0.2649 -0.5113  1.0039
 1563TIP3    H126104   1.421   2.628  17.038  0.1497 -0.2537 -0.2882
 1563TIP3    H226105   1.369   2.760  17.091  0.5876 -0.1845 -0.0235
 1564TIP3   OH226106   4.711   3.735   5.121 -0.0788  0.2017 -0.4904
 1564TIP3    H126107   4.695   3.655   5.170  1.6181  1.4783  2.4276
 1564TIP3    H226108   4.799   3.725   5.085  1.1498  1.5278  1.8913
 1565TIP3   OH226109   5.195   4.622   3.010  0.4042  0.1092  0.4117
 1565TIP3    H126110   5.175   4.685   2.941 -2.5985 -0.6504  0.4383
 1565TIP3    H226111   5.263   4.566   2.973  2.6988  2.8488  0.1520
 1566TIP3   OH226112   1.799   4.802   0.550  0.2146 -0.4882  0.4102
 1566TIP3    H126113   1.716   4.783   0.508  0.2010 -1.1225  0.7198
 1566TIP3    H226114   1.785   4.779   0.642  0.3188  0.6435  0.7264
 1567TIP3   OH226115   4.713   5.599  14.157 -0.0008  0.2038 -0.0436
 1567TIP3    H126116   4.731   5.508  14.181 -0.4023  0.2038  0.2614
 1567TIP3    H226117   4.642   5.626  14.215 -0.0891  0.6184 -0.3379
 1568TIP3   OH226118   2.682   0.632  16.479  0.2289 -0.2179 -0.1355
 1568TIP3    H126119   2.710   0.545  16.450  0.9068 -0.7170  1.8450
 1568TIP3    H226120   2.722   0.642  16.566  1.2841  2.6445 -0.8537
 1569TIP3   OH226121   4.536   1.481  10.775 -0.2843 -0.5691  0.0022
 1569TIP3    H126122   4.609   1.540  10.795 -0.8739 -0.1745  1.1029
 1569TIP3    H226123   4.570   1.394  10.795  0.2283 -0.5005 -0.5384
 1570TIP3   OH226124   3.660   3.481   2.237  0.0871 -0.3784 -0.3043
 1570TIP3    H126125   3.738   3.439   2.200  0.6148  1.6236 -1.6432
 1570TIP3    H226126   3.694   3.555   2.287 -0.8894 -0.4346  0.4723
 1571TIP3   OH226127   2.698   5.822   1.473 -0.3463  0.3159 -0.5842
 1571TIP3    H126128   2.718   5.915   1.479  1.4608 -0.1165  1.0303
 1571TIP3    H226129   2.778   5.778   1.503 -1.6591 -1.7108  0.1828
 1572TIP3   OH226130   5.278   2.074   1.924 -0.5721 -0.4107 -0.1227
 1572TIP3    H126131   5.275   2.096   1.831 -0.3875 -0.3754 -0.1209
 1572TIP3    H226132   5.367   2.098   1.951 -0.8525  0.2325  0.2267
 1573TIP3   OH226133   3.325   1.174   5.808  0.4912  0.1677 -0.2327
 1573TIP3    H126134   3.398   1.190   5.748  0.9489 -3.4091 -0.8844
 1573TIP3    H226135   3.247   1.172   5.752  0.1732  1.6727  0.1131
 1574TIP3   OH226136   6.759   6.640  11.751 -0.4125  0.3087  0.5832
 1574TIP3    H126137   6.853   6.634  11.736 -0.5206 -0.5253  0.1537
 1574TIP3    H226138   6.724   6.678  11.671 -0.4228  0.7732  0.8081
 1575TIP3   OH226139   1.338   1.856   6.120 -0.3170 -0.0506  0.3416
 1575TIP3    H126140   1.427   1.818   6.120  0.5257  1.7645 -1.2868
 1575TIP3    H226141   1.344   1.931   6.178 -1.6679 -1.5912  2.6210
 1576TIP3   OH226142   4.808   4.935  16.857  0.3884 -0.3836  0.4142
 1576TIP3    H126143   4.829   4.940  16.950  1.8288  0.2183  0.0742
 1576TIP3    H226144   4.857   4.860  16.825 -1.8791 -2.0379  0.5359
 1577TIP3   OH226145   5.223   2.677   3.982 -0.5750  0.1708 -0.0039
 1577TIP3    H126146   5.246   2.761   4.022 -0.3769  1.0621 -1.8589
 1577TIP3    H226147   5.259   2.611   4.041 -0.4674  1.3820  1.3422
 1578TIP3   OH226148   1.811   1.376  13.584 -0.3509 -0.0086 -0.0683
 1578TIP3    H126149   1.719   1.352  13.593 -0.8071  2.2690  3.5770
 1578TIP3    H226150   1.841   1.388  13.674  3.3052  0.1759 -1.1673
 1579TIP3   OH226151   1.833   1.508   3.062 -0.1090  0.3086 -0.7519
 1579TIP3    H126152   1.860   1.457   3.139 -0.9384  2.5432  1.1317
 1579TIP3    H226153   1.764   1.456   3.022 -0.8000 -0.1924  0.9852
 1580TIP3   OH226154   1.647   1.117  11.241 -0.3042  0.0219  0.1575
 1580TIP3    H126155   1.698   1.089  11.317 -2.0561  0.2981  1.5082
 1580TIP3    H226156   1.638   1.038  11.187  1.2789 -0.0876  0.0151
 1581TIP3   OH226157   0.207   3.809  14.016 -0.4779  0.1030  0.3553
 1581TIP3    H126158   0.154   3.820  14.095 -1.2965  0.4228 -0.2285
 1581TIP3    H226159   0.297   3.803  14.048 -0.6940  1.2557  1.2339
 1582TIP3   OH226160   0.708   4.821   1.169  0.0513  0.3774  0.1176
 1582TIP3    H126161   0.769   4.839   1.097  1.4508 -3.0304  0.2583
 1582TIP3    H226162   0.733   4.883   1.237  0.1013  2.2643 -1.5423
 1583TIP3   OH226163   0.724   5.867   1.827 -0.1491 -0.1937 -0.1193
 1583TIP3    H126164   0.696   5.816   1.903 -0.7522  0.9630  0.4642
 1583TIP3    H226165   0.653   5.859   1.764 -1.3161  1.6821  0.8517
 1584TIP3   OH226166   5.931   3.864   5.246  0.3119 -0.5821  0.2411
 1584TIP3    H126167   5.875   3.786   5.256  0.8803 -0.8791  1.3090
 1584TIP3    H226168   6.013   3.830   5.212 -0.5273  0.0222 -2.5938
 1585TIP3   OH226169   0.703   6.679   0.588 -0.0683  0.3405  0.1918
 1585TIP3    H126170   0.609   6.660   0.595  0.2316 -1.8972 -0.9602
 1585TIP3    H226171   0.721   6.735   0.662 -1.9562 -0.7899  1.6109
 1586TIP3   OH226172   0.793   0.966  13.413 -0.1021 -0.2907  0.3310
 1586TIP3    H126173   0.782   0.937  13.503 -1.7177 -0.5761  0.0726
 1586TIP3    H226174   0.849   1.044  13.419  2.3757 -1.9998  1.2660
 1587TIP3   OH226175   0.989   3.903  16.369 -0.2228 -0.0827 -0.6577
 1587TIP3    H126176   0.913   3.903  16.312  1.1222 -0.3206 -2.5495
 1587TIP3    H226177   1.022   3.814  16.366 -0.9330 -0.4987  1.7395
 1588TIP3   OH226178   2.648   0.681   4.466  0.0525  0.8065 -0.1379
 1588TIP3    H126179   2.644   0.718   4.554  0.7731  1.1537 -0.2420
 1588TIP3    H226180   2.578   0.726   4.418  0.4201  1.4817 -0.0552
 1589TIP3   OH226181   6.675   2.938   1.253  0.0026  0.1755 -0.1767
 1589TIP3    H126182   6.657   2.879   1.326  0.2764  1.1962  0.7607
 1589TIP3    H226183   6.601   2.927   1.194 -0.7479  0.0560  0.7561
 1590TIP3   OH226184   0.841   5.237   0.014  0.6939  0.2185  0.3978
 1590TIP3    H126185   0.804   5.296  -0.052  2.2214 -0.3242 -1.0123
 1590TIP3    H226186   0.781   5.243   0.088 -2.5875 -1.0556 -1.9303
 1591TIP3   OH226187   0.056   4.312   4.342 -0.2912 -0.1765 -0.1045
 1591TIP3    H126188   0.003   4.272   4.411 -2.0346  1.3700 -0.4560
 1591TIP3    H226189   0.035   4.406   4.347 -0.3163  0.0066 -2.5789
 1592TIP3   OH226190   2.557   2.982  12.134 -0.8244  0.1852 -0.3789
 1592TIP3    H126191   2.554   2.886  12.137  0.0426  0.1672  1.5225
 1592TIP3    H226192   2.475   3.007  12.091 -2.1414 -1.3621  1.0807
 1593TIP3   OH226193   6.389   2.416  16.921 -0.1782 -0.1377 -0.1662
 1593TIP3    H126194   6.442   2.439  16.845 -1.3130  0.0122 -0.9443
 1593TIP3    H226195   6.389   2.494  16.976  0.5660 -0.2121 -0.0563
 1594TIP3   OH226196   2.351   6.015  11.171 -0.4853  0.1945  0.1263
 1594TIP3    H126197   2.421   5.981  11.227 -1.0533 -2.5999 -0.6907
 1594TIP3    H226198   2.271   6.003  11.222 -0.6678  0.7990 -0.0038
 1595TIP3   OH226199   5.737   2.325   4.677 -0.4317 -0.1333  0.1266
 1595TIP3    H126200   5.685   2.245   4.681 -0.0720 -0.4116 -0.5483
 1595TIP3    H226201   5.689   2.388   4.730  0.4281 -1.4207  2.6034
 1596TIP3   OH226202   1.227   5.692  13.670 -0.4757  0.1566  0.0582
 1596TIP3    H126203   1.139   5.716  13.641 -0.1644 -1.0623 -2.1667
 1596TIP3    H226204   1.285   5.727  13.602  0.6747 -0.0027  0.9200
 1597TIP3   OH226205   0.598   4.069  12.605 -0.0790 -0.4731 -0.7106
 1597TIP3    H126206   0.632   4.022  12.681  1.7290  0.2596 -1.0012
 1597TIP3    H226207   0.533   4.129  12.641  0.6512 -0.2359  0.2575
 1598TIP3   OH226208   4.380   4.349  15.416  0.2730  0.8848  0.5720
 1598TIP3    H126209   4.438   4.370  15.342  0.0208  0.1918  0.1663
 1598TIP3    H226210   4.436   4.302  15.477  0.1720  0.3095  0.2285
 1599TIP3   OH226211   1.310   5.229   5.683 -0.1518 -0.9485  0.1747
 1599TIP3    H126212   1.333   5.207   5.773  0.1898 -1.1945  0.0275
 1599TIP3    H226213   1.380   5.191   5.630 -0.0270 -0.2837 -0.1508
 1600TIP3   OH226214   4.655   1.791   4.844 -0.3626 -0.0447  0.7082
 1600TIP3    H126215   4.647   1.754   4.756 -3.6961 -1.2724  1.3737
 1600TIP3    H226216   4.609   1.875   4.839 -2.2362 -0.9611  1.6211
 1601TIP3   OH226217   6.788   0.169  15.917  0.2872  0.0104  0.1145
 1601TIP3    H126218   6.756   0.105  15.853 -0.2693 -0.0491  0.4465
 1601TIP3    H226219   6.867   0.205  15.877 -0.4314  0.4902 -0.9380
 1602TIP3   OH226220   4.074   1.733   2.677  0.4158  0.0426  0.0614
 1602TIP3    H126221   4.122   1.650   2.679 -0.0556 -0.2715 -1.1649
 1602TIP3    H226222   4.063   1.755   2.769  1.4148 -0.7439  0.4015
 1603TIP3   OH226223   0.918   3.514   2.616  0.5125 -0.2668 -0.2325
 1603TIP3    H126224   0.857   3.568   2.667 -1.8169 -0.9883 -2.0883
 1603TIP3    H226225   0.979   3.577   2.578 -0.0492  0.6703  0.3720
 1604TIP3   OH226226   4.451   1.731  13.182  0.2147  0.1222 -0.5334
 1604TIP3    H126227   4.457   1.814  13.229 -0.5969 -0.6278  0.9509
 1604TIP3    H226228   4.366   1.734  13.138 -0.8959 -0.8165  1.4085
 1605TIP3   OH226229   4.522   3.121  16.035  0.0186 -0.0306 -0.0364
 1605TIP3    H126230   4.547   3.097  15.946  0.4431  2.4736 -0.6884
 1605TIP3    H226231   4.439   3.077  16.050  0.5116 -1.4427 -1.1905
 1606TIP3   OH226232   1.664   3.395  11.390 -0.1075 -0.5453 -0.0835
 1606TIP3    H126233   1.688   3.477  11.347 -1.3569  0.0265  0.2780
 1606TIP3    H226234   1.667   3.415  11.483  0.7931 -1.2767  0.0632
 1607TIP3   OH226235   5.691   4.249   5.273  0.1844  0.2362  0.0872
 1607TIP3    H126236   5.738   4.324   5.308  1.8298 -1.3932  1.6433
 1607TIP3    H226237   5.603   4.256   5.311  0.3981  1.2202  0.4215
 1608TIP3   OH226238   0.723   6.271  15.301  0.4830  0.2849  0.1392
 1608TIP3    H126239   0.759   6.191  15.262  0.0147 -0.5608  1.3762
 1608TIP3    H226240   0.756   6.270  15.391  0.7410  1.6740  0.0744
 1609TIP3   OH226241   0.170   5.871   1.746  0.3051  0.1207  0.1411
 1609TIP3    H126242   0.176   5.959   1.783  0.6974 -0.6430  2.0066
 1609TIP3    H226243   0.207   5.815   1.813 -0.2737 -1.5198 -0.8628
 1610TIP3   OH226244   1.313   5.802  11.597  0.1109 -0.5578  0.0252
 1610TIP3    H126245   1.319   5.712  11.629  0.7955 -0.9424 -1.1376
 1610TIP3    H226246   1.404   5.830  11.587 -0.0851  0.5336  1.0445
 1611TIP3   OH226247   6.689   4.726   1.712  0.4761 -0.1079 -0.2287
 1611TIP3    H126248   6.644   4.668   1.774  0.5919 -0.8463 -0.8240
 1611TIP3    H226249   6.735   4.789   1.768 -0.0037 -0.3188  0.4185
 1612TIP3   OH226250   5.566   3.604   2.439  0.1973  0.4344  0.2678
 1612TIP3    H126251   5.622   3.562   2.505  0.9756  0.7541 -0.1712
 1612TIP3    H226252   5.485   3.624   2.485  0.4910  0.0799  0.9567
 1613TIP3   OH226253   3.945   1.352  15.260  0.2510  0.1870 -0.1037
 1613TIP3    H126254   4.002   1.385  15.190 -0.1952 -0.8036 -0.9463
 1613TIP3    H226255   3.858   1.386  15.239  0.4859  1.7584  1.2209
 1614TIP3   OH226256   2.349   0.003  11.849  0.7621 -0.6183 -0.7388
 1614TIP3    H126257   2.266  -0.002  11.800  0.5161 -1.7636 -0.2517
 1614TIP3    H226258   2.324  -0.017  11.940  0.9643  2.8847  0.2167
 1615TIP3   OH226259   2.747   3.164   3.904  0.1572 -0.0842 -0.5902
 1615TIP3    H126260   2.722   3.123   3.821  0.5879 -2.5949  0.4260
 1615TIP3    H226261   2.664   3.171   3.953  0.0868  0.2439 -0.7547
 1616TIP3   OH226262   4.256   5.166   2.513 -0.3994  0.4160 -0.0155
 1616TIP3    H126263   4.312   5.177   2.436 -1.8057  1.5338 -0.9230
 1616TIP3    H226264   4.179   5.120   2.480  0.1350 -1.5782  1.3176
 1617TIP3   OH226265   1.917   6.488   4.294  0.0248  0.2604 -0.1722
 1617TIP3    H126266   1.917   6.406   4.244  0.2651 -0.0989  0.3955
 1617TIP3    H226267   1.860   6.469   4.369 -0.5224  0.8686 -0.4326
 1618TIP3   OH226268   6.660   5.410  15.798  0.2909  0.5860 -0.2496
 1618TIP3    H126269   6.751   5.422  15.824 -0.3341  0.6771  2.1823
 1618TIP3    H226270   6.619   5.368  15.874 -1.2307 -1.5398 -2.1122
 1619TIP3   OH226271   5.474   2.326  13.086  0.3645 -0.1249 -0.0871
 1619TIP3    H126272   5.463   2.419  13.104  0.7358 -0.1733  0.4186
 1619TIP3    H226273   5.557   2.303  13.127 -1.6308 -1.6161  3.6686
 1620TIP3   OH226274   0.365   2.025  14.211  0.5007  0.0978 -0.5904
 1620TIP3    H126275   0.354   1.961  14.141  1.0449  0.3989 -0.9580
 1620TIP3    H226276   0.282   2.024  14.258  1.4992 -3.3801  1.5505
 1621TIP3   OH226277   6.355   4.684   1.348  0.0478 -0.0975 -0.1073
 1621TIP3    H126278   6.344   4.636   1.266 -0.8234 -0.7061  0.3427
 1621TIP3    H226279   6.449   4.677   1.367 -0.1605 -2.5052  0.4184
 1622TIP3   OH226280   1.308   6.228  15.042 -0.0858  0.0982  0.1434
 1622TIP3    H126281   1.240   6.162  15.058  0.5943 -0.7682 -0.4279
 1622TIP3    H226282   1.328   6.220  14.949 -1.3155  2.4536 -0.3982
 1623TIP3   OH226283   1.660   4.877  15.145 -0.5800 -0.0689  0.3433
 1623TIP3    H126284   1.628   4.933  15.215  1.1192  1.2494  0.1370
 1623TIP3    H226285   1.669   4.936  15.070 -2.2826 -1.4225 -1.0106
 1624TIP3   OH226286   5.719   5.532   0.796 -0.0402 -0.0346  0.4697
 1624TIP3    H126287   5.748   5.581   0.874  0.9181  0.1817 -0.0065
 1624TIP3    H226288   5.790   5.469   0.780 -0.2781 -0.1389 -0.1722
 1625TIP3   OH226289   3.008   2.786  13.873 -0.5618  0.2080  0.2555
 1625TIP3    H126290   2.946   2.797  13.801  1.6955  0.0713 -1.8444
 1625TIP3    H226291   2.978   2.709  13.920 -2.0474  0.2492 -0.5790
 1626TIP3   OH226292   3.116   6.695  11.865 -0.4437 -0.3811 -0.1925
 1626TIP3    H126293   3.176   6.748  11.812 -1.1300  1.3992  0.7383
 1626TIP3    H226294   3.071   6.640  11.801  0.7664 -0.3433 -1.1260
 1627TIP3   OH226295   0.834   2.271  12.514 -0.2029  0.2119 -0.4285
 1627TIP3    H126296   0.840   2.280  12.609 -0.0037  0.4555 -0.4624
 1627TIP3    H226297   0.802   2.182  12.500  1.5250 -0.4839 -0.1744
 1628TIP3   OH226298   3.660   0.421   0.571 -0.1027 -0.3972  0.4140
 1628TIP3    H126299   3.744   0.375   0.572  0.6060  0.6752 -1.8661
 1628TIP3    H226300   3.599   0.359   0.531 -0.4619 -1.1712  2.0587
 1629TIP3   OH226301   5.574   5.168  16.404  0.0198 -0.6668 -0.2388
 1629TIP3    H126302   5.601   5.088  16.360 -1.1614 -1.5302  0.5428
 1629TIP3    H226303   5.499   5.199  16.352  0.7988  0.2463 -0.8493
 1630TIP3   OH226304   2.844   2.725  12.535  0.1486 -0.0828  0.8472
 1630TIP3    H126305   2.839   2.661  12.606 -0.8778 -0.2309  0.6423
 1630TIP3    H226306   2.753   2.745  12.513  0.4560  0.4660  0.0188
 1631TIP3   OH226307   4.341   5.340  11.913 -0.3272 -0.1474 -0.2124
 1631TIP3    H126308   4.384   5.328  11.828  3.2357  3.3034  0.7964
 1631TIP3    H226309   4.273   5.406  11.896 -0.1300 -0.0180 -0.5123
 1632TIP3   OH226310   6.191   2.358   5.414  0.7927  0.2446  0.2492
 1632TIP3    H126311   6.105   2.368   5.372  1.0461  1.8722  0.0490
 1632TIP3    H226312   6.173   2.365   5.508  0.4994 -1.2817  0.3381
 1633TIP3   OH226313   4.290   3.037   2.456 -0.5340  0.4143  0.3942
 1633TIP3    H126314   4.202   3.001   2.462 -0.1579 -0.3879  1.3942
 1633TIP3    H226315   4.345   2.974   2.504  0.7744  0.2557 -1.2093
 1634TIP3   OH226316   0.753   0.426   1.408  0.1083  0.4934 -0.0580
 1634TIP3    H126317   0.789   0.479   1.337 -0.4438 -1.1959 -1.6560
 1634TIP3    H226318   0.823   0.364   1.429  0.1706  0.8126  0.7467
 1635TIP3   OH226319   1.829   6.502  14.006 -0.0528 -0.1271 -0.2712
 1635TIP3    H126320   1.785   6.421  13.980  1.2487 -0.3563 -1.9144
 1635TIP3    H226321   1.921   6.477  14.014 -0.0999  0.3703  2.9447
 1636TIP3   OH226322   3.796   3.599  13.145 -0.1288 -0.1085  0.3022
 1636TIP3    H126323   3.838   3.514  13.159 -1.2672 -0.8363 -0.5776
 1636TIP3    H226324   3.706   3.586  13.173 -0.1076  1.0624  0.9405
 1637TIP3   OH226325   5.521   5.734   1.588 -0.4540 -0.3403  0.2209
 1637TIP3    H126326   5.511   5.638   1.593  0.4882 -0.4538  0.1802
 1637TIP3    H226327   5.576   5.756   1.663  0.8936 -0.0827 -0.8059
 1638TIP3   OH226328   0.353   1.608   0.184 -0.3782 -0.2347  0.1781
 1638TIP3    H126329   0.367   1.525   0.229 -1.8970  0.4709  2.0602
 1638TIP3    H226330   0.424   1.664   0.214  0.4511 -0.7182 -0.8298
 1639TIP3   OH226331   3.666   5.060   4.339  0.0194 -0.0335 -0.3600
 1639TIP3    H126332   3.572   5.067   4.355  0.2199  0.8026  0.5380
 1639TIP3    H226333   3.694   4.985   4.392 -0.1439 -0.3325 -0.6891
 1640TIP3   OH226334   2.856   0.872   4.195 -0.1248 -1.0437  0.3540
 1640TIP3    H126335   2.906   0.872   4.277  1.2609 -2.7396 -0.4204
 1640TIP3    H226336   2.918   0.905   4.130 -1.3166  0.6126 -0.0225
 1641TIP3   OH226337   0.013   6.247   1.260 -0.4375  0.2218 -1.3008
 1641TIP3    H126338   0.012   6.164   1.212 -0.5671  0.8790 -2.4797
 1641TIP3    H226339  -0.041   6.231   1.337  1.2026 -1.3961 -0.3941
 1642TIP3   OH226340   1.971   3.961  16.988 -0.5074  0.0202  0.0261
 1642TIP3    H126341   2.054   4.008  16.976  0.3955 -1.5759 -0.2341
 1642TIP3    H226342   1.986   3.875  16.949 -2.0385 -0.5726  0.6674
 1643TIP3   OH226343   0.534   4.212  15.415  0.6106 -0.0561 -0.5610
 1643TIP3    H126344   0.512   4.300  15.446  2.2159  0.6558 -1.3399
 1643TIP3    H226345   0.619   4.222  15.373  1.0162 -2.0716 -0.3100
 1644TIP3   OH226346   3.462   4.579   5.786 -0.3101 -0.2873  0.3880
 1644TIP3    H126347   3.464   4.527   5.865  0.7093  0.1646  0.6745
 1644TIP3    H226348   3.459   4.515   5.715 -3.1159 -0.7098  0.7679
 1645TIP3   OH226349   4.186   3.458   1.298  0.1239  0.1721 -0.0398
 1645TIP3    H126350   4.130   3.514   1.244  1.5883 -0.0351 -1.8801
 1645TIP3    H226351   4.196   3.507   1.380 -1.9312  0.6350  0.0021
 1646TIP3   OH226352   4.180   0.561   5.573  0.2237 -0.0781  0.0956
 1646TIP3    H126353   4.219   0.575   5.659  1.9900 -1.2185 -0.4495
 1646TIP3    H226354   4.211   0.635   5.520 -1.3024  0.9148  0.5371
 1647TIP3   OH226355   3.511   4.706  13.234 -0.3051 -0.3174 -0.2214
 1647TIP3    H126356   3.421   4.738  13.238 -1.0421 -2.2994  0.9820
 1647TIP3    H226357   3.538   4.700  13.325 -0.0541 -2.4374 -0.3725
 1648TIP3   OH226358   5.992   5.374   0.113 -0.8408  0.1288 -0.2490
 1648TIP3    H126359   6.058   5.344   0.051  0.0780  1.6332 -0.0517
 1648TIP3    H226360   5.911   5.331   0.085  0.1999 -1.7781 -0.4735
 1649TIP3   OH226361   2.924   0.978  16.577  0.4035 -0.2011  0.4650
 1649TIP3    H126362   2.837   0.942  16.558  0.7111  0.1865 -2.0225
 1649TIP3    H226363   2.907   1.065  16.611 -0.1999  0.0531 -0.4473
 1650TIP3   OH226364   5.221   0.981  11.475  0.0499 -0.4377  0.6066
 1650TIP3    H126365   5.130   0.967  11.449  0.2119 -0.3462 -0.0246
 1650TIP3    H226366   5.231   1.076  11.480  0.3071 -0.4207 -0.0723
 1651TIP3   OH226367   6.557   4.714  13.892 -0.0135  0.2918 -0.1990
 1651TIP3    H126368   6.593   4.630  13.919  0.3787  0.8533  1.1246
 1651TIP3    H226369   6.610   4.779  13.939 -0.4039  1.2764 -1.0639
 1652TIP3   OH226370   6.522   5.975   4.724 -0.0471  0.4721 -0.2417
 1652TIP3    H126371   6.507   5.896   4.672 -1.1548 -0.4583  1.3973
 1652TIP3    H226372   6.452   6.035   4.698 -0.9221 -0.1932  0.5101
 1653TIP3   OH226373   2.057   6.720   0.129 -0.0970 -0.2059 -0.0334
 1653TIP3    H126374   2.066   6.626   0.120 -2.9744 -0.6668  0.8769
 1653TIP3    H226375   2.104   6.741   0.210  1.4696 -0.6372 -0.8021
 1654TIP3   OH226376   3.160   4.809   2.326 -0.4824 -0.7625  0.5139
 1654TIP3    H126377   3.213   4.881   2.291 -0.8982  0.0741  1.5902
 1654TIP3    H226378   3.132   4.838   2.412 -3.5530 -0.7405 -0.3813
 1655TIP3   OH226379   6.444   5.115   3.161 -0.5388  0.5317  0.0317
 1655TIP3    H126380   6.359   5.075   3.143  0.0894 -0.5368 -0.6914
 1655TIP3    H226381   6.459   5.099   3.254 -1.0121  0.5077  0.1057
 1656TIP3   OH226382   4.071   1.928  13.896  0.3310  0.3087 -0.4895
 1656TIP3    H126383   4.070   1.861  13.964 -0.3712  1.6156  0.8486
 1656TIP3    H226384   4.087   2.010  13.943  2.4595  0.9837 -2.2144
 1657TIP3   OH226385   0.438   6.525  16.328 -0.5135 -0.0635  0.2848
 1657TIP3    H126386   0.372   6.523  16.398  1.0907 -1.1394  1.8427
 1657TIP3    H226387   0.509   6.471  16.361 -0.0366 -1.3473 -2.6003
 1658TIP3   OH226388   2.269   3.720  10.860 -0.1952 -0.3291 -0.1582
 1658TIP3    H126389   2.206   3.662  10.902  1.1899 -2.2152 -0.5664
 1658TIP3    H226390   2.250   3.711  10.766 -0.7319  0.8370 -0.1845
 1659TIP3   OH226391   2.800   3.387  16.241  0.1891 -0.1739  0.1148
 1659TIP3    H126392   2.718   3.429  16.268  0.6979  1.4414 -0.7647
 1659TIP3    H226393   2.773   3.299  16.212 -1.2991  0.4688 -0.5387
 1660TIP3   OH226394   0.621   6.382  12.290  0.3475  0.1838 -0.6037
 1660TIP3    H126395   0.555   6.391  12.222 -0.4847 -1.0345  0.0068
 1660TIP3    H226396   0.604   6.297  12.329  2.2342 -0.1338 -0.3584
 1661TIP3   OH226397   5.161   0.786   0.388  0.2721  0.0850  0.1336
 1661TIP3    H126398   5.128   0.697   0.395  1.5532 -0.2855  2.2389
 1661TIP3    H226399   5.254   0.776   0.372  0.4550  1.0432  0.5287
 1662TIP3   OH226400   5.735   1.271   1.808 -0.2327  0.1638 -0.3037
 1662TIP3    H126401   5.788   1.241   1.882  3.0859  1.0587 -2.0956
 1662TIP3    H226402   5.711   1.361   1.830 -0.4182 -0.0301  0.2758
 1663TIP3   OH226403   2.837   3.351   3.543 -0.3500 -0.2534 -0.3262
 1663TIP3    H126404   2.757   3.310   3.577 -0.2167 -1.2993 -1.2116
 1663TIP3    H226405   2.849   3.312   3.457  2.0429 -1.3772  0.4347
 1664TIP3   OH226406   6.598   2.861  12.618 -0.2823 -0.4594  0.3081
 1664TIP3    H126407   6.567   2.933  12.674 -1.0982 -2.5533  2.7276
 1664TIP3    H226408   6.519   2.815  12.592  0.3211 -1.9913  1.0245
 1665TIP3   OH226409   3.537   5.655   3.062  0.8435  0.0723 -0.4328
 1665TIP3    H126410   3.517   5.600   2.986  3.0502 -4.3663  1.7899
 1665TIP3    H226411   3.628   5.681   3.048  1.2194 -0.6609  0.5124
 1666TIP3   OH226412   4.039   6.669   4.976  0.3188  0.2128  0.4496
 1666TIP3    H126413   4.000   6.756   4.964  0.5917  0.3438  0.5144
 1666TIP3    H226414   4.007   6.618   4.901 -1.1913 -0.1174  1.2703
 1667TIP3   OH226415   1.823   3.874  12.338  0.5102  0.2289 -0.6695
 1667TIP3    H126416   1.804   3.780  12.342  0.1730  0.2946 -0.6790
 1667TIP3    H226417   1.747   3.915  12.380  0.7791  0.4813 -0.4310
 1668TIP3   OH226418   3.403   5.357   4.266 -0.0343 -0.3941 -0.1188
 1668TIP3    H126419   3.473   5.421   4.279  0.1130  0.0445 -2.5484
 1668TIP3    H226420   3.439   5.275   4.300  1.8304 -0.2446 -1.5588
 1669TIP3   OH226421   1.018   3.434  12.139  0.5983  0.0266 -0.4047
 1669TIP3    H126422   1.059   3.516  12.166 -0.3317  0.4997 -0.3519
 1669TIP3    H226423   1.023   3.378  12.217  0.4282  0.3758 -0.1358
 1670TIP3   OH226424   3.681   6.305   2.173  1.1510  0.1963  0.4955
 1670TIP3    H126425   3.742   6.340   2.108  0.6640  2.9195  1.3952
 1670TIP3    H226426   3.604   6.281   2.122  1.6294  0.0695 -0.1992
 1671TIP3   OH226427   6.709   2.324   3.871 -0.1803  0.3204  0.8086
 1671TIP3    H126428   6.692   2.361   3.957 -1.7404 -1.9237  1.5534
 1671TIP3    H226429   6.769   2.251   3.887  1.2838  1.2024 -0.3505
 1672TIP3   OH226430   2.954   3.290   0.243 -0.0374 -0.1022 -0.1585
 1672TIP3    H126431   2.901   3.359   0.283 -0.4555  0.4536 -1.6007
 1672TIP3    H226432   2.974   3.231   0.315 -1.7951  0.1972  0.6424
 1673TIP3   OH226433   1.333   4.669  15.872  0.1831  0.5507  0.5739
 1673TIP3    H126434   1.407   4.610  15.888 -0.4366 -0.1713  0.8162
 1673TIP3    H226435   1.318   4.712  15.956 -0.2822 -0.0230  0.7948
 1674TIP3   OH226436   4.411   1.755   2.735  0.5406 -0.6792 -0.5449
 1674TIP3    H126437   4.460   1.694   2.791  0.3760 -0.3756 -0.0660
 1674TIP3    H226438   4.338   1.703   2.701 -0.7536 -0.2587  1.4335
 1675TIP3   OH226439   3.979   6.477  13.355  0.4345 -0.5347 -0.0775
 1675TIP3    H126440   3.945   6.445  13.439  0.0189  0.1353  0.0164
 1675TIP3    H226441   3.993   6.398  13.303 -0.4584 -0.8743  0.1890
 1676TIP3   OH226442   6.316   2.364  12.258  0.1526  0.0929  0.2153
 1676TIP3    H126443   6.331   2.327  12.345 -0.8357  0.8048  0.7075
 1676TIP3    H226444   6.242   2.424  12.270  0.1304  0.3480 -1.0763
 1677TIP3   OH226445   1.708   6.347  12.627  0.3873  0.5173 -0.0893
 1677TIP3    H126446   1.731   6.373  12.716  1.7095 -1.0503  0.0839
 1677TIP3    H226447   1.760   6.404  12.571 -1.1462  2.1425  0.0773
 1678TIP3   OH226448   2.361   2.004   0.549  0.3327  0.3506  0.1551
 1678TIP3    H126449   2.286   2.004   0.490  0.5547 -0.4602 -0.1306
 1678TIP3    H226450   2.341   1.935   0.613  1.2897 -0.5945 -0.5240
 1679TIP3   OH226451   2.621   5.418   2.621  0.0914  0.0761  0.1817
 1679TIP3    H126452   2.554   5.389   2.559  0.1558  1.0082 -0.3364
 1679TIP3    H226453   2.646   5.338   2.668 -2.2997 -0.1004  1.3066
 1680TIP3   OH226454   0.733   5.363   4.881 -0.7460 -0.0544 -0.3716
 1680TIP3    H126455   0.753   5.335   4.971  0.1605 -0.5109 -0.7016
 1680TIP3    H226456   0.674   5.437   4.892 -0.2820  0.1946  0.6251
 1681TIP3   OH226457   1.413   5.837  13.549 -0.3083  0.1579  0.4441
 1681TIP3    H126458   1.493   5.848  13.497 -0.4520  1.2095  0.4203
 1681TIP3    H226459   1.344   5.873  13.493 -0.4369  1.5224  1.4143
 1682TIP3   OH226460   1.019   4.932  11.733  0.3698 -0.2386  0.0826
 1682TIP3    H126461   1.026   5.022  11.766  0.8510 -1.2383  3.0319
 1682TIP3    H226462   1.107   4.896  11.744 -0.1466 -1.4834  0.3573
 1683TIP3   OH226463   3.636   5.504  10.594  0.2033 -0.0918  0.4144
 1683TIP3    H126464   3.702   5.556  10.547 -0.0402  0.0125  0.1858
 1683TIP3    H226465   3.614   5.557  10.670  0.4619 -0.1760  0.5490
 1684TIP3   OH226466   4.643   2.625  13.213  0.1543 -0.1472 -0.1802
 1684TIP3    H126467   4.597   2.588  13.289 -1.6242  0.6828 -0.7987
 1684TIP3    H226468   4.688   2.550  13.174  1.4913 -0.5270  1.9034
 1685TIP3   OH226469   5.344   1.777  11.084 -0.0070 -0.6629  0.3356
 1685TIP3    H126470   5.252   1.767  11.058 -0.2107  1.9570 -0.2388
 1685TIP3    H226471   5.394   1.747  11.008 -0.4435 -0.1340 -0.1660
 1686TIP3   OH226472   3.174   4.315   2.583 -0.1405  0.6145 -0.2192
 1686TIP3    H126473   3.226   4.324   2.503  0.8193 -2.0270 -0.0288
 1686TIP3    H226474   3.097   4.265   2.556  0.1897 -0.2960  0.4558
 1687TIP3   OH226475   4.112   3.956   5.256 -0.0601 -0.1083  0.2115
 1687TIP3    H126476   4.031   3.955   5.307 -0.4591 -0.5187 -0.4148
 1687TIP3    H226477   4.165   4.026   5.296  0.5819 -1.8476  2.5774
 1688TIP3   OH226478   0.895   3.875   4.285  0.3375  0.6427  0.3724
 1688TIP3    H126479   0.909   3.965   4.255  0.5896  0.0659 -1.3461
 1688TIP3    H226480   0.967   3.825   4.247 -0.1795 -0.4127  0.7386
 1689TIP3   OH226481   2.671   4.290   3.341  0.3893 -0.1094  0.2906
 1689TIP3    H126482   2.622   4.231   3.398  0.9259 -0.9734 -0.1146
 1689TIP3    H226483   2.605   4.331   3.285 -0.0195 -0.0934  0.7806
 1690TIP3   OH226484   1.441   1.426   1.366  0.1331 -0.1765  0.3261
 1690TIP3    H126485   1.535   1.415   1.380 -0.1359 -3.0560  0.3721
 1690TIP3    H226486   1.402   1.347   1.403 -2.1158 -0.1411 -1.7622
 1691TIP3   OH226487   4.486   4.886   1.295  0.8008 -0.1940  0.4341
 1691TIP3    H126488   4.433   4.841   1.360 -0.7505  1.3084  0.2980
 1691TIP3    H226489   4.456   4.977   1.298 -0.8086 -0.3408 -3.6794
 1692TIP3   OH226490   2.003   1.400  13.792 -0.0519  0.2802 -0.2417
 1692TIP3    H126491   2.000   1.446  13.876  0.5395  1.1721 -0.6941
 1692TIP3    H226492   2.006   1.308  13.815 -1.0134  0.4558  0.6985
 1693TIP3   OH226493   0.435   6.383  12.783  0.2730 -0.3375 -0.1129
 1693TIP3    H126494   0.445   6.379  12.687 -1.2663  1.0607 -0.3669
 1693TIP3    H226495   0.479   6.464  12.808 -1.9197  0.9143 -0.0687
 1694TIP3   OH226496   0.915   0.584  12.530  0.1840  0.0853  0.3862
 1694TIP3    H126497   0.967   0.621  12.459 -0.7190  0.7935  0.0752
 1694TIP3    H226498   0.979   0.541  12.587  0.9307 -0.3843 -0.7828
 1695TIP3   OH226499   0.447   1.416  14.062 -0.1911 -0.2081 -0.4278
 1695TIP3    H126500   0.430   1.506  14.088  2.5376  0.2044  0.2991
 1695TIP3    H226501   0.371   1.390  14.011 -1.2639  2.3318 -0.2478
 1696TIP3   OH226502   6.404   0.717   2.873 -0.2020 -0.1990  0.5162
 1696TIP3    H126503   6.309   0.728   2.884 -0.1212 -0.0195  1.0909
 1696TIP3    H226504   6.418   0.622   2.876 -0.2412 -0.1832  1.6109
 1697TIP3   OH226505   2.917   2.345  12.916  0.5246 -0.1952  0.0570
 1697TIP3    H126506   2.973   2.383  12.985 -1.6131  1.2351  1.0979
 1697TIP3    H226507   2.852   2.294  12.964 -2.3619  2.5911 -0.6178
 1698TIP3   OH226508   5.862   0.917  15.837 -0.1474 -0.3077  0.4224
 1698TIP3    H126509   5.830   0.901  15.926 -1.3233  0.3017  0.1285
 1698TIP3    H226510   5.899   0.834  15.809  1.1098 -0.2763  1.8112
 1699TIP3   OH226511   6.710   3.123   2.392 -0.1060 -0.0209  0.2562
 1699TIP3    H126512   6.694   3.199   2.336 -0.8164 -0.3718 -0.0337
 1699TIP3    H226513   6.805   3.123   2.405  0.0238  0.3213 -0.5829
 1700TIP3   OH226514   1.352   6.002  12.414 -0.3967  0.0049 -0.0253
 1700TIP3    H126515   1.398   5.991  12.331 -0.4161  0.9857 -0.1822
 1700TIP3    H226516   1.377   6.090  12.444  1.1110 -1.0269  1.9714
 1701TIP3   OH226517   2.069   3.248   0.992 -0.2875 -0.2958 -0.7128
 1701TIP3    H126518   2.049   3.300   1.070 -1.7623  0.4617 -1.5592
 1701TIP3    H226519   2.106   3.167   1.027  2.4628  1.3947  0.6292
 1702TIP3   OH226520   6.760   2.212  12.056  0.6811 -0.3361 -0.2429
 1702TIP3    H126521   6.785   2.149  12.123  1.5112  0.5014  0.2502
 1702TIP3    H226522   6.675   2.244  12.085 -0.5017 -2.2973 -1.2904
 1703TIP3   OH226523   0.208   1.040  16.722 -0.6790 -0.2402 -0.4777
 1703TIP3    H126524   0.199   1.119  16.669  0.1664 -0.5896 -1.1637
 1703TIP3    H226525   0.266   1.066  16.794  1.4484 -0.7702 -1.9083
 1704TIP3   OH226526   1.532   1.335  16.541 -0.8150  0.6683  0.8697
 1704TIP3    H126527   1.506   1.390  16.468  1.0164  1.4596  0.7651
 1704TIP3    H226528   1.611   1.289  16.510 -1.1735 -0.5256  1.6474
 1705TIP3   OH226529   1.024   3.076   2.429 -0.2642 -0.1024  0.4052
 1705TIP3    H126530   1.036   3.119   2.345 -1.0031  0.1677  0.4294
 1705TIP3    H226531   1.044   2.984   2.412  1.8595  0.2925  0.4725
 1706TIP3   OH226532   2.871   6.496   3.505  0.4481 -0.0175  0.7191
 1706TIP3    H126533   2.810   6.424   3.492 -0.4920  0.8007  0.4997
 1706TIP3    H226534   2.946   6.457   3.550  0.0348 -1.1590  0.4398
 1707TIP3   OH226535   0.410   2.261  11.278  0.5788 -0.0479 -0.3116
 1707TIP3    H126536   0.327   2.288  11.238  0.4378  0.9116  0.5746
 1707TIP3    H226537   0.454   2.209  11.211 -1.1795 -1.4656 -0.4459
 1708TIP3   OH226538   6.392   0.094  11.963  0.0604 -0.3388  0.2610
 1708TIP3    H126539   6.472   0.042  11.960  0.5660  0.4434 -2.1740
 1708TIP3    H226540   6.339   0.054  12.032  2.0124 -1.6524  1.0561
 1709TIP3   OH226541   0.599   2.272  15.514 -1.2190 -0.3246 -0.4477
 1709TIP3    H126542   0.611   2.335  15.443  0.7077  0.5878  0.6281
 1709TIP3    H226543   0.533   2.311  15.571 -0.6550  0.3151 -0.2309
 1710TIP3   OH226544   6.399   5.611   4.868  0.2667  0.2014  0.1219
 1710TIP3    H126545   6.354   5.684   4.826  0.8724 -0.0572 -1.0116
 1710TIP3    H226546   6.488   5.643   4.881  0.4428 -0.2093 -0.0654
 1711TIP3   OH226547   0.879   0.418  13.896 -0.7203 -0.4612 -0.2917
 1711TIP3    H126548   0.882   0.505  13.856  0.5613  0.5358  1.8084
 1711TIP3    H226549   0.827   0.365  13.835 -1.2302  1.6654 -1.8038
 1712TIP3   OH226550   1.119   1.532   2.491 -0.6796  0.4731 -0.6244
 1712TIP3    H126551   1.125   1.545   2.396 -0.4789 -0.7852 -0.8046
 1712TIP3    H226552   1.209   1.537   2.522 -0.7829  1.2878 -0.4261
 1713TIP3   OH226553   5.407   5.114   3.533  0.8780 -0.2132 -0.1606
 1713TIP3    H126554   5.463   5.039   3.554  1.4380  0.1535 -0.3110
 1713TIP3    H226555   5.318   5.080   3.540  1.0568 -1.9371 -3.8489
 1714TIP3   OH226556   1.223   3.848  13.175 -0.5666  0.6953  0.0444
 1714TIP3    H126557   1.218   3.793  13.254 -0.9228  1.0333  0.2621
 1714TIP3    H226558   1.137   3.888  13.169 -1.0899 -0.5601 -1.4385
 1715TIP3   OH226559   2.081   3.002  11.984 -0.3352  0.4080  0.3581
 1715TIP3    H126560   2.005   3.050  11.952  0.0961 -0.7559 -2.7385
 1715TIP3    H226561   2.045   2.931  12.037 -1.1778  1.6577  1.5137
 1716TIP3   OH226562   2.858   5.720  15.474 -0.2555 -0.1626 -0.1092
 1716TIP3    H126563   2.847   5.803  15.427 -1.4832  0.7286  1.6214
 1716TIP3    H226564   2.857   5.653  15.405 -1.1385  1.1190 -1.4081
 1717TIP3   OH226565   1.489   4.623  10.596 -0.0586  0.2239 -0.3749
 1717TIP3    H126566   1.458   4.545  10.550  1.0400 -0.1513 -0.5195
 1717TIP3    H226567   1.411   4.675  10.611 -0.7138 -0.5819 -0.9016
 1718TIP3   OH226568   1.074   4.555   2.416 -0.2515 -0.7930  0.5345
 1718TIP3    H126569   1.168   4.570   2.421  0.0981 -1.9531 -1.4198
 1718TIP3    H226570   1.055   4.490   2.484 -0.2548  1.6500  3.0278
 1719TIP3   OH226571   0.216   6.006  12.326  0.0344  0.1965 -0.1043
 1719TIP3    H126572   0.210   6.100  12.342 -1.5428  0.6078 -2.5286
 1719TIP3    H226573   0.149   5.968  12.382 -0.6571  0.7588 -0.5372
 1720TIP3   OH226574   2.846   4.330  16.467 -0.2233  0.0514  0.8121
 1720TIP3    H126575   2.816   4.260  16.525 -0.3322  0.3177  1.0813
 1720TIP3    H226576   2.874   4.285  16.388 -2.1818 -0.1585  0.1822
 1721TIP3   OH226577   3.991   3.661   2.369 -0.7135 -0.3202  0.2313
 1721TIP3    H126578   4.034   3.726   2.424  0.2044 -2.3316  2.0374
 1721TIP3    H226579   3.929   3.616   2.426  0.3038 -2.5187 -0.2429
 1722TIP3   OH226580   0.757   2.170  15.253  0.5557  0.4653  0.0803
 1722TIP3    H126581   0.673   2.214  15.266  0.4211  0.0579  0.5895
 1722TIP3    H226582   0.817   2.241  15.230 -0.0025  0.7116 -0.6511
 1723TIP3   OH226583   6.300   4.499   4.335  0.0644  0.6316  0.1965
 1723TIP3    H126584   6.213   4.459   4.342 -0.1521  0.8795 -0.9309
 1723TIP3    H226585   6.355   4.444   4.390 -0.8654  0.6616  1.1972
 1724TIP3   OH226586   3.356   4.311   2.063  0.3548  0.1450  0.0601
 1724TIP3    H126587   3.373   4.231   2.013  2.6177 -0.1668  1.1838
 1724TIP3    H226588   3.434   4.321   2.119 -0.1012  2.8393  0.3437
 1725TIP3   OH226589   5.029   6.078  13.409  0.2201  0.0820 -0.2835
 1725TIP3    H126590   4.943   6.104  13.442  0.0005 -0.7826 -0.1580
 1725TIP3    H226591   5.021   5.985  13.388  1.1538 -0.0436 -0.1612
 1726TIP3   OH226592   1.772   1.335  10.473 -0.2265  0.3146  0.2955
 1726TIP3    H126593   1.773   1.384  10.390 -0.0854 -1.9218 -1.1002
 1726TIP3    H226594   1.800   1.247  10.449 -1.2334 -0.6963  2.5573
 1727TIP3   OH226595   0.386   2.959  13.880  0.0511  0.0063 -0.2647
 1727TIP3    H126596   0.328   3.035  13.874  0.1579  0.0062 -1.6256
 1727TIP3    H226597   0.328   2.884  13.863  0.4422  0.0149 -1.7637
 1728TIP3   OH226598   3.382   6.613  13.397 -0.0933  0.4701 -0.7275
 1728TIP3    H126599   3.301   6.630  13.349  0.0061  2.1322 -0.3598
 1728TIP3    H226600   3.443   6.681  13.368  0.8672 -0.1844 -0.3006
 1729TIP3   OH226601   5.112   3.475   2.881 -0.3842  0.2795  0.3797
 1729TIP3    H126602   5.208   3.481   2.881 -0.3288 -0.6027  0.6481
 1729TIP3    H226603   5.092   3.388   2.914 -1.2353 -0.4091 -1.7676
 1730TIP3   OH226604   5.222   3.106   1.816  0.0034 -0.9607  0.2348
 1730TIP3    H126605   5.217   3.192   1.856  0.2181  0.8184 -3.1429
 1730TIP3    H226606   5.132   3.085   1.791  0.1023 -1.1980  0.0693
 1731TIP3   OH226607   3.539   3.987  12.879 -0.0984 -0.8760  0.2063
 1731TIP3    H126608   3.485   3.908  12.885 -1.6489  0.2626  2.9881
 1731TIP3    H226609   3.482   4.058  12.908  2.3113  0.7069  1.4021
 1732TIP3   OH226610   0.237   3.056  11.041  0.0881  0.6724 -0.6397
 1732TIP3    H126611   0.320   3.028  11.001  1.7255 -0.5729  3.1988
 1732TIP3    H226612   0.192   2.974  11.061  0.6082  1.0155  2.3185
 1733TIP3   OH226613   0.871   4.688  11.624  0.5339 -0.3568 -0.6249
 1733TIP3    H126614   0.948   4.734  11.658  2.3104 -1.6211 -2.6711
 1733TIP3    H226615   0.798   4.748  11.640  1.7656  0.6133  2.0226
 1734TIP3   OH226616   1.551   1.771  10.960 -0.3118  0.3058 -0.1154
 1734TIP3    H126617   1.640   1.793  10.990 -0.8520  2.0703  0.2959
 1734TIP3    H226618   1.519   1.709  11.024  0.7367 -0.6494 -0.4680
 1735TIP3   OH226619   3.047   0.342  13.819  0.0450  0.1594 -0.7368
 1735TIP3    H126620   3.032   0.335  13.913 -0.9732  0.6547 -0.8466
 1735TIP3    H226621   3.121   0.284  13.802 -0.2840 -0.5740  0.2445
 1736TIP3   OH226622   6.154   6.457   1.363  0.1114 -0.5585 -0.1405
 1736TIP3    H126623   6.106   6.500   1.292  0.2541 -2.0525 -1.1788
 1736TIP3    H226624   6.090   6.448   1.433 -0.1026  0.7033 -0.1335
 1737TIP3   OH226625   6.118   1.080   3.828  0.1916 -0.6966  0.3341
 1737TIP3    H126626   6.041   1.057   3.879 -0.7158 -0.3829 -0.8548
 1737TIP3    H226627   6.108   1.032   3.746 -0.0551  1.2636 -0.8572
 1738TIP3   OH226628   5.020   6.067  12.532  0.0138  1.1182  0.4926
 1738TIP3    H126629   4.985   6.145  12.488  1.4114  1.7035  0.3661
 1738TIP3    H226630   5.031   6.094  12.623  1.7210  1.5496  0.2066
 1739TIP3   OH226631   5.113   0.500  13.038  0.3009 -0.5575 -0.1693
 1739TIP3    H126632   5.064   0.437  13.091  2.8754 -0.6571  2.3153
 1739TIP3    H226633   5.087   0.585  13.073  0.0709 -0.4698 -0.5519
 1740TIP3   OH226634   5.023   4.730  13.024 -0.4700 -0.1223 -0.1214
 1740TIP3    H126635   5.112   4.767  13.026 -0.4531 -0.1511 -0.3770
 1740TIP3    H226636   5.016   4.681  13.106 -0.3573  0.1334  0.0434
 1741TIP3   OH226637   0.642   4.504   0.744 -0.1666 -0.4546 -0.0390
 1741TIP3    H126638   0.627   4.562   0.819  0.4045 -1.9817  1.3096
 1741TIP3    H226639   0.600   4.549   0.671  0.1541  1.5846  0.9646
 1742TIP3   OH226640   2.861   6.771   3.165 -0.6152 -0.2474  0.4872
 1742TIP3    H126641   2.786   6.831   3.165 -2.1586 -2.0514  2.2629
 1742TIP3    H226642   2.907   6.792   3.247 -0.7052 -0.9262  0.7125
 1743TIP3   OH226643   2.213   2.879  15.349  0.5394 -0.1430  0.3271
 1743TIP3    H126644   2.246   2.908  15.264 -0.7249  3.0553  0.7803
 1743TIP3    H226645   2.281   2.906  15.411  1.3887 -2.3295  0.4117
 1744TIP3   OH226646   5.611   3.771  11.815  0.2045 -0.0222  0.5143
 1744TIP3    H126647   5.555   3.820  11.876  1.4402  0.7716  1.0713
 1744TIP3    H226648   5.692   3.757  11.864  0.2325 -1.8099  0.0015
 1745TIP3   OH226649   5.592   6.477  11.705 -0.4109 -0.9239 -0.5800
 1745TIP3    H126650   5.545   6.546  11.752 -3.1145 -2.9128 -0.0597
 1745TIP3    H226651   5.623   6.519  11.625 -0.8195  1.1675  0.2804
 1746TIP3   OH226652   6.691   0.304   4.479  0.8182  0.0093 -0.2850
 1746TIP3    H126653   6.652   0.389   4.457  1.5828 -0.1200 -2.4526
 1746TIP3    H226654   6.616   0.249   4.502  0.2345  1.0535  0.4016
 1747TIP3   OH226655   6.108   5.959   1.742 -0.3681  0.0707  0.5490
 1747TIP3    H126656   6.055   5.995   1.670  0.7202  0.7484  0.0562
 1747TIP3    H226657   6.115   6.031   1.804  0.8201  0.3397  0.1240
 1748TIP3   OH226658   3.543   6.019   0.944  0.8081 -1.4286  0.0876
 1748TIP3    H126659   3.516   5.938   0.900  0.3411 -1.6845  0.8249
 1748TIP3    H226660   3.567   6.078   0.873  1.1404 -2.2088 -0.4628
 1749TIP3   OH226661   4.058   4.623   6.625  0.4198 -0.7754  0.2030
 1749TIP3    H126662   4.085   4.612   6.534  1.6119 -3.2061  0.7660
 1749TIP3    H226663   3.979   4.677   6.620  0.9089 -0.1551 -2.1731
 1750TIP3   OH226664   2.646   6.576  16.409 -0.1864 -0.0865 -0.6395
 1750TIP3    H126665   2.740   6.588  16.425 -0.3920  0.6314  0.1287
 1750TIP3    H226666   2.606   6.587  16.495 -0.7749 -2.9073 -0.4668
 1751TIP3   OH226667   2.131   1.439  12.051 -0.0867 -0.4914  0.2434
 1751TIP3    H126668   2.161   1.500  12.118 -0.3251 -2.2201  2.0045
 1751TIP3    H226669   2.037   1.458  12.042 -0.0272 -0.1622  0.2879
 1752TIP3   OH226670   6.093   2.356   0.584 -0.5734 -0.0674 -0.2696
 1752TIP3    H126671   6.153   2.384   0.653 -1.1651 -1.9547  1.1038
 1752TIP3    H226672   6.144   2.363   0.503  0.7225  0.5386  0.5704
 1753TIP3   OH226673   5.187   5.816  14.528 -0.5147 -0.0628  0.6899
 1753TIP3    H126674   5.203   5.749  14.461  0.3610 -0.1762  0.9921
 1753TIP3    H226675   5.219   5.776  14.609  1.1228  1.1223  0.6838
 1754TIP3   OH226676   5.330   4.863   7.101  0.1584 -0.0831  0.0949
 1754TIP3    H126677   5.403   4.847   7.161  0.7017 -0.1938 -0.5783
 1754TIP3    H226678   5.337   4.793   7.035  0.3807  0.7942 -0.8437
 1755TIP3   OH226679   3.311   5.443  12.454  0.6811  0.1042 -0.1210
 1755TIP3    H126680   3.244   5.507  12.476  1.3498  0.8129 -0.0810
 1755TIP3    H226681   3.317   5.386  12.530 -2.2781 -2.1521 -1.4103
 1756TIP3   OH226682   4.169   5.459   4.537 -0.3720  0.4221 -0.2195
 1756TIP3    H126683   4.124   5.376   4.523  1.1297 -1.0013  2.5011
 1756TIP3    H226684   4.105   5.513   4.584 -0.6275 -0.0319 -0.0395
 1757TIP3   OH226685   2.437   4.494   0.246 -0.2818  0.7577  0.3580
 1757TIP3    H126686   2.391   4.411   0.259  0.9307 -0.3874 -1.9920
 1757TIP3    H226687   2.525   4.478   0.279 -0.0686  1.1224 -0.0180
 1758TIP3   OH226688   6.698   6.327  11.664 -0.4265 -0.3079 -0.3485
 1758TIP3    H126689   6.613   6.372  11.655  0.9157  2.2218 -1.3284
 1758TIP3    H226690   6.715   6.292  11.577  0.1198  0.3806 -0.5305
 1759TIP3   OH226691   5.547   0.203  16.991 -0.4762 -0.0430  0.8132
 1759TIP3    H126692   5.503   0.221  16.908  1.8008 -1.6082 -0.8704
 1759TIP3    H226693   5.598   0.283  17.009  0.5286 -0.3674 -0.3995
 1760TIP3   OH226694   6.047   2.460  16.342 -0.0896 -0.3946  0.6385
 1760TIP3    H126695   6.124   2.438  16.290  1.1208  0.0534  2.1682
 1760TIP3    H226696   6.033   2.553  16.327  0.2531 -0.2680  1.0627
 1761TIP3   OH226697   5.036   6.070   2.250  0.2121  0.3437  0.1297
 1761TIP3    H126698   5.050   6.031   2.163  0.6500  1.5263 -0.3525
 1761TIP3    H226699   5.010   5.996   2.305  2.3979 -0.9118 -0.3916
 1762TIP3   OH226700   2.638   1.316   5.577 -0.4726 -0.0217 -0.0085
 1762TIP3    H126701   2.586   1.240   5.603 -0.0964  0.4670  2.4524
 1762TIP3    H226702   2.617   1.383   5.642  2.3295  0.5611  0.4418
 1763TIP3   OH226703   5.472   5.400   3.624  0.4587  0.1658  0.7938
 1763TIP3    H126704   5.442   5.310   3.612 -1.3060  0.7077  0.8163
 1763TIP3    H226705   5.568   5.395   3.619  0.3462 -1.4284 -1.1007
 1764TIP3   OH226706   0.212   2.355   0.447 -0.0939 -0.3821  0.0805
 1764TIP3    H126707   0.128   2.351   0.401  0.2246 -0.7111 -0.4844
 1764TIP3    H226708   0.223   2.269   0.486 -0.4411 -0.0520  0.9366
 1765TIP3   OH226709   3.428   5.944   1.488  0.1370 -0.1970  0.0476
 1765TIP3    H126710   3.338   5.913   1.481  0.8295 -2.5217  0.3920
 1765TIP3    H226711   3.469   5.918   1.405  0.4264  1.1909 -0.2723
 1766TIP3   OH226712   2.177   4.387  12.291  0.3728  0.1289  0.2449
 1766TIP3    H126713   2.207   4.307  12.248 -0.6132 -0.3298  0.3749
 1766TIP3    H226714   2.171   4.452  12.220 -1.0520 -0.5644 -0.3129
 1767TIP3   OH226715   4.349   5.821   1.832 -0.1667  0.2354 -0.8611
 1767TIP3    H126716   4.324   5.848   1.920 -0.8066 -1.1406 -0.5954
 1767TIP3    H226717   4.445   5.818   1.834 -0.1759  0.3243 -0.2464
 1768TIP3   OH226718   6.044   3.144   4.827  0.3276  0.0362  0.2564
 1768TIP3    H126719   6.116   3.149   4.890  1.6214  1.0850 -1.2080
 1768TIP3    H226720   6.035   3.051   4.808  0.8854 -0.1597  0.9393
 1769TIP3   OH226721   6.199   2.984   4.135  0.2441 -0.1767 -0.4620
 1769TIP3    H126722   6.190   3.073   4.100  0.4547  0.0180 -0.0327
 1769TIP3    H226723   6.285   2.955   4.107  1.2912  0.7559  1.5614
 1770TIP3   OH226724   5.483   6.264   5.845 -0.2052 -0.0173  0.8210
 1770TIP3    H126725   5.507   6.310   5.765  0.6592  0.3377  1.2722
 1770TIP3    H226726   5.525   6.178   5.837  1.0975  0.5227  1.5073
 1771TIP3   OH226727   3.060   0.219   6.696  0.6773  0.3472 -0.5610
 1771TIP3    H126728   3.092   0.305   6.671  0.2339  0.7447  0.1976
 1771TIP3    H226729   3.107   0.158   6.640  3.9369  0.7434  1.5038
 1772TIP3   OH226730   1.823   6.541   1.637 -0.5021  0.3512 -0.3795
 1772TIP3    H126731   1.858   6.575   1.719  0.9164 -2.7846  0.4826
 1772TIP3    H226732   1.885   6.572   1.570  0.1819  0.2969  0.2156
 1773TIP3   OH226733   3.835   5.093  15.331 -0.0365 -0.1428 -1.2242
 1773TIP3    H126734   3.813   5.000  15.336  1.0045 -0.3818 -0.9033
 1773TIP3    H226735   3.917   5.101  15.378  0.5797  0.7151 -2.3871
 1774TIP3   OH226736   5.087   6.658   5.912 -0.0279 -0.0978  0.5906
 1774TIP3    H126737   5.169   6.694   5.945  0.1450 -1.7353  2.0994
 1774TIP3    H226738   5.029   6.654   5.988 -1.0409 -0.2407 -0.1609
 1775TIP3   OH226739   0.082   5.322   0.644  0.0513 -0.1391  0.4359
 1775TIP3    H126740   0.040   5.376   0.578  1.8401 -0.6340 -1.1731
 1775TIP3    H226741   0.148   5.378   0.684 -0.1388 -0.2398  0.9048
 1776TIP3   OH226742   5.335   5.342  15.975 -0.1380 -0.1885 -0.1621
 1776TIP3    H126743   5.316   5.412  15.912  0.3903  2.1093  2.0671
 1776TIP3    H226744   5.257   5.286  15.973 -1.6871  1.8446 -0.3325
 1777TIP3   OH226745   4.454   3.982   1.537  0.3084  0.2843  0.4717
 1777TIP3    H126746   4.393   3.913   1.562 -1.3514  1.3645 -0.4149
 1777TIP3    H226747   4.456   3.978   1.441  1.3193  0.5411  0.4763
 1778TIP3   OH226748   4.083   1.577  11.721  0.3593 -0.4418 -0.3648
 1778TIP3    H126749   4.003   1.602  11.674  0.0931 -2.6781 -1.2014
 1778TIP3    H226750   4.052   1.526  11.796  0.9089  1.1207  0.9783
 1779TIP3   OH226751   1.102   5.029  11.234 -0.5635  0.0375  0.3033
 1779TIP3    H126752   1.196   5.046  11.239 -0.6971  0.4545  2.0461
 1779TIP3    H226753   1.069   5.047  11.322 -2.5889  1.7043 -0.7053
 1780TIP3   OH226754   5.131   2.703  11.933 -0.7012 -0.0998 -0.0271
 1780TIP3    H126755   5.190   2.721  12.006  0.2745 -1.6580 -0.3638
 1780TIP3    H226756   5.174   2.742  11.857  0.5656 -2.1630 -0.4680
 1781TIP3   OH226757   3.682   2.190   0.987  0.9830  0.3684 -1.2436
 1781TIP3    H126758   3.762   2.215   1.034  0.3574  1.4594 -0.7011
 1781TIP3    H226759   3.641   2.274   0.965  0.1582 -0.1728 -1.8083
 1782TIP3   OH226760   1.291   4.075   0.519  0.1982 -0.8066 -0.0537
 1782TIP3    H126761   1.285   4.005   0.454  0.0073 -0.3471 -0.5446
 1782TIP3    H226762   1.312   4.031   0.601  0.2294 -1.4192 -0.3878
 1783TIP3   OH226763   1.023   2.419  14.684 -1.4894 -0.0842 -0.5543
 1783TIP3    H126764   1.002   2.379  14.768  0.9434 -0.4599 -0.0253
 1783TIP3    H226765   1.060   2.505  14.708 -0.0615 -0.5058 -1.1322
 1784TIP3   OH226766   3.624   4.164   1.828  0.5862 -0.0122 -0.0023
 1784TIP3    H126767   3.560   4.140   1.895  0.8003 -0.8939 -0.0963
 1784TIP3    H226768   3.617   4.259   1.821 -0.3176 -0.0361  0.3819
 1785TIP3   OH226769   1.678   5.260  12.073 -0.4135  0.0440  0.0421
 1785TIP3    H126770   1.600   5.313  12.057 -0.7827 -0.4878  0.0386
 1785TIP3    H226771   1.730   5.311  12.134 -1.0599  0.1310  0.5249
 1786TIP3   OH226772   0.393   3.575   5.605  0.0846 -0.2412 -0.5165
 1786TIP3    H126773   0.458   3.641   5.624 -0.0083 -0.4027  0.4279
 1786TIP3    H226774   0.437   3.492   5.623 -0.2254 -0.3713 -0.3487
 1787TIP3   OH226775   2.318   0.373  16.804  0.6590  0.4576 -0.1912
 1787TIP3    H126776   2.320   0.317  16.881 -0.8555  0.7440  0.0947
 1787TIP3    H226777   2.313   0.313  16.730 -0.0809  0.1894  0.0693
 1788TIP3   OH226778   3.447   0.363  15.075 -0.3188  0.3377 -0.1301
 1788TIP3    H126779   3.450   0.413  15.157 -1.1948  3.1941 -1.7273
 1788TIP3    H226780   3.469   0.426  15.007 -0.1830 -1.8082 -2.1948
 1789TIP3   OH226781   5.264   4.316   3.100  0.7098 -0.2940  0.0985
 1789TIP3    H126782   5.245   4.262   3.023  0.4864  1.0864 -0.8552
 1789TIP3    H226783   5.182   4.362   3.119  0.7855 -0.5517  1.1234
 1790TIP3   OH226784   2.481   6.565   1.164  0.0139 -0.0979 -0.4110
 1790TIP3    H126785   2.440   6.517   1.235 -0.3771  0.0157 -0.5598
 1790TIP3    H226786   2.419   6.634   1.142  1.0078  1.1453  0.5002
 1791TIP3   OH226787   1.380   6.784  16.218  0.0562  0.8345 -0.3792
 1791TIP3    H126788   1.334   6.830  16.148  0.2248  0.2906 -0.8591
 1791TIP3    H226789   1.473   6.796  16.199  0.1041  0.2780 -0.5381
 1792TIP3   OH226790   1.885   6.274   2.871  0.4289 -0.0629 -0.1834
 1792TIP3    H126791   1.802   6.230   2.889  0.7898 -0.3479  0.8561
 1792TIP3    H226792   1.861   6.363   2.845 -0.2551 -0.5328 -1.2385
 1793TIP3   OH226793   4.540   5.745  14.363 -0.7908 -0.6853  0.2333
 1793TIP3    H126794   4.453   5.717  14.335 -1.8094  3.1802 -1.0436
 1793TIP3    H226795   4.525   5.823  14.416  1.9219 -0.1346  0.3621
 1794TIP3   OH226796   0.479   1.908  15.331 -0.5255 -0.0509  0.2239
 1794TIP3    H126797   0.474   1.988  15.383 -1.5480  0.0298  0.0266
 1794TIP3    H226798   0.553   1.922  15.271  0.8732 -0.2699  1.8106
 1795TIP3   OH226799   1.077   5.240  12.949 -0.0306  0.1230  0.5963
 1795TIP3    H126800   1.000   5.290  12.922 -0.5403  0.0946  1.9261
 1795TIP3    H226801   1.042   5.173  13.008  1.0525  0.3622  1.5502
 1796TIP3   OH226802   5.884   4.120   6.056  0.1202  0.4398 -0.1351
 1796TIP3    H126803   5.829   4.144   6.131  0.2894  0.6964 -0.0928
 1796TIP3    H226804   5.942   4.052   6.089  1.1300  1.5038  0.3551
 1797TIP3   OH226805   5.945   6.729   3.378 -0.3891  0.2707  0.2856
 1797TIP3    H126806   6.003   6.793   3.338 -2.0566  2.3630  1.0357
 1797TIP3    H226807   5.993   6.698   3.455 -0.3090  2.1626  1.0558
 1798TIP3   OH226808   1.994   3.026  13.866 -0.2361 -0.2143 -0.0352
 1798TIP3    H126809   2.006   2.949  13.921 -0.6532 -0.6852 -0.5893
 1798TIP3    H226810   2.033   3.097  13.916  2.2299 -1.1495 -0.4657
 1799TIP3   OH226811   4.753   1.668   0.556  0.0475 -0.0323 -0.3155
 1799TIP3    H126812   4.825   1.642   0.499  0.1671  0.2376 -0.2916
 1799TIP3    H226813   4.715   1.586   0.588  0.0395 -0.1790 -0.7082
 1800TIP3   OH226814   2.656   0.959  12.693  0.0669  0.5909  0.1005
 1800TIP3    H126815   2.702   1.040  12.671 -0.9934  0.6967 -2.0504
 1800TIP3    H226816   2.660   0.907  12.613  0.3828 -1.3553  1.3153
 1801TIP3   OH226817   3.167   3.201   1.673 -0.0817 -0.1130  0.2593
 1801TIP3    H126818   3.108   3.212   1.598 -0.3489  0.0272  0.4846
 1801TIP3    H226819   3.166   3.107   1.691  0.3423 -0.2084 -0.1948
 1802TIP3   OH226820   0.115   1.154  12.934  0.6557  0.2429 -0.5491
 1802TIP3    H126821   0.079   1.142  12.846 -0.6679 -1.0182  0.1127
 1802TIP3    H226822   0.169   1.233  12.928  1.1324 -0.1915 -2.6320
 1803TIP3   OH226823   1.939   0.139  15.582 -0.3075  0.3650  0.3245
 1803TIP3    H126824   1.956   0.096  15.666  1.9288  0.3196 -0.0818
 1803TIP3    H226825   1.989   0.087  15.518 -3.4209 -0.7347 -1.4106
 1804TIP3   OH226826   2.663   3.097  14.756  1.1540  0.1024  0.0480
 1804TIP3    H126827   2.625   3.147  14.684 -1.3626  0.1714  1.3040
 1804TIP3    H226828   2.678   3.010  14.720  0.2659  0.2316 -0.6698
 1805TIP3   OH226829   2.502   4.204  14.139  0.1643 -0.8846 -0.5909
 1805TIP3    H126830   2.447   4.145  14.088 -0.0788  0.2405 -1.6907
 1805TIP3    H226831   2.506   4.284  14.087  0.1595  0.2204  1.0350
 1806TIP3   OH226832   5.826   2.571  13.237 -0.1474 -0.0905  0.0714
 1806TIP3    H126833   5.797   2.483  13.212  1.0555 -0.1737 -1.1468
 1806TIP3    H226834   5.882   2.555  13.314 -1.5600 -0.1357  1.1407
 1807TIP3   OH226835   6.350   4.261  14.286 -0.0009 -0.1906 -0.1182
 1807TIP3    H126836   6.326   4.176  14.250  0.8353 -0.2338 -0.6039
 1807TIP3    H226837   6.277   4.319  14.264 -2.3442 -1.5109  3.2854
 1808TIP3   OH226838   3.477   2.477   1.929  0.1383  0.2842  0.1256
 1808TIP3    H126839   3.399   2.479   1.984  1.7608  0.1171  2.6242
 1808TIP3    H226840   3.501   2.569   1.916 -0.5769  0.3452 -0.8732
 1809TIP3   OH226841   0.033   3.385   6.628 -0.5265  0.1510  0.4199
 1809TIP3    H126842   0.113   3.336   6.649 -0.6631  0.0027  0.6013
 1809TIP3    H226843  -0.000   3.343   6.549 -0.3127  0.3468  0.2268
 1810TIP3   OH226844   0.963   1.977  15.743  0.3501 -0.8240  0.0015
 1810TIP3    H126845   0.898   2.003  15.678  1.2210 -1.8228 -1.3033
 1810TIP3    H226846   1.017   2.055  15.755  0.7583 -0.8910 -1.2159
 1811TIP3   OH226847   2.408   5.418   6.465 -0.0737  0.0042 -0.6384
 1811TIP3    H126848   2.449   5.345   6.510 -0.5358 -0.0792 -0.3510
 1811TIP3    H226849   2.460   5.494   6.489  0.1358 -0.1587 -0.5781
 1812TIP3   OH226850   2.094   1.939   4.660  0.3103 -0.4343 -0.2381
 1812TIP3    H126851   2.011   1.964   4.620  0.6778  0.1522 -0.6603
 1812TIP3    H226852   2.158   1.950   4.589  1.0860  1.2805  0.6746
 1813TIP3   OH226853   1.603   1.378   2.082  0.4234  0.1759 -0.2536
 1813TIP3    H126854   1.583   1.468   2.110  0.4533  0.0411  0.2118
 1813TIP3    H226855   1.669   1.348   2.145  1.1777  0.1869 -1.0299
 1814TIP3   OH226856   2.180   2.207   1.542 -0.1360  0.1175 -0.2613
 1814TIP3    H126857   2.245   2.193   1.474 -0.1518 -1.0145 -0.0707
 1814TIP3    H226858   2.116   2.267   1.503  0.5910  0.5948 -0.7315
 1815TIP3   OH226859   5.935   3.996   2.493  0.1395 -0.2492 -0.0781
 1815TIP3    H126860   5.925   4.087   2.464 -1.4934 -0.4604 -0.2295
 1815TIP3    H226861   5.950   4.002   2.587  2.3666  0.2650 -0.3957
 1816TIP3   OH226862   3.677   5.101  11.276  0.0051 -0.0192 -0.2853
 1816TIP3    H126863   3.733   5.046  11.221  0.5585  1.1657 -0.9602
 1816TIP3    H226864   3.656   5.047  11.352 -0.8476 -1.7329 -1.6763
 1817TIP3   OH226865   4.414   1.796  12.808 -0.2161 -0.4862  0.8650
 1817TIP3    H126866   4.498   1.769  12.846  1.6715  0.8367 -1.9976
 1817TIP3    H226867   4.376   1.715  12.775  0.3010 -1.0090  1.5271
 1818TIP3   OH226868   0.533   6.666   6.611  0.0800  0.1661  0.6355
 1818TIP3    H126869   0.535   6.750   6.567  1.6267  0.8893  1.9951
 1818TIP3    H226870   0.469   6.677   6.682  1.5694  0.8657  1.9466
 1819TIP3   OH226871   5.925   4.164   3.415 -0.0938 -0.4883  0.3287
 1819TIP3    H126872   5.894   4.180   3.505  1.5681 -1.2303  1.0629
 1819TIP3    H226873   5.924   4.069   3.406  2.7395 -0.6260  0.7151
 1820TIP3   OH226874   0.275   2.007  13.454  0.4477 -0.0957  0.5068
 1820TIP3    H126875   0.242   2.043  13.371  0.0855 -2.8895 -0.6779
 1820TIP3    H226876   0.306   2.083  13.503 -1.4264  1.9111 -1.2283
 1821TIP3   OH226877   4.818   1.099   3.710 -0.1701 -0.2167  0.0051
 1821TIP3    H126878   4.727   1.074   3.698 -1.0635  2.6486  0.2916
 1821TIP3    H226879   4.841   1.064   3.796 -1.0030 -0.8952 -0.0339
 1822TIP3   OH226880   4.973   0.317   6.539 -0.1653  0.3183 -0.3915
 1822TIP3    H126881   4.993   0.395   6.592  0.5092 -0.3357  0.3476
 1822TIP3    H226882   4.889   0.337   6.498 -0.2178  1.2593  0.1392
 1823TIP3   OH226883   3.989   5.362   0.465  0.2719 -0.6852  0.0686
 1823TIP3    H126884   4.029   5.429   0.409  2.2762 -0.2489  1.8869
 1823TIP3    H226885   3.932   5.312   0.406  1.2634  0.5596 -2.0511
 1824TIP3   OH226886   6.485   0.809   3.118  0.0843  0.3240 -0.2258
 1824TIP3    H126887   6.476   0.904   3.117  1.2376  0.4544  0.3096
 1824TIP3    H226888   6.450   0.780   3.033 -0.4290  1.2006 -0.3177
 1825TIP3   OH226889   1.946   4.369   5.470 -0.1440 -0.3837  0.0080
 1825TIP3    H126890   1.894   4.415   5.404  0.3292 -0.7219 -0.6144
 1825TIP3    H226891   1.968   4.437   5.534  1.6118  0.6229 -1.5383
 1826TIP3   OH226892   3.670   4.320  13.263  0.1643 -0.0113  0.3175
 1826TIP3    H126893   3.755   4.316  13.219  0.5983  3.2161  0.6262
 1826TIP3    H226894   3.681   4.264  13.341  1.1907 -1.4356 -0.7933
 1827TIP3   OH226895   4.865   6.246  11.160 -0.5532 -0.5466 -0.0612
 1827TIP3    H126896   4.824   6.242  11.074 -0.2196 -1.1774 -0.2015
 1827TIP3    H226897   4.956   6.271  11.143 -0.9934  1.4006  0.2950
 1828TIP3   OH226898   2.146   2.396   4.896  0.2882 -0.4509  0.1087
 1828TIP3    H126899   2.156   2.403   4.991  2.3618  0.2600 -0.0970
 1828TIP3    H226900   2.152   2.302   4.877 -3.4490 -0.9910  0.8787
 1829TIP3   OH226901   4.407   6.509  12.103 -0.7789  0.5007 -0.0557
 1829TIP3    H126902   4.375   6.598  12.092  2.1292  1.7927  0.9511
 1829TIP3    H226903   4.483   6.503  12.045 -0.9937 -1.3945 -0.2195
 1830TIP3   OH226904   6.428   5.194   5.206 -0.4652 -0.5647 -0.1784
 1830TIP3    H126905   6.381   5.195   5.122 -0.5869 -2.2021 -0.1584
 1830TIP3    H226906   6.512   5.153   5.186  0.4781  1.1655  0.0539
 1831TIP3   OH226907   6.375   3.132   0.837 -0.4938  0.0062  0.0291
 1831TIP3    H126908   6.408   3.108   0.750  0.1075  2.1898 -0.4081
 1831TIP3    H226909   6.280   3.130   0.829 -0.4915  2.3106 -1.4013
 1832TIP3   OH226910   5.148   4.475   2.164  0.1759 -0.2944 -0.0067
 1832TIP3    H126911   5.232   4.430   2.148 -0.4543 -1.0733 -1.2512
 1832TIP3    H226912   5.149   4.550   2.105 -0.9952 -1.6694 -1.9136
 1833TIP3   OH226913   1.222   0.652  13.434  0.1499 -0.0478  0.0225
 1833TIP3    H126914   1.232   0.582  13.499  0.7025 -0.1495 -0.1677
 1833TIP3    H226915   1.128   0.669  13.432 -0.1322 -1.5311 -0.7126
 1834TIP3   OH226916   4.944   1.268   2.704 -0.7382  0.1389 -0.1040
 1834TIP3    H126917   5.009   1.266   2.634 -0.4770  0.6181  0.1186
 1834TIP3    H226918   4.950   1.182   2.745  0.9545  0.7180  0.9850
 1835TIP3   OH226919   0.868   6.598  10.172 -0.2450 -0.0497  0.0402
 1835TIP3    H126920   0.884   6.681  10.216  1.5063 -0.7217  0.7292
 1835TIP3    H226921   0.791   6.563  10.216 -0.6737  0.9307  0.1119
 1836TIP3   OH226922   6.410   3.720   2.675  1.1207  0.4452 -0.4094
 1836TIP3    H126923   6.360   3.638   2.669  0.9810  0.4490  0.4727
 1836TIP3    H226924   6.350   3.781   2.719  1.6128  0.6825 -0.0535
 1837TIP3   OH226925   3.157   5.667   3.032 -0.2382 -0.2209  0.5166
 1837TIP3    H126926   3.153   5.573   3.048 -1.0750 -0.7448 -2.2728
 1837TIP3    H226927   3.226   5.698   3.091  1.6035 -2.9651  0.0028
 1838TIP3   OH226928   2.479   1.948  15.516  0.6350 -0.2825  0.0550
 1838TIP3    H126929   2.445   2.038  15.521  1.6802  0.1799 -0.6481
 1838TIP3    H226930   2.420   1.897  15.571  0.3080  0.9228  0.8699
 1839TIP3   OH226931   6.289   0.883  14.983  0.3292 -0.2021 -0.4759
 1839TIP3    H126932   6.195   0.885  15.001  0.5261 -0.5327  0.6366
 1839TIP3    H226933   6.297   0.830  14.904 -0.4754  0.4009 -0.9755
 1840TIP3   OH226934   0.912   6.194  11.008 -0.4202  0.5635 -0.7595
 1840TIP3    H126935   0.906   6.143  11.089  0.8442  0.5862 -0.6369
 1840TIP3    H226936   0.986   6.156  10.962 -2.4132 -0.9163 -2.9803
 1841TIP3   OH226937   5.485   0.570  16.121  0.3048 -0.0728  0.9119
 1841TIP3    H126938   5.429   0.637  16.080  0.0192 -0.1186  1.2276
 1841TIP3    H226939   5.565   0.572  16.068 -0.7622 -1.4618 -0.8812
 1842TIP3   OH226940   2.797   4.896   4.653 -0.0081  0.6199  0.2009
 1842TIP3    H126941   2.805   4.851   4.569  0.9692 -1.6410  1.4455
 1842TIP3    H226942   2.875   4.950   4.660  1.1868 -1.0965  0.6848
 1843TIP3   OH226943   2.550   6.239   4.591 -0.1902 -0.2458  0.1769
 1843TIP3    H126944   2.576   6.251   4.682 -0.8204  3.3746  0.0282
 1843TIP3    H226945   2.471   6.184   4.596 -0.0472 -0.3575  1.7574
 1844TIP3   OH226946   6.216   1.086   4.945 -0.2314 -0.9105  0.0599
 1844TIP3    H126947   6.203   1.020   4.877  3.5961 -1.3319 -0.4757
 1844TIP3    H226948   6.276   1.149   4.905 -0.5551  0.6811  1.9596
 1845TIP3   OH226949   4.276   0.785   0.035  0.6182  0.0254 -0.2069
 1845TIP3    H126950   4.357   0.742   0.063  1.3971  1.3864 -0.3194
 1845TIP3    H226951   4.212   0.761   0.103  1.2173 -0.6960  0.1168
 1846TIP3   OH226952   6.783   3.391  13.597  0.6273 -0.0069  0.4595
 1846TIP3    H126953   6.742   3.451  13.535  2.2137  0.8231  0.1552
 1846TIP3    H226954   6.725   3.390  13.673 -0.2836  0.5752 -0.2196
 1847TIP3   OH226955   1.318   2.014   3.291  0.2115  0.0836 -0.5244
 1847TIP3    H126956   1.309   2.109   3.296 -0.9972 -0.0788  2.3068
 1847TIP3    H226957   1.229   1.982   3.276  0.4477 -0.6361 -0.4482
 1848TIP3   OH226958   4.657   2.677  12.314 -0.6992  0.0638 -0.0718
 1848TIP3    H126959   4.569   2.641  12.313 -0.4613 -0.5596  0.3070
 1848TIP3    H226960   4.645   2.772  12.321 -1.3570 -0.1395  2.6022
 1849TIP3   OH226961   5.945   0.174   1.336 -0.6777 -0.2863 -0.0282
 1849TIP3    H126962   5.960   0.209   1.423  0.3505 -1.0374  0.1111
 1849TIP3    H226963   5.922   0.251   1.283 -0.7549  0.2504  0.7717
 1850TIP3   OH226964   4.619   6.370   4.313 -0.0911  0.0805  0.0708
 1850TIP3    H126965   4.697   6.425   4.323 -0.4685  0.8359 -0.9526
 1850TIP3    H226966   4.638   6.291   4.364  1.3557  0.2422 -0.1902
 1851TIP3   OH226967   0.402   2.053   2.406  0.3985 -0.5843 -0.0266
 1851TIP3    H126968   0.326   2.048   2.347 -0.1562  2.5458  0.2641
 1851TIP3    H226969   0.411   1.964   2.441 -2.5265 -1.3017 -0.8288
 1852TIP3   OH226970   2.051   5.183  16.516  0.5067  0.7374  1.1354
 1852TIP3    H126971   2.106   5.261  16.507  0.4646  0.6497 -0.0761
 1852TIP3    H226972   2.100   5.114  16.471 -1.2876  1.0439 -1.4929
 1853TIP3   OH226973   3.572   4.866  13.957 -0.1233 -0.1848 -0.4987
 1853TIP3    H126974   3.557   4.955  13.990  1.1129  0.6765 -2.0753
 1853TIP3    H226975   3.635   4.828  14.018  1.3202  0.9912 -1.1827
 1854TIP3   OH226976   2.456   5.366  12.709 -0.0951  0.2268 -0.0181
 1854TIP3    H126977   2.402   5.355  12.788  0.2194  1.3614  0.3825
 1854TIP3    H226978   2.545   5.348  12.739 -0.2317 -1.9812 -0.7557
 1855TIP3   OH226979   5.468   0.073  16.621  0.4966  0.4673  0.1499
 1855TIP3    H126980   5.413   0.141  16.660 -0.8509 -0.9246  0.7664
 1855TIP3    H226981   5.462  -0.001  16.682  0.4823 -0.8365 -1.3580
 1856TIP3   OH226982   1.890   3.471  13.141  0.0340 -0.3153  0.4967
 1856TIP3    H126983   1.894   3.460  13.046 -0.0332 -0.8093  0.5473
 1856TIP3    H226984   1.892   3.566  13.154 -0.4040 -0.2284 -0.0223
 1857TIP3   OH226985   0.477   6.371   1.745  0.0967 -0.3558  0.4262
 1857TIP3    H126986   0.559   6.350   1.700 -1.7300 -2.6850 -2.1888
 1857TIP3    H226987   0.451   6.289   1.786 -1.4395  0.0316  0.2887
 1858TIP3   OH226988   0.268   6.250   3.065 -0.0767  0.0819  0.1383
 1858TIP3    H126989   0.248   6.332   3.111  0.5290 -0.0827  0.7209
 1858TIP3    H226990   0.250   6.269   2.973  0.3010  0.9564  0.2298
 1859TIP3   OH226991   3.046   1.704  16.946  0.1532  0.9436  0.5538
 1859TIP3    H126992   3.083   1.619  16.971 -0.7235  0.8438  1.5733
 1859TIP3    H226993   3.025   1.694  16.853  0.5533  0.2305  0.5292
 1860TIP3   OH226994   6.558   0.972  14.508 -0.5861  0.0891  0.3997
 1860TIP3    H126995   6.471   0.972  14.548  0.0624  1.2408  1.9189
 1860TIP3    H226996   6.542   0.988  14.415 -1.8472  6.1453  1.2895
 1861TIP3   OH226997   0.773   4.233   5.106 -0.1119 -0.2447 -0.2283
 1861TIP3    H126998   0.837   4.180   5.153  0.0378  0.7995  0.7937
 1861TIP3    H226999   0.785   4.322   5.140 -3.7514 -0.3691  1.8873
 1862TIP3   OH227000   5.360   0.117   1.012 -0.4201  0.2913 -0.2882
 1862TIP3    H127001   5.335   0.070   1.092  0.8033 -1.0098 -0.6286
 1862TIP3    H227002   5.420   0.058   0.967 -0.5392  1.2931 -1.8450
 1863TIP3   OH227003   3.938   5.579  14.720  0.5259  0.1310 -0.3926
 1863TIP3    H127004   3.907   5.629  14.796  2.6417 -0.8070  1.1850
 1863TIP3    H227005   3.899   5.492  14.731  0.7063  0.0407 -0.4689
 1864TIP3   OH227006   2.309   2.805   2.827 -0.0458  0.0241  0.7227
 1864TIP3    H127007   2.399   2.831   2.807  1.0420 -2.8733  1.3834
 1864TIP3    H227008   2.301   2.814   2.922 -1.0627  1.8251  0.5144
 1865TIP3   OH227009   3.954   0.919   1.943  0.3108  0.0371 -0.0905
 1865TIP3    H127010   3.994   1.004   1.962  1.6838 -0.9937  2.0933
 1865TIP3    H227011   3.906   0.897   2.023  0.2120 -1.3627 -0.5086
 1866TIP3   OH227012   6.071   2.885   2.327 -0.4376  0.6135  0.2537
 1866TIP3    H127013   5.975   2.882   2.317 -0.4863 -1.2426  0.8835
 1866TIP3    H227014   6.100   2.945   2.259 -1.9910  0.4284 -0.6254
 1867TIP3   OH227015   2.886   0.924  14.767 -0.2672  0.2774  0.0222
 1867TIP3    H127016   2.906   0.897  14.856  0.3017 -0.8961 -0.4333
 1867TIP3    H227017   2.822   0.994  14.776 -0.8492 -0.4028  1.3207
 1868TIP3   OH227018   0.952   1.383  16.678 -0.1280  0.1609 -0.3002
 1868TIP3    H127019   0.920   1.473  16.673  0.0504  0.1493 -2.8347
 1868TIP3    H227020   0.873   1.329  16.688 -0.4316  0.4644 -1.0327
 1869TIP3   OH227021   3.147   3.986  14.703 -0.2493  0.0144  0.5515
 1869TIP3    H127022   3.151   4.075  14.737  0.3390 -0.4847  1.8336
 1869TIP3    H227023   3.053   3.969  14.691 -0.5512  0.0070  2.5444
 1870TIP3   OH227024   3.883   4.522  12.918 -0.0289 -0.6593 -0.0561
 1870TIP3    H127025   3.876   4.583  12.992  0.4977  0.5878 -1.0120
 1870TIP3    H227026   3.888   4.578  12.841  0.7070 -1.9202 -0.9538
 1871TIP3   OH227027   2.090   1.565  16.377 -0.6277  0.7376  0.2942
 1871TIP3    H127028   2.050   1.612  16.303  0.6576  1.6063  0.1130
 1871TIP3    H227029   2.181   1.553  16.351 -1.2087 -3.5912 -0.4993
 1872TIP3   OH227030   2.138   3.466  12.494 -0.0637 -0.2323  0.3115
 1872TIP3    H127031   2.121   3.510  12.577 -1.3408 -1.7877  0.9329
 1872TIP3    H227032   2.226   3.495  12.468  0.0700  0.8161  1.8466
 1873TIP3   OH227033   1.970   5.400  14.456  0.2447 -0.6191  0.5710
 1873TIP3    H127034   2.011   5.446  14.383 -0.4517  0.5680  0.9023
 1873TIP3    H227035   2.025   5.323  14.469  1.0203 -0.2764 -0.4785
 1874TIP3   OH227036   3.159   5.172  15.168 -0.1085 -0.1544 -0.1079
 1874TIP3    H127037   3.149   5.208  15.256  0.6915 -2.4996  1.0156
 1874TIP3    H227038   3.253   5.179  15.149 -0.0164 -1.1741 -0.0659
 1875TIP3   OH227039   4.244   2.829  12.152  0.3026  0.3600 -0.1214
 1875TIP3    H127040   4.213   2.917  12.172  0.0086  0.1882  0.2025
 1875TIP3    H227041   4.165   2.775  12.152  0.1617  0.4469 -2.4905
 1876TIP3   OH227042   2.924   1.785   6.180  0.4470 -0.1923 -0.1780
 1876TIP3    H127043   2.990   1.850   6.205 -1.3048  1.7538 -0.3540
 1876TIP3    H227044   2.889   1.753   6.263 -0.6571  1.2616 -0.0408
 1877TIP3   OH227045   0.570   0.462  13.130 -0.3571 -0.5134 -0.5418
 1877TIP3    H127046   0.511   0.490  13.199 -0.3419  2.7043 -1.6777
 1877TIP3    H227047   0.591   0.371  13.152 -1.7748 -0.2098  2.6089
 1878TIP3   OH227048   5.196   6.103  13.176  0.6117 -0.0127 -0.0638
 1878TIP3    H127049   5.160   6.114  13.264 -1.1805 -2.2044 -0.4459
 1878TIP3    H227050   5.151   6.169  13.123 -2.2271 -1.9566 -0.2919
 1879TIP3   OH227051   3.987   0.462  15.857 -0.6838 -0.3249  0.0710
 1879TIP3    H127052   4.023   0.549  15.875  0.9580 -1.0295  0.3935
 1879TIP3    H227053   4.056   0.401  15.885 -1.7266 -1.7296 -0.2930
 1880TIP3   OH227054   5.903   0.446   3.168 -0.0370 -0.5208 -0.8001
 1880TIP3    H127055   5.882   0.535   3.138  1.6629 -0.1410 -0.9756
 1880TIP3    H227056   5.993   0.452   3.198 -0.6840 -1.6172  1.5933
 1881TIP3   OH227057   1.340   3.992  11.735  0.0277 -0.0970 -0.5772
 1881TIP3    H127058   1.428   4.013  11.767 -0.2154  0.1072 -0.0372
 1881TIP3    H227059   1.325   4.052  11.663 -0.2012  0.8039  0.2022
 1882TIP3   OH227060   5.536   6.378  16.899  0.4296  0.2067 -0.0359
 1882TIP3    H127061   5.495   6.430  16.969  0.8194  0.4096  0.0443
 1882TIP3    H227062   5.530   6.287  16.930  0.0383  0.2317 -0.0296
 1883TIP3   OH227063   0.856   6.092  11.249 -0.0595  0.0336  0.2224
 1883TIP3    H127064   0.832   6.148  11.322  1.6886 -0.6966  1.4323
 1883TIP3    H227065   0.793   6.019  11.253  1.4468 -1.2802  2.6285
 1884TIP3   OH227066   5.166   6.237   4.833  0.0492 -0.4760  0.1510
 1884TIP3    H127067   5.135   6.262   4.746 -0.1335  0.3139  0.4403
 1884TIP3    H227068   5.092   6.253   4.891  0.3543 -0.4587  0.5408
 1885TIP3   OH227069   3.403   6.372  16.278  0.1063 -0.2902  0.1849
 1885TIP3    H127070   3.357   6.297  16.242 -1.9035  1.2119 -0.5734
 1885TIP3    H227071   3.337   6.441  16.282  1.6805  1.2374  1.5411
 1886TIP3   OH227072   2.313   6.116   3.556 -0.4580  0.4350  0.0585
 1886TIP3    H127073   2.289   6.198   3.600 -3.5229  0.0444 -0.7157
 1886TIP3    H227074   2.350   6.144   3.473 -0.4966  1.0386  0.2359
 1887TIP3   OH227075   5.781   3.324  10.909  0.4671 -0.4482 -0.0047
 1887TIP3    H127076   5.704   3.314  10.854  1.8615 -1.7943 -1.8559
 1887TIP3    H227077   5.747   3.354  10.993 -2.1369 -1.6893 -0.5069
 1888TIP3   OH227078   0.638   6.446  14.490 -1.0178 -0.5569 -0.3639
 1888TIP3    H127079   0.663   6.461  14.581  1.2279 -3.4542 -0.3497
 1888TIP3    H227080   0.706   6.491  14.438 -2.0551  0.7305 -0.6644
 1889TIP3   OH227081   0.611   4.283  12.790  0.4699 -0.3907 -0.6228
 1889TIP3    H127082   0.662   4.255  12.865 -0.9846 -1.8834 -0.1236
 1889TIP3    H227083   0.522   4.294  12.824  0.5849  3.5778 -1.1052
 1890TIP3   OH227084   6.318   5.361   6.659 -0.2729  0.1795  0.4748
 1890TIP3    H127085   6.296   5.270   6.640 -1.1779  0.6088 -0.6336
 1890TIP3    H227086   6.315   5.405   6.574 -0.8006  1.4381  1.1247
 1891TIP3   OH227087   1.527   2.236   0.058 -0.2267 -0.2985  0.7429
 1891TIP3    H127088   1.453   2.285   0.022 -1.7240 -2.6765  0.3812
 1891TIP3    H227089   1.523   2.252   0.152 -0.2120  0.8020  0.5801
 1892TIP3   OH227090   3.046   3.798  13.542  0.0732  0.6267 -0.1781
 1892TIP3    H127091   3.115   3.735  13.522 -0.9137 -0.9564  1.2129
 1892TIP3    H227092   3.020   3.834  13.457  0.4642 -1.0589 -1.0384
 1893TIP3   OH227093   0.719   3.650  13.220 -0.1113  0.5698  0.1622
 1893TIP3    H127094   0.646   3.649  13.159  0.5633  0.2372 -0.6641
 1893TIP3    H227095   0.739   3.557  13.235 -0.2084  0.6465  0.8230
 1894TIP3   OH227096   4.975   4.058   3.269 -0.0986  0.0271  0.1123
 1894TIP3    H127097   5.060   4.072   3.312 -1.4021 -1.1457  3.3633
 1894TIP3    H227098   4.922   4.133   3.295 -1.1659 -1.0970  1.3074
 1895TIP3   OH227099   4.406   1.243   1.461  0.0399 -0.2286  0.4235
 1895TIP3    H127100   4.311   1.245   1.473 -0.3309 -1.3971 -1.6715
 1895TIP3    H227101   4.423   1.314   1.398  0.4207 -0.5232  0.1899
 1896TIP3   OH227102   4.239   4.551   4.868 -0.5900 -0.1102  0.1984
 1896TIP3    H127103   4.264   4.633   4.912 -0.4938 -0.8314  1.5342
 1896TIP3    H227104   4.322   4.507   4.851 -0.5639  0.4824 -1.4425
 1897TIP3   OH227105   5.047   4.974  11.183  0.6202  0.2200 -0.1473
 1897TIP3    H127106   4.982   4.924  11.134 -0.2935  0.8966  0.3331
 1897TIP3    H227107   5.131   4.941  11.153  0.0929 -2.7134  1.2383
 1898TIP3   OH227108   6.117   5.039  16.621 -0.0855  0.1925 -0.0205
 1898TIP3    H127109   6.177   5.036  16.546 -0.3783  0.6778 -0.2775
 1898TIP3    H227110   6.163   4.991  16.690  0.4478  0.2565 -0.3228
 1899TIP3   OH227111   4.041   5.769  15.557  0.1629  0.0098 -0.1684
 1899TIP3    H127112   4.073   5.852  15.594  0.3564 -0.2345  0.2166
 1899TIP3    H227113   3.982   5.734  15.623 -0.4456  0.1641 -0.6221
 1900TIP3   OH227114   5.838   5.951   0.840  0.2434  0.3117  0.6181
 1900TIP3    H127115   5.928   5.982   0.853  0.2859  0.0822  0.8896
 1900TIP3    H227116   5.840   5.860   0.869  0.3210 -0.2169 -0.9796
 1901TIP3   OH227117   0.549   2.499  13.273 -0.5096  0.1969  0.5840
 1901TIP3    H127118   0.619   2.458  13.325 -0.2821 -0.0802  0.0725
 1901TIP3    H227119   0.468   2.463  13.309 -0.5410  1.9307  2.4377
 1902TIP3   OH227120   4.016   2.994  16.352  0.1027 -0.2424 -0.1774
 1902TIP3    H127121   4.033   2.943  16.273  0.7328  2.7316 -2.1425
 1902TIP3    H227122   3.920   2.996  16.360  0.0344 -0.4851 -0.9254
 1903TIP3   OH227123   1.198   0.573  12.169 -0.0828  0.3653 -0.8567
 1903TIP3    H127124   1.228   0.498  12.221  1.4834  1.2004 -0.5173
 1903TIP3    H227125   1.103   0.562  12.164 -0.1236 -0.4495  1.0631
 1904TIP3   OH227126   1.911   3.034   1.849  0.0666 -0.5384  0.1302
 1904TIP3    H127127   1.928   3.128   1.848 -2.4380 -0.0101  0.4732
 1904TIP3    H227128   1.954   3.003   1.928 -0.5375  0.6779  0.9760
 1905TIP3   OH227129   4.551   5.865   2.141 -0.1801  0.7009  0.2844
 1905TIP3    H127130   4.575   5.775   2.164 -1.7178 -0.5122 -2.3911
 1905TIP3    H227131   4.622   5.894   2.083  1.3146  2.0327  2.6344
 1906TIP3   OH227132   6.171   2.976   1.455  0.2251  0.2765 -0.1371
 1906TIP3    H127133   6.263   2.950   1.465 -0.3782 -1.0869  3.0870
 1906TIP3    H227134   6.121   2.899   1.482 -1.8481  1.5237 -0.2007
 1907TIP3   OH227135   4.495   0.194   4.362  0.1679 -0.2010 -0.8648
 1907TIP3    H127136   4.412   0.214   4.405  0.5828  0.2778 -0.2686
 1907TIP3    H227137   4.472   0.182   4.270 -0.7006 -1.0195 -0.5616
 1908TIP3   OH227138   6.722   5.143   5.075 -0.6727 -0.0935 -0.0325
 1908TIP3    H127139   6.804   5.179   5.109  1.7342 -2.6317 -2.5685
 1908TIP3    H227140   6.691   5.210   5.014 -0.3927  0.8114  0.7878
 1909TIP3   OH227141   0.972   4.751   0.792  0.1447 -0.7423  0.4547
 1909TIP3    H127142   0.961   4.661   0.821 -2.0402 -0.7344 -0.1599
 1909TIP3    H227143   0.902   4.799   0.836 -0.1761  0.1900 -0.9995
 1910TIP3   OH227144   2.511   0.434  14.455 -0.7118 -0.3443  0.1168
 1910TIP3    H127145   2.522   0.355  14.507 -0.7407  0.2093  0.9875
 1910TIP3    H227146   2.420   0.460  14.470 -1.1362 -0.9103 -1.2955
 1911TIP3   OH227147   5.900   0.590   3.931  0.0682  0.7592  0.0510
 1911TIP3    H127148   5.838   0.556   3.866  1.7447  0.5687 -1.5201
 1911TIP3    H227149   5.969   0.524   3.936  1.6324  2.2639 -0.4684
 1912TIP3   OH227150   2.763   5.719  14.914  0.3042 -0.1158  0.6036
 1912TIP3    H127151   2.781   5.691  14.824  0.4267 -0.4721  0.7351
 1912TIP3    H227152   2.842   5.766  14.941  0.9856 -1.4760  1.1010
 1913TIP3   OH227153   5.329   6.284   1.334 -0.1996 -0.2894  0.5279
 1913TIP3    H127154   5.316   6.229   1.411  1.3496 -0.6720  0.5410
 1913TIP3    H227155   5.344   6.223   1.262 -4.0439 -0.0540 -0.6851
 1914TIP3   OH227156   0.489   4.238   3.511 -0.0068  0.1163  0.3041
 1914TIP3    H127157   0.465   4.254   3.419  0.0256 -0.0468  0.2661
 1914TIP3    H227158   0.529   4.151   3.510 -0.3050 -0.0254  0.5247
 1915TIP3   OH227159   3.856   4.405   3.751 -0.2701  0.1501 -0.3657
 1915TIP3    H127160   3.926   4.341   3.748 -0.0585  0.3040  0.7745
 1915TIP3    H227161   3.899   4.490   3.739 -0.1432  0.3068  1.0898
 1916TIP3   OH227162   1.017   2.152  16.858 -0.1965  0.1528 -0.1666
 1916TIP3    H127163   0.960   2.180  16.787 -0.1972 -0.6398 -0.4862
 1916TIP3    H227164   1.105   2.173  16.829 -0.1093 -1.0711 -0.8519
 1917TIP3   OH227165   0.911   0.164   2.262  0.1908  0.6235  0.5513
 1917TIP3    H127166   0.880   0.234   2.205 -1.1492  0.6159  1.2450
 1917TIP3    H227167   0.993   0.135   2.221 -0.4843  0.9359 -1.0954
 1918TIP3   OH227168   6.068   6.284   4.319 -0.1142 -0.3625 -0.1653
 1918TIP3    H127169   6.056   6.350   4.387  1.8534  1.6899 -1.6645
 1918TIP3    H227170   6.162   6.284   4.302 -0.4549 -1.3770 -2.3428
 1919TIP3   OH227171   2.698   3.976  16.280 -0.5849  0.2356  0.0167
 1919TIP3    H127172   2.661   3.892  16.253 -0.4677  0.4036 -0.6879
 1919TIP3    H227173   2.780   3.954  16.323 -2.1150 -0.2610  2.8917
 1920TIP3   OH227174   3.531   5.065   0.713 -0.6987 -0.1351 -0.1249
 1920TIP3    H127175   3.549   5.095   0.802  1.8880  0.9098 -0.8970
 1920TIP3    H227176   3.513   4.972   0.722  1.9463 -0.6101  1.3121
 1921TIP3   OH227177   5.565   5.003  16.775 -0.3613 -0.1476  0.4380
 1921TIP3    H127178   5.500   5.029  16.840  0.4919 -0.6300  1.5293
 1921TIP3    H227179   5.648   5.032  16.812  0.2259 -1.1672 -0.0422
 1922TIP3   OH227180   0.661   0.601   2.186 -0.4660  0.2559  0.2217
 1922TIP3    H127181   0.646   0.692   2.209 -0.4057  0.5774 -0.9641
 1922TIP3    H227182   0.624   0.551   2.259  1.0212  1.2454  1.7384
 1923TIP3   OH227183   2.063   1.361  16.096 -0.0556  0.4609 -0.7594
 1923TIP3    H127184   1.977   1.319  16.104 -0.2189  0.8427 -0.4685
 1923TIP3    H227185   2.111   1.334  16.174 -0.2220  0.9479 -0.4850
 1924TIP3   OH227186   3.709   6.713  12.591  0.1393 -0.0425  0.3575
 1924TIP3    H127187   3.803   6.697  12.596  0.4608  1.9368  3.3125
 1924TIP3    H227188   3.697   6.764  12.510  1.3306 -1.4424 -0.7562
 1925TIP3   OH227189   3.911   4.011   2.907 -0.4726 -0.1435  0.0956
 1925TIP3    H127190   3.974   3.993   2.837  0.1418 -1.6783  0.9769
 1925TIP3    H227191   3.851   4.076   2.870 -0.6627 -1.4942 -2.1605
 1926TIP3   OH227192   6.199   2.788  13.257  0.1038 -0.0932 -0.1582
 1926TIP3    H127193   6.111   2.800  13.293  0.1713  1.5621 -0.4575
 1926TIP3    H227194   6.225   2.700  13.286 -1.5703 -0.5544  0.0672
 1927TIP3   OH227195   4.968   2.090   2.516  0.3463  0.0268  0.0908
 1927TIP3    H127196   4.997   2.002   2.492  0.8418  0.5432 -1.3008
 1927TIP3    H227197   4.873   2.087   2.507  0.4370 -0.0944 -0.9608
 1928TIP3   OH227198   3.412   4.357  16.829 -0.0936  0.1864 -0.1646
 1928TIP3    H127199   3.427   4.343  16.923  1.4688  0.6954 -0.3215
 1928TIP3    H227200   3.431   4.449  16.814 -2.2888  0.6355 -0.6640
 1929TIP3   OH227201   2.015   1.046  11.565  0.1443 -0.0422 -0.3119
 1929TIP3    H127202   1.977   1.078  11.647 -1.0590  2.5707 -1.7908
 1929TIP3    H227203   2.065   1.119  11.531  0.7889 -1.1400 -1.8352
 1930TIP3   OH227204   0.875   6.135  12.460  0.2920  0.2462 -0.0345
 1930TIP3    H127205   0.873   6.179  12.375 -0.3320  1.2562  0.4968
 1930TIP3    H227206   0.819   6.058  12.448 -0.5368  0.8750 -0.2819
 1931TIP3   OH227207   2.565   2.621   0.842 -0.7529  0.0524 -0.5134
 1931TIP3    H127208   2.650   2.641   0.880 -0.9275  0.1287 -0.1551
 1931TIP3    H227209   2.575   2.638   0.749 -0.6130  0.8649 -0.3544
 1932TIP3   OH227210   2.897   2.147   2.411 -0.0197 -0.6530 -0.0394
 1932TIP3    H127211   2.924   2.058   2.432  1.9539 -0.1033 -0.0550
 1932TIP3    H227212   2.892   2.191   2.496 -0.0850 -0.5388 -0.1019
 1933TIP3   OH227213   0.925   0.096  15.408  0.3041 -0.1476  0.1118
 1933TIP3    H127214   0.888   0.092  15.320  0.1462  0.1503  0.1639
 1933TIP3    H227215   0.995   0.030  15.408  1.2210  0.7890 -0.6740
 1934TIP3   OH227216   3.337   1.402   4.937 -0.0922  0.2645  0.1994
 1934TIP3    H127217   3.382   1.381   5.019 -1.1701 -0.7959  0.5395
 1934TIP3    H227218   3.408   1.412   4.873  0.7431  0.7812  1.1760
 1935TIP3   OH227219   0.538   1.370   1.982  0.3362 -0.0147 -0.1318
 1935TIP3    H127220   0.590   1.448   1.998  0.6180 -0.2310  0.0162
 1935TIP3    H227221   0.602   1.302   1.959 -0.0275  0.2748 -2.2542
 1936TIP3   OH227222   5.862   4.763   5.127 -0.3897  0.4303  0.1650
 1936TIP3    H127223   5.842   4.720   5.211  1.6472  0.5926  0.7927
 1936TIP3    H227224   5.795   4.831   5.118 -3.6505 -2.6017 -0.7856
 1937TIP3   OH227225   0.151   4.587   2.203 -0.1446  0.1977 -0.3181
 1937TIP3    H127226   0.071   4.605   2.153 -1.0926  0.6924  1.2976
 1937TIP3    H227227   0.122   4.581   2.294  1.6804  0.4910  0.3344
 1938TIP3   OH227228   1.549   1.662   5.574  0.8621 -0.1211 -0.3456
 1938TIP3    H127229   1.598   1.715   5.512  0.3526 -0.1078 -0.7421
 1938TIP3    H227230   1.538   1.578   5.530  0.1448  0.0216 -0.4489
 1939TIP3   OH227231   0.026   5.119   4.702 -0.1223 -0.0316 -0.3280
 1939TIP3    H127232  -0.008   5.141   4.616 -1.6399  0.4059  0.3531
 1939TIP3    H227233   0.120   5.103   4.688 -0.0523  1.4473 -1.7964
 1940TIP3   OH227234   5.070   3.513  10.945 -0.1813  0.1185  0.5295
 1940TIP3    H127235   5.137   3.517  10.877  0.4407 -2.4391  0.9198
 1940TIP3    H227236   4.992   3.551  10.904  0.9553  1.3719 -0.5628
 1941TIP3   OH227237   4.275   5.842   2.107 -0.0256 -0.2835  0.3834
 1941TIP3    H127238   4.219   5.894   2.165  1.2187  1.6766 -0.0845
 1941TIP3    H227239   4.364   5.859   2.137  0.5284 -0.6725 -0.9516
 1942TIP3   OH227240   5.743   0.924   3.426 -0.3679 -0.8749  0.3998
 1942TIP3    H127241   5.808   0.951   3.361  1.7640 -1.7063  2.0558
 1942TIP3    H227242   5.750   0.828   3.428  0.5073 -0.8233  2.6296
 1943TIP3   OH227243   0.525   0.955   1.819  0.1589 -0.3541  0.4102
 1943TIP3    H127244   0.570   0.881   1.779  0.7952  0.3965 -0.3178
 1943TIP3    H227245   0.438   0.955   1.780 -0.0256 -1.0265  0.8167
 1944TIP3   OH227246   6.769   3.228  14.863  0.5104 -0.1666 -0.2248
 1944TIP3    H127247   6.727   3.207  14.779 -1.4747  1.1624  0.3488
 1944TIP3    H227248   6.790   3.321  14.857 -0.3008  0.1205  0.9745
 1945TIP3   OH227249   3.711   3.446   5.742 -0.2812 -0.2576  0.0553
 1945TIP3    H127250   3.666   3.361   5.742 -0.5436 -0.1207  0.3499
 1945TIP3    H227251   3.748   3.454   5.654  0.0230 -0.8235  0.1257
 1946TIP3   OH227252   2.977   6.456   1.331 -0.4688 -0.6836 -0.2067
 1946TIP3    H127253   2.974   6.500   1.416 -1.4754 -0.8998 -0.1247
 1946TIP3    H227254   3.066   6.472   1.300 -0.7425  1.2931 -0.1212
 1947TIP3   OH227255   1.615   5.607   3.781  0.2298 -0.1547  0.4616
 1947TIP3    H127256   1.626   5.698   3.810  1.9510 -1.2090  3.4471
 1947TIP3    H227257   1.520   5.597   3.770 -0.1108  1.5809  1.5092
 1948TIP3   OH227258   4.154   3.085   5.549  0.4444 -0.2010  0.3214
 1948TIP3    H127259   4.064   3.092   5.517  0.2965  2.2557  1.0199
 1948TIP3    H227260   4.194   3.019   5.493 -1.2365  0.1185 -1.3876
 1949TIP3   OH227261   3.560   6.540  11.536 -0.4854 -0.1723  0.2859
 1949TIP3    H127262   3.598   6.452  11.533 -1.7260 -0.7596  0.9761
 1949TIP3    H227263   3.635   6.599  11.536  0.4894 -1.3018  2.3026
 1950TIP3   OH227264   5.703   4.187  16.759 -0.0329  0.4797  0.0627
 1950TIP3    H127265   5.708   4.253  16.690  2.1464  1.6052  1.2090
 1950TIP3    H227266   5.660   4.233  16.832  0.0842  0.1517  0.3405
 1951TIP3   OH227267   4.583   0.565  14.707 -0.0551  0.1627  0.3953
 1951TIP3    H127268   4.539   0.591  14.788  1.5250  0.8830  1.0571
 1951TIP3    H227269   4.511   0.552  14.644 -1.1636  2.8135  0.9691
 1952TIP3   OH227270   5.110   5.418  16.883 -0.0718 -0.3568 -0.9601
 1952TIP3    H127271   5.039   5.372  16.928 -1.2490  0.1111 -2.2508
 1952TIP3    H227272   5.132   5.491  16.941  1.6482 -2.3034  0.9913
 1953TIP3   OH227273   6.081   0.788   3.891  0.2795  0.1345  0.1916
 1953TIP3    H127274   6.032   0.868   3.912  0.2149 -0.3451  2.0100
 1953TIP3    H227275   6.021   0.717   3.914  1.6448 -0.4614  2.0500
 1954TIP3   OH227276   2.741   6.322  11.454 -0.1003 -0.3736  0.3615
 1954TIP3    H127277   2.730   6.238  11.409  0.6859 -0.4920  0.3758
 1954TIP3    H227278   2.778   6.299  11.539 -1.8149 -0.1704  1.2042
 1955TIP3   OH227279   5.060   2.893  11.669 -0.1734 -0.2501  0.1839
 1955TIP3    H127280   5.126   2.962  11.661 -1.4980  0.9221 -1.2371
 1955TIP3    H227281   5.088   2.826  11.607  0.2501 -0.2358  0.3607
 1956TIP3   OH227282   1.064   0.444   4.571 -0.3733 -0.3711  0.1846
 1956TIP3    H127283   0.973   0.412   4.577 -1.0211  1.5442  1.8239
 1956TIP3    H227284   1.094   0.443   4.662  0.1238  1.9792  0.0914
 1957TIP3   OH227285   1.635   0.644  12.829  1.0556 -0.5513  0.0679
 1957TIP3    H127286   1.649   0.605  12.915 -0.4859 -0.5498  0.3423
 1957TIP3    H227287   1.668   0.733  12.837 -0.2150 -0.1518  1.0603
 1958TIP3   OH227288   1.922   5.814   5.730 -1.0087  0.3856  0.1404
 1958TIP3    H127289   1.843   5.772   5.765 -0.6921  1.6696  2.5718
 1958TIP3    H227290   1.941   5.885   5.791  1.6127  0.5885 -0.7955
 1959TIP3   OH227291   3.128   0.511   4.174  0.0183 -0.0984 -0.0453
 1959TIP3    H127292   3.166   0.597   4.190 -1.3333  0.7341 -1.0711
 1959TIP3    H227293   3.034   0.525   4.184 -0.1319 -1.9335  1.7761
 1960TIP3   OH227294   6.137   2.739  13.971  0.5302 -0.2738  0.5600
 1960TIP3    H127295   6.100   2.656  13.939 -2.8278  0.2513  2.5051
 1960TIP3    H227296   6.194   2.713  14.043 -0.8396 -0.9832  1.4511
 1961TIP3   OH227297   3.002   5.413  15.914 -0.1098 -0.0537  0.3692
 1961TIP3    H127298   2.944   5.484  15.941 -1.3397 -1.0971  0.5387
 1961TIP3    H227299   2.950   5.334  15.925  1.6541 -1.1284  1.4018
 1962TIP3   OH227300   6.267   6.271   0.943  0.3124 -0.8499  0.0602
 1962TIP3    H127301   6.339   6.209   0.928  0.5085 -0.4673 -0.5753
 1962TIP3    H227302   6.288   6.312   1.027  0.2688 -1.5191  0.4064
 1963TIP3   OH227303   0.199   6.491  15.850  0.2651  0.1099  0.7706
 1963TIP3    H127304   0.291   6.516  15.852 -0.0211  1.4112 -0.7710
 1963TIP3    H227305   0.164   6.519  15.935  0.7480  1.8745  0.4117
 1964TIP3   OH227306   6.741   5.172  14.130  0.1199  0.4498 -0.4568
 1964TIP3    H127307   6.664   5.176  14.073 -0.7085  0.4231  0.6060
 1964TIP3    H227308   6.776   5.261  14.129 -0.3683  0.6481 -0.3804
 1965TIP3   OH227309   4.953   1.606   2.741  0.0996 -0.1474 -0.8399
 1965TIP3    H127310   4.928   1.626   2.831 -0.6124 -1.2417 -0.7776
 1965TIP3    H227311   4.886   1.649   2.687 -0.2784 -0.6577 -0.7843
 1966TIP3   OH227312   2.065   5.046   4.658 -0.6289 -0.5234 -0.6222
 1966TIP3    H127313   2.072   5.014   4.568 -0.8465 -1.7356 -0.2188
 1966TIP3    H227314   2.057   4.967   4.711 -3.8709  0.1925  0.1719
 1967TIP3   OH227315   2.154   0.415  17.200  0.1428  0.4818  0.1208
 1967TIP3    H127316   2.153   0.418  17.296  0.6898  1.5195  0.1165
 1967TIP3    H227317   2.194   0.331  17.179  1.3947  0.8784  0.8262
 1968TIP3   OH227318   1.683   3.457   4.725  0.6272  0.4997 -0.3976
 1968TIP3    H127319   1.774   3.449   4.696  0.2893 -1.2015 -1.1074
 1968TIP3    H227320   1.651   3.537   4.682  1.2099  0.0026 -1.8369
 1969TIP3   OH227321   4.506   5.503  15.073 -0.1396  0.1521  0.4573
 1969TIP3    H127322   4.484   5.592  15.045 -1.0285  0.2204  1.2985
 1969TIP3    H227323   4.580   5.478  15.019 -0.0669  1.2980  0.0026
 1970TIP3   OH227324   4.575   0.189  15.188 -0.6023  0.1742 -0.1885
 1970TIP3    H127325   4.559   0.271  15.142  0.9367  0.2380 -0.6748
 1970TIP3    H227326   4.658   0.202  15.233 -0.2425 -1.1632 -0.4116
 1971TIP3   OH227327   4.480   5.388  13.164 -0.1564 -0.0757 -0.3306
 1971TIP3    H127328   4.536   5.329  13.113 -0.1018 -0.2948 -0.0222
 1971TIP3    H227329   4.412   5.416  13.102 -0.9231 -1.4697 -0.1568
 1972TIP3   OH227330   0.740   5.885  12.432  0.2005  0.1821 -0.1955
 1972TIP3    H127331   0.778   5.798  12.425  2.1026  1.0567 -1.7021
 1972TIP3    H227332   0.647   5.872  12.413  0.1222 -1.6937  1.2091
 1973TIP3   OH227333   4.316   0.698  16.028 -0.0809 -0.5400  0.4197
 1973TIP3    H127334   4.409   0.678  16.022  0.1809  0.7987 -0.5809
 1973TIP3    H227335   4.306   0.747  16.109  0.6728  1.9484 -0.8987
 1974TIP3   OH227336   6.506   3.329   2.656 -0.2602 -0.1590  0.3085
 1974TIP3    H127337   6.517   3.238   2.627  1.1801  0.1278 -0.1638
 1974TIP3    H227338   6.437   3.364   2.599 -1.2642 -1.1032  0.9035
 1975TIP3   OH227339   5.070   0.159   4.449 -0.0187  0.0229 -0.0478
 1975TIP3    H127340   5.045   0.074   4.413 -0.2023  0.4631 -0.9988
 1975TIP3    H227341   5.101   0.209   4.373  1.6358  0.2595  0.7367
 1976TIP3   OH227342   1.436   0.500  14.350 -0.3540 -0.4246 -0.1842
 1976TIP3    H127343   1.482   0.578  14.320 -0.8259  0.7472  1.9086
 1976TIP3    H227344   1.390   0.467  14.273 -0.1989  1.4150 -1.1155
 1977TIP3   OH227345   1.393   5.009  15.138  0.5400  0.1500  0.0550
 1977TIP3    H127346   1.410   4.989  15.046 -1.7209  0.4797 -0.4829
 1977TIP3    H227347   1.356   4.928  15.173  0.0067  0.4897  0.2827
 1978TIP3   OH227348   2.942   1.493   3.804 -0.2179 -0.2128  0.4081
 1978TIP3    H127349   2.940   1.516   3.711 -1.7457  0.5318  0.5990
 1978TIP3    H227350   2.853   1.467   3.824  0.7786 -3.6420  0.9367
 1979TIP3   OH227351   1.166   0.591  12.672  0.7992 -0.8234 -0.0528
 1979TIP3    H127352   1.183   0.665  12.614 -0.7790 -0.5199 -0.1853
 1979TIP3    H227353   1.134   0.631  12.753 -1.1457 -1.3449 -0.5059
 1980TIP3   OH227354   0.378   3.344  14.112  0.0483 -0.6293  0.5453
 1980TIP3    H127355   0.458   3.304  14.078  0.6782 -0.0417  1.2797
 1980TIP3    H227356   0.406   3.430  14.143 -1.2143  0.2745 -0.7334
 1981TIP3   OH227357   2.611   2.771  12.815  0.3030 -0.0045 -0.2340
 1981TIP3    H127358   2.551   2.833  12.857  1.9135  0.6727  1.1686
 1981TIP3    H227359   2.603   2.790  12.721 -2.9757 -1.1849 -0.3384
 1982TIP3   OH227360   5.001   3.206  16.544 -0.8402 -0.0619 -0.5590
 1982TIP3    H127361   5.036   3.255  16.619 -2.4253 -2.9552  2.3109
 1982TIP3    H227362   4.906   3.203  16.560 -0.8324 -4.0016 -0.4656
 1983TIP3   OH227363   3.813   3.825  16.526  0.3340  0.0102 -0.1390
 1983TIP3    H127364   3.723   3.799  16.510  0.3911  0.6263 -1.6628
 1983TIP3    H227365   3.809   3.920  16.538  0.7587  0.0358 -0.1802
 1984TIP3   OH227366   6.429   5.068   0.168  0.0817 -0.2256 -0.4953
 1984TIP3    H127367   6.460   5.003   0.231  0.2619 -0.0318 -0.3821
 1984TIP3    H227368   6.396   5.139   0.222  2.2552  0.9245 -0.5733
 1985TIP3   OH227369   2.281   3.513   2.252 -0.0292 -0.5743 -0.4386
 1985TIP3    H127370   2.277   3.606   2.271 -0.1472 -0.5314 -0.6623
 1985TIP3    H227371   2.208   3.498   2.191  0.0865 -0.7814 -0.5292
 1986TIP3   OH227372   6.415   6.647  16.314 -0.1744 -0.1170 -1.0621
 1986TIP3    H127373   6.403   6.704  16.390 -1.6925 -1.6669 -0.0633
 1986TIP3    H227374   6.489   6.685  16.266  0.3914  1.2833  0.8285
 1987TIP3   OH227375   6.184   1.452   1.297 -0.0327 -0.1463 -0.3357
 1987TIP3    H127376   6.095   1.440   1.264 -0.4301  0.5710  0.4410
 1987TIP3    H227377   6.174   1.509   1.373  1.2838  1.7124 -1.4489
 1988TIP3   OH227378   5.388   2.477  11.900  0.1149 -0.2137 -0.5000
 1988TIP3    H127379   5.366   2.563  11.864 -0.0504 -0.0499 -0.0216
 1988TIP3    H227380   5.466   2.450  11.853  1.1132  0.9147  0.4508
 1989TIP3   OH227381   0.973   4.575   2.798 -0.0063 -0.2671 -0.1058
 1989TIP3    H127382   0.959   4.489   2.759 -0.8547 -0.2194  0.0779
 1989TIP3    H227383   0.953   4.637   2.728 -0.3137 -0.2010  0.0417
 1990TIP3   OH227384   3.676   2.530   3.131  0.2627 -0.0591  0.3892
 1990TIP3    H127385   3.738   2.460   3.151  1.4421  0.6734 -0.5617
 1990TIP3    H227386   3.718   2.581   3.062 -1.9109 -0.1891 -1.1547
 1991TIP3   OH227387   1.206   2.067  12.567  0.1753 -0.4050 -0.3913
 1991TIP3    H127388   1.277   2.025  12.615  0.4664 -0.4510 -0.8585
 1991TIP3    H227389   1.195   2.152  12.610  0.0383 -0.6809  0.1270
 1992TIP3   OH227390   1.870   2.065   4.489 -0.0214 -0.0910  0.0734
 1992TIP3    H127391   1.776   2.057   4.505 -0.0722 -1.4505 -0.7818
 1992TIP3    H227392   1.879   2.068   4.394  0.7799  0.5380  0.1487
 1993TIP3   OH227393   3.412   6.174  12.358  0.5114 -0.1468 -0.1342
 1993TIP3    H127394   3.448   6.225  12.285 -1.1086  0.4887 -0.5163
 1993TIP3    H227395   3.474   6.188  12.430  0.3770  2.0020 -0.3742
 1994TIP3   OH227396   0.167   6.049   5.421  0.4408  0.0286 -0.1137
 1994TIP3    H127397   0.226   6.033   5.348  1.0205  1.1204  0.0891
 1994TIP3    H227398   0.129   6.135   5.403 -0.6196 -0.3777  0.0853
 1995TIP3   OH227399   6.264   5.763   4.681 -0.0388 -0.0965  0.0196
 1995TIP3    H127400   6.305   5.778   4.596 -0.4780  1.5839  0.0617
 1995TIP3    H227401   6.225   5.676   4.674 -1.8606  0.8008 -2.2762
 1996TIP3   OH227402   2.279   2.993   3.097  0.3153 -0.2356 -0.0594
 1996TIP3    H127403   2.335   3.026   3.026  1.7229 -0.3341  0.9694
 1996TIP3    H227404   2.301   2.901   3.104  0.2564 -0.2026  0.5673
 1997TIP3   OH227405   4.249   0.688  13.770  0.3108 -0.1876 -0.1783
 1997TIP3    H127406   4.279   0.602  13.743  0.0205 -0.0702 -0.8808
 1997TIP3    H227407   4.214   0.675  13.858  3.9952 -0.0422  1.5061
 1998TIP3   OH227408   4.746   3.604  14.712 -0.3430 -0.0943  0.8786
 1998TIP3    H127409   4.781   3.693  14.704 -1.6204  0.4628  1.1507
 1998TIP3    H227410   4.823   3.549  14.726  0.4086  1.0863  1.6256
 1999TIP3   OH227411   3.768   3.053   2.335 -0.4625  0.5306 -0.1950
 1999TIP3    H127412   3.735   2.995   2.267  0.5649 -1.5855  1.0083
 1999TIP3    H227413   3.787   3.135   2.290 -0.7924 -0.4700 -2.2367
 2000TIP3   OH227414   0.739   6.778  11.075 -0.5258  0.1553  0.0850
 2000TIP3    H127415   0.666   6.839  11.091 -3.4623 -3.0560  0.0664
 2000TIP3    H227416   0.753   6.736  11.159  0.4282 -0.2102 -0.2498
 2001TIP3   OH227417   1.950   4.500  11.812 -0.2621  0.3566 -0.0548
 2001TIP3    H127418   1.966   4.501  11.906 -1.6281  1.2398  0.1927
 2001TIP3    H227419   1.942   4.592  11.787 -0.5231  0.1127 -0.9239
 2002TIP3   OH227420   3.396   1.576  12.854 -0.0671  0.0708  0.2531
 2002TIP3    H127421   3.411   1.498  12.907 -1.4550 -0.5466 -0.2002
 2002TIP3    H227422   3.483   1.609  12.833  0.5179 -0.0721  2.2994
 2003TIP3   OH227423   0.567   4.404  17.095 -0.0354  0.0932 -0.3104
 2003TIP3    H127424   0.593   4.358  17.175 -0.6206 -0.5771 -0.4938
 2003TIP3    H227425   0.632   4.379  17.030  0.3277  0.4823 -0.1030
 2004TIP3   OH227426   4.450   4.597  15.196 -0.1447 -0.2113  0.6051
 2004TIP3    H127427   4.456   4.644  15.279 -1.7814 -0.2074  0.7523
 2004TIP3    H227428   4.381   4.643  15.147  1.1659  0.1442 -1.0217
 2005TIP3   OH227429   5.173   2.421   4.131 -0.0710 -0.1152 -0.5368
 2005TIP3    H127430   5.157   2.466   4.214  1.1988  0.1867 -0.4318
 2005TIP3    H227431   5.250   2.367   4.148  0.4055  0.1995 -1.5960
 2006TIP3   OH227432   5.517   3.457   1.358  0.2965 -0.0559 -0.1481
 2006TIP3    H127433   5.446   3.419   1.409  0.6262 -0.8226 -0.2489
 2006TIP3    H227434   5.479   3.536   1.319 -1.6106 -2.1877 -2.9982
 2007TIP3   OH227435   1.358   2.727  15.182  0.4594  0.0901  0.3459
 2007TIP3    H127436   1.423   2.664  15.213  1.2620  0.5858 -0.3050
 2007TIP3    H227437   1.373   2.732  15.088 -1.8152 -1.2631 -0.1765
 2008TIP3   OH227438   1.637   0.059   6.349 -0.3457  0.0686 -0.4331
 2008TIP3    H127439   1.620   0.136   6.402  0.9825  0.3488 -0.3642
 2008TIP3    H227440   1.705   0.087   6.288  1.9267 -1.6375  1.1464
 2009TIP3   OH227441   2.847   3.010  12.486  0.2190  0.1333  0.7222
 2009TIP3    H127442   2.859   2.928  12.536  1.4370  0.0754  0.3619
 2009TIP3    H227443   2.758   3.037  12.507 -0.6275 -1.8863 -0.0372
 2010TIP3   OH227444   2.577   3.838  14.033 -0.8445 -0.1779 -0.2931
 2010TIP3    H127445   2.527   3.829  14.114 -1.3968  1.3166 -0.4550
 2010TIP3    H227446   2.553   3.761  13.981  0.5999 -1.9432  1.4955
 2011TIP3   OH227447   5.018   6.363  11.749 -0.0959  0.8909 -0.0519
 2011TIP3    H127448   4.938   6.362  11.696 -0.5719  1.9631  0.6101
 2011TIP3    H227449   5.024   6.275  11.785 -0.4925  0.5446 -0.7980
 2012TIP3   OH227450   3.529   6.082  11.642  0.5504  0.3338  0.0131
 2012TIP3    H127451   3.442   6.078  11.601  0.1096 -0.9056  0.9879
 2012TIP3    H227452   3.586   6.115  11.573 -0.2548 -1.1962 -1.4831
 2013TIP3   OH227453   3.704   6.593  16.274  0.0617  0.0169  0.3131
 2013TIP3    H127454   3.617   6.577  16.312 -0.6308  0.7297 -0.9244
 2013TIP3    H227455   3.749   6.647  16.339  0.8398 -3.0020  2.5260
 2014TIP3   OH227456   0.828   4.234   0.287  0.2068 -0.1103 -0.0134
 2014TIP3    H127457   0.835   4.283   0.369 -1.8836  0.3196 -0.0255
 2014TIP3    H227458   0.902   4.174   0.288  3.0194  3.0169 -0.0447
 2015TIP3   OH227459   5.801   5.581  10.832  0.0512  0.2874  0.0470
 2015TIP3    H127460   5.713   5.583  10.794  0.1241 -1.2380 -0.2583
 2015TIP3    H227461   5.858   5.557  10.759  0.4537 -0.6744  0.6480
 2016TIP3   OH227462   1.764   2.381  14.000 -0.5145  0.1627 -0.2268
 2016TIP3    H127463   1.807   2.337  13.926  0.9802  0.4547  0.4445
 2016TIP3    H227464   1.835   2.412  14.055 -1.5981 -0.4767  1.6202
 2017TIP3   OH227465   2.812   3.104   5.556 -0.0361 -1.1589  0.8774
 2017TIP3    H127466   2.859   3.187   5.568 -0.8759 -0.7698  1.6094
 2017TIP3    H227467   2.725   3.120   5.594 -0.4378 -2.1640  0.4197
 2018TIP3   OH227468   5.157   4.969   4.079 -0.3003  0.0949  0.5299
 2018TIP3    H127469   5.194   5.009   4.158 -0.6277 -0.3428  0.9013
 2018TIP3    H227470   5.066   5.000   4.077  0.0125  1.0356 -0.2966
 2019TIP3   OH227471   2.730   1.921  12.045  0.3762  0.2973  0.1053
 2019TIP3    H127472   2.677   1.846  12.019  0.0362  0.8527 -0.8616
 2019TIP3    H227473   2.752   1.904  12.137 -0.9510 -0.2415  0.3450
 2020TIP3   OH227474   2.493   5.361   3.390  0.2055  0.5018 -0.0971
 2020TIP3    H127475   2.480   5.270   3.416  0.5626  0.8625  1.4272
 2020TIP3    H227476   2.446   5.369   3.307 -1.6083 -0.5219  0.7762
 2021TIP3   OH227477   6.528   2.346  12.648  0.6984 -0.2036  0.3842
 2021TIP3    H127478   6.496   2.288  12.717  0.4961 -1.5580 -0.8092
 2021TIP3    H227479   6.449   2.377  12.604  0.8929 -1.2461 -0.7325
 2022TIP3   OH227480   5.992   1.626   4.793  0.8057 -0.3102  0.0368
 2022TIP3    H127481   5.926   1.644   4.725  0.1791 -0.8881  0.4809
 2022TIP3    H227482   5.941   1.602   4.870  1.5139  0.4117  0.7473
 2023TIP3   OH227483   0.261   5.005  15.420 -0.3473  0.5038 -0.0909
 2023TIP3    H127484   0.315   4.931  15.447  1.2440  1.2855 -0.9808
 2023TIP3    H227485   0.176   4.966  15.398  0.5285 -1.1021 -0.7999
 2024TIP3   OH227486   3.098   2.971  14.101  0.2899  0.0772 -0.3198
 2024TIP3    H127487   3.192   2.964  14.088  0.3055 -1.4200  0.4621
 2024TIP3    H227488   3.059   2.922  14.029  0.1078  0.4377 -0.4708
 2025TIP3   OH227489   6.600   0.077   0.698  0.1929 -0.4193 -0.7292
 2025TIP3    H127490   6.560   0.050   0.615  1.2677  0.4505 -1.5513
 2025TIP3    H227491   6.693   0.061   0.686  0.7790  2.6396 -0.8938
 2026TIP3   OH227492   6.525   5.620  11.388 -0.1089  0.3634 -0.6384
 2026TIP3    H127493   6.515   5.550  11.323  1.5805  0.3801 -0.9384
 2026TIP3    H227494   6.436   5.656  11.397 -1.3998 -2.7951  0.6804
 2027TIP3   OH227495   1.049   4.830   2.016 -0.2298 -0.1829 -0.3581
 2027TIP3    H127496   1.071   4.901   2.076 -0.7100 -0.5036  0.2160
 2027TIP3    H227497   0.966   4.857   1.976  0.4313  0.3519 -1.4207
 2028TIP3   OH227498   4.634   3.654  11.444  0.2486  0.3778 -0.3632
 2028TIP3    H127499   4.559   3.656  11.385  0.2371 -0.0452 -0.3637
 2028TIP3    H227500   4.657   3.562  11.451 -1.3595  0.1019  2.3605
 2029TIP3   OH227501   4.229   0.089   5.729 -0.0115 -0.4639 -0.3262
 2029TIP3    H127502   4.154   0.108   5.786 -2.0694 -1.2326 -2.5921
 2029TIP3    H227503   4.231  -0.007   5.725  1.7233 -0.4877  0.4009
 2030TIP3   OH227504   3.583   6.597  12.340 -0.2395  0.2063  0.5213
 2030TIP3    H127505   3.586   6.533  12.411  1.3186  1.2474  1.4481
 2030TIP3    H227506   3.674   6.605  12.311 -0.7115  0.5291 -0.9316
 2031TIP3   OH227507   1.511   0.328  15.597 -0.5280  0.3928 -0.0436
 2031TIP3    H127508   1.602   0.307  15.618 -0.7708  0.5490  1.2211
 2031TIP3    H227509   1.506   0.424  15.604 -0.6205  0.4570 -0.8540
 2032TIP3   OH227510   6.772   1.593   5.128 -0.3731  0.0663 -0.1462
 2032TIP3    H127511   6.711   1.595   5.055 -1.3158 -2.3620  0.4873
 2032TIP3    H227512   6.730   1.647   5.195  0.1807  1.7467 -1.0854
 2033TIP3   OH227513   0.303   4.934  14.616  0.1011  0.3560  0.5052
 2033TIP3    H127514   0.342   5.007  14.569  1.8923  0.9366  2.6876
 2033TIP3    H227515   0.321   4.858  14.562 -0.4970  1.3128 -1.1020
 2034TIP3   OH227516   5.696   1.636   3.388 -0.4410  0.1938  0.1776
 2034TIP3    H127517   5.677   1.543   3.378 -0.0804  0.0167  1.0711
 2034TIP3    H227518   5.757   1.656   3.317  1.1291 -0.7483  1.2164
 2035TIP3   OH227519   5.044   4.468  14.430 -0.4305  0.3483 -0.3402
 2035TIP3    H127520   5.129   4.511  14.432 -1.2119  2.1099 -1.6400
 2035TIP3    H227521   5.030   4.447  14.337 -0.4254 -2.1294  0.1441
 2036TIP3   OH227522   4.789   1.319   1.038  0.0601  0.3045 -0.4009
 2036TIP3    H127523   4.786   1.290   0.947  2.4445 -0.3211 -0.3525
 2036TIP3    H227524   4.842   1.398   1.036 -1.8290  1.6555  0.1958
 2037TIP3   OH227525   3.015   5.353  12.476 -1.2977 -0.4348 -0.4801
 2037TIP3    H127526   2.952   5.340  12.405 -1.8537  0.4818 -0.1767
 2037TIP3    H227527   3.094   5.384  12.433 -0.9837 -1.7528 -0.8821
 2038TIP3   OH227528   6.050   6.783   4.977  0.5043  0.3188 -0.0508
 2038TIP3    H127529   5.984   6.820   5.037  1.5972  0.4832  1.0804
 2038TIP3    H227530   6.045   6.838   4.899 -1.3324 -0.2369 -0.3837
 2039TIP3   OH227531   4.330   6.493  13.219 -0.3899 -0.4164 -0.0207
 2039TIP3    H127532   4.311   6.441  13.141  0.2893 -0.9822  0.1771
 2039TIP3    H227533   4.317   6.432  13.292  1.9718 -0.8323  0.1368
 2040TIP3   OH227534   0.299   5.811   5.203 -0.1524 -0.0144 -0.5827
 2040TIP3    H127535   0.280   5.751   5.275  1.7250  0.9495  0.8169
 2040TIP3    H227536   0.226   5.872   5.203 -1.1582 -1.1809 -0.8138
 2041TIP3   OH227537   4.893   2.593  16.977 -0.6112 -0.0833  0.2559
 2041TIP3    H127538   4.895   2.537  16.899 -0.6199  1.0965 -0.6312
 2041TIP3    H227539   4.948   2.547  17.041  1.2354 -0.0576 -1.2064
 2042TIP3   OH227540   0.398   6.290   3.863 -0.4325 -0.3054 -0.0336
 2042TIP3    H127541   0.434   6.328   3.783 -0.7811 -1.2686 -0.6691
 2042TIP3    H227542   0.306   6.273   3.842 -0.3650 -1.1769  0.3436
 2043TIP3   OH227543   6.722   1.035  16.524  0.1061 -0.0685 -0.1255
 2043TIP3    H127544   6.725   0.993  16.610  0.3486 -1.0718 -0.6085
 2043TIP3    H227545   6.646   1.092  16.528  0.7579  0.7541  1.1339
 2044TIP3   OH227546   1.155   3.238  15.188  0.4154  0.7035  0.2744
 2044TIP3    H127547   1.218   3.296  15.230  0.9760  1.2617 -1.2675
 2044TIP3    H227548   1.203   3.157  15.171  0.7356  1.1092 -0.8501
 2045TIP3   OH227549   1.858   3.699  16.283  0.3219  0.3121 -0.2129
 2045TIP3    H127550   1.798   3.701  16.358 -0.4999 -0.9898 -0.7867
 2045TIP3    H227551   1.869   3.606  16.265  0.3911  0.6026 -1.7885
 2046TIP3   OH227552   1.499   3.243  14.657  0.1264 -0.1382  0.4541
 2046TIP3    H127553   1.433   3.202  14.713 -0.2739  0.0539  0.1302
 2046TIP3    H227554   1.583   3.217  14.695 -0.0984 -1.6429 -0.0179
 2047TIP3   OH227555   3.084   2.961   0.538 -0.5126  0.4350  0.3605
 2047TIP3    H127556   3.176   2.946   0.517 -1.2383 -1.7746 -1.7539
 2047TIP3    H227557   3.056   3.030   0.478 -0.1408  1.5144  1.3977
 2048TIP3   OH227558   5.648   6.686   3.935 -0.3188  0.0693  0.2715
 2048TIP3    H127559   5.644   6.757   3.999  0.7230  0.1349  0.2886
 2048TIP3    H227560   5.739   6.686   3.906 -0.5612 -0.5799 -0.5089
 2049TIP3   OH227561   1.372   0.723  14.896 -0.1417  0.0510 -0.3151
 2049TIP3    H127562   1.433   0.792  14.870  0.7281  0.5292  2.6097
 2049TIP3    H227563   1.427   0.658  14.939 -1.2677 -1.3635 -0.9500
 2050TIP3   OH227564   6.730   0.547   2.449 -0.0717  0.0391 -0.1113
 2050TIP3    H127565   6.783   0.483   2.402  0.2234 -0.1588  0.4863
 2050TIP3    H227566   6.640   0.526   2.425  0.0384 -0.4717 -0.0757
 2051TIP3   OH227567   1.397   5.214   0.162  0.2378  0.2088 -0.5004
 2051TIP3    H127568   1.436   5.292   0.123  0.3299  0.3713 -0.0928
 2051TIP3    H227569   1.308   5.210   0.126  0.5522 -0.0375 -1.2618
 2052TIP3   OH227570   1.059   3.537  16.201  0.4163 -0.1401  0.6074
 2052TIP3    H127571   0.981   3.485  16.217 -1.6347  1.8441 -1.9390
 2052TIP3    H227572   1.103   3.493  16.128 -0.0847  0.4359 -0.0507
 2053TIP3   OH227573   2.541   0.264  13.787 -0.2521 -0.1911 -0.2949
 2053TIP3    H127574   2.627   0.223  13.789 -0.4259 -0.5687 -0.5026
 2053TIP3    H227575   2.501   0.241  13.871 -1.0295 -1.9438 -1.0891
 2054TIP3   OH227576   2.317   1.675  11.427 -0.0886 -0.4528  0.2379
 2054TIP3    H127577   2.403   1.632  11.423 -0.1102 -0.4593 -0.1905
 2054TIP3    H227578   2.330   1.760  11.385 -0.2983 -0.4685  0.1381
 2055TIP3   OH227579   6.555   1.465   5.763  0.0604  0.0523  0.4112
 2055TIP3    H127580   6.498   1.392   5.787 -0.9540  0.5106 -0.4994
 2055TIP3    H227581   6.533   1.534   5.826 -0.2667  0.1562  0.1906
 2056TIP3   OH227582   3.588   4.759  15.150 -0.1160 -0.0793  0.1288
 2056TIP3    H127583   3.552   4.742  15.237 -0.0263  0.4891  0.2825
 2056TIP3    H227584   3.676   4.722  15.154 -0.6401 -1.3988 -0.2218
 2057TIP3   OH227585   5.951   3.295   5.929 -0.4273  0.3128  0.0805
 2057TIP3    H127586   5.978   3.387   5.919 -0.1471  0.4234  1.6525
 2057TIP3    H227587   5.964   3.276   6.021  1.1937 -1.8588 -0.5189
 2058TIP3   OH227588   3.854   5.649  13.468  0.5174 -0.6541 -0.0079
 2058TIP3    H127589   3.925   5.637  13.406  0.7411  1.1054 -0.1437
 2058TIP3    H227590   3.895   5.640  13.554  0.2765 -2.7093 -0.0501
 2059TIP3   OH227591   4.412   1.891   3.371  0.0990  0.3703 -0.2338
 2059TIP3    H127592   4.346   1.850   3.425 -0.7072 -0.2655 -1.6427
 2059TIP3    H227593   4.371   1.900   3.285  1.3602  1.2465 -0.7851
 2060TIP3   OH227594   3.183   0.501  16.345 -0.5472  0.0230  0.0652
 2060TIP3    H127595   3.171   0.528  16.437  0.1233 -0.7535  0.3928
 2060TIP3    H227596   3.123   0.557  16.296 -0.3159  1.0323  0.8815
 2061TIP3   OH227597   0.778   1.386   1.770  0.1920  0.5020 -0.0587
 2061TIP3    H127598   0.803   1.306   1.725 -0.9895  0.0381  0.0874
 2061TIP3    H227599   0.856   1.410   1.820  0.7011 -0.3123 -0.4400
 2062TIP3   OH227600   5.510   1.168  13.576 -0.2487  0.1929  0.1098
 2062TIP3    H127601   5.581   1.106  13.560  2.1220  2.6894  0.2167
 2062TIP3    H227602   5.446   1.148  13.508  1.9531 -0.2820 -1.9781
 2063TIP3   OH227603   0.239   0.390   0.472  0.0108  0.7133  0.9012
 2063TIP3    H127604   0.251   0.484   0.484 -1.5465  1.0238  0.2752
 2063TIP3    H227605   0.150   0.382   0.437  0.9155 -0.8089 -1.2489
 2064TIP3   OH227606   1.934   4.096  15.016  0.2098 -0.2286 -0.3459
 2064TIP3    H127607   1.855   4.136  14.979  0.0525  1.0661  1.2704
 2064TIP3    H227608   1.922   4.002  15.001 -1.0195  0.0494 -1.2821
 2065TIP3   OH227609   1.990   2.929   0.453 -0.0099  0.1356  0.2781
 2065TIP3    H127610   2.013   2.949   0.544 -1.4278 -1.3222  1.0148
 2065TIP3    H227611   1.896   2.909   0.456  0.0537 -0.5825 -1.3925
 2066TIP3   OH227612   0.211   4.865   3.525 -0.2732 -0.0829  0.7244
 2066TIP3    H127613   0.252   4.785   3.494 -0.0720 -0.7248  2.5397
 2066TIP3    H227614   0.144   4.885   3.459  0.9032 -0.6892 -0.7089
 2067TIP3   OH227615   5.831   6.602  12.838 -0.1403 -0.3544 -0.0958
 2067TIP3    H127616   5.920   6.573  12.858 -0.6633 -0.5311  2.2248
 2067TIP3    H227617   5.799   6.539  12.773  0.0421 -2.8230  2.0674
 2068TIP3   OH227618   6.773   2.740  14.723 -0.2627  0.7774 -0.4856
 2068TIP3    H127619   6.735   2.793  14.653 -0.2849  0.1300 -0.9711
 2068TIP3    H227620   6.710   2.746  14.795 -0.0637  1.7467 -0.3717
 2069TIP3   OH227621   5.341   4.703   2.713  1.1015  0.0510 -0.4047
 2069TIP3    H127622   5.377   4.616   2.698  0.9532 -0.5296  2.1659
 2069TIP3    H227623   5.270   4.711   2.649  0.8552 -1.8918 -0.4365
 2070TIP3   OH227624   0.936   5.151  11.896 -0.5516 -0.1884 -0.0076
 2070TIP3    H127625   0.968   5.174  11.984 -1.0691  1.5022 -0.2143
 2070TIP3    H227626   0.856   5.102  11.912  0.3367 -1.5603  0.4617
 2071TIP3   OH227627   2.902   4.485  12.690  0.2266  0.1441 -0.6310
 2071TIP3    H127628   2.809   4.506  12.691  0.1730  0.0667  1.7051
 2071TIP3    H227629   2.929   4.501  12.600 -2.1602 -0.4405 -1.5401
 2072TIP3   OH227630   2.466   6.623  15.358  0.8517 -0.1865 -0.3951
 2072TIP3    H127631   2.551   6.666  15.368  0.3685  0.6128  0.4386
 2072TIP3    H227632   2.437   6.645  15.270  0.1730  2.0765  0.3326
 2073TIP3   OH227633   1.666   3.377   0.750 -0.1728 -0.4375  0.1745
 2073TIP3    H127634   1.709   3.327   0.681  0.2359  0.3910 -0.1841
 2073TIP3    H227635   1.583   3.332   0.764 -0.3341 -0.5150 -0.9660
 2074TIP3   OH227636   0.582   6.293   6.105 -0.1462  0.4221  0.6011
 2074TIP3    H127637   0.582   6.267   6.197  1.0022  1.6821  1.0016
 2074TIP3    H227638   0.587   6.389   6.108 -0.4744  0.4943 -0.7772
 2075TIP3   OH227639   3.585   6.714   4.027  0.1660 -0.9249 -0.3226
 2075TIP3    H127640   3.635   6.660   4.089  0.3246 -0.8881 -0.4195
 2075TIP3    H227641   3.620   6.692   3.941  0.5127 -0.3661 -0.3290
 2076TIP3   OH227642   2.633   0.548  16.126 -0.4868  0.0200 -0.4763
 2076TIP3    H127643   2.642   0.628  16.075  1.1983 -1.7726 -3.2980
 2076TIP3    H227644   2.695   0.558  16.199 -0.7594  1.4878 -0.4339
 2077TIP3   OH227645   1.188   4.298   3.888 -0.1881 -0.2076  0.1246
 2077TIP3    H127646   1.106   4.309   3.840  0.2025 -0.7670 -0.6967
 2077TIP3    H227647   1.257   4.321   3.826  0.2682  1.5955  1.2121
 2078TIP3   OH227648   6.593   4.931  17.024 -0.5032 -0.3300 -0.1749
 2078TIP3    H127649   6.573   4.848  16.981  0.6530 -1.0140  0.5571
 2078TIP3    H227650   6.682   4.921  17.056 -0.4313  1.1072  0.1658
 2079TIP3   OH227651   5.632   5.850  12.713  0.2357  0.2502  0.3817
 2079TIP3    H127652   5.629   5.796  12.792  0.8846  0.6291  0.6755
 2079TIP3    H227653   5.706   5.816  12.663  1.4402  1.6317  1.1560
 2080TIP3   OH227654   1.197   6.657   2.608 -0.5096 -0.4160 -0.4354
 2080TIP3    H127655   1.283   6.628   2.638 -0.7420 -0.5856  0.0845
 2080TIP3    H227656   1.192   6.749   2.636 -0.7688 -0.6048  0.1503
 2081TIP3   OH227657   3.540   3.717   3.312 -0.2697  0.2364 -0.5984
 2081TIP3    H127658   3.616   3.728   3.255  0.9539 -2.0080  0.5005
 2081TIP3    H227659   3.554   3.779   3.384  0.1477  0.3228 -0.7536
 2082TIP3   OH227660   2.370   0.386   1.512 -0.0978 -0.5517 -0.8325
 2082TIP3    H127661   2.286   0.411   1.551 -0.1518 -0.0386 -1.2563
 2082TIP3    H227662   2.378   0.443   1.435 -0.5195 -2.2742 -2.2260
 2083TIP3   OH227663   3.312   6.089  12.726 -0.5536  0.5015 -0.1992
 2083TIP3    H127664   3.268   6.050  12.650  1.4577 -0.4064 -0.9856
 2083TIP3    H227665   3.253   6.073  12.799 -1.9918  0.2931 -1.3528
 2084TIP3   OH227666   5.043   4.011   3.745  0.3922  0.1365  0.4969
 2084TIP3    H127667   4.960   3.986   3.705  0.6932  0.2294 -0.1834
 2084TIP3    H227668   5.103   3.939   3.724  0.9351  0.8394 -0.4398
 2085TIP3   OH227669   0.286   0.479   2.019  0.4577  0.0792 -0.2416
 2085TIP3    H127670   0.342   0.405   1.996 -1.0130 -1.3487  0.5769
 2085TIP3    H227671   0.197   0.449   2.001 -0.2019  1.6017  0.2591
 2086TIP3   OH227672   1.046   4.040   5.643 -0.6502  0.2000  0.3615
 2086TIP3    H127673   1.085   4.011   5.726 -0.9644  0.0707  0.4645
 2086TIP3    H227674   1.065   4.134   5.639 -0.1224  0.0942  0.2992
 2087TIP3   OH227675   5.995   5.841  16.812  0.0421  0.4585 -0.0787
 2087TIP3    H127676   6.051   5.764  16.807  1.1897  1.2955 -0.6325
 2087TIP3    H227677   6.050   5.907  16.856 -1.1530  0.7693  1.0044
 2088TIP3   OH227678   5.717   5.237  13.511  0.1397 -0.7500 -0.0720
 2088TIP3    H127679   5.647   5.253  13.575 -0.7519 -1.9857 -0.6955
 2088TIP3    H227680   5.682   5.270  13.429  1.0574  0.3145 -0.0577
 2089TIP3   OH227681   3.305   0.323   5.655 -0.2745  0.0307  0.2375
 2089TIP3    H127682   3.376   0.338   5.592 -0.4553 -1.8159 -0.4645
 2089TIP3    H227683   3.260   0.407   5.660  0.6630  0.6450 -0.9404
 2090TIP3   OH227684   1.778   6.123   0.459  0.5498 -0.8874 -0.5706
 2090TIP3    H127685   1.693   6.127   0.501  0.6316  0.9162 -0.4950
 2090TIP3    H227686   1.841   6.140   0.529  0.8230  0.0197 -1.0270
 2091TIP3   OH227687   3.279   3.444   5.507  0.5979 -0.4294 -0.2707
 2091TIP3    H127688   3.282   3.412   5.597 -0.6141 -2.4010 -0.8933
 2091TIP3    H227689   3.220   3.519   5.510 -0.2334 -1.1020  0.4130
 2092TIP3   OH227690   4.808   0.259   5.474  0.4537  0.0479 -0.2551
 2092TIP3    H127691   4.806   0.164   5.481 -1.0107 -0.0114 -1.0245
 2092TIP3    H227692   4.753   0.290   5.546  0.4229  0.2789 -0.3751
 2093TIP3   OH227693   6.462   1.847  11.708 -0.7934 -0.2887  0.3134
 2093TIP3    H127694   6.503   1.776  11.758 -0.9532 -1.2456 -0.8737
 2093TIP3    H227695   6.486   1.927  11.756  0.6813 -1.0029  0.8291
 2094TIP3   OH227696   4.046   3.092  14.151 -0.2518 -0.1840  0.2280
 2094TIP3    H127697   4.081   3.123  14.234 -1.4384 -0.0960  0.7180
 2094TIP3    H227698   4.102   3.018  14.127  0.7642  0.4599  0.5508
 2095TIP3   OH227699   1.809   2.620  15.171  0.1760  0.6323  0.0729
 2095TIP3    H127700   1.718   2.628  15.200  0.0181 -0.3379 -0.1097
 2095TIP3    H227701   1.806   2.553  15.102  1.3227 -0.9652  1.5033
 2096TIP3   OH227702   5.942   2.926   1.203  0.2841 -0.7393 -0.3241
 2096TIP3    H127703   5.904   2.889   1.283 -0.0497 -0.4429 -0.3448
 2096TIP3    H227704   5.950   3.020   1.220  3.7303 -1.0954  0.8100
 2097TIP3   OH227705   0.061   2.030  11.125  0.4888  0.0146 -0.0404
 2097TIP3    H127706  -0.003   1.961  11.107  2.0989 -1.5763  0.0593
 2097TIP3    H227707   0.031   2.071  11.206 -0.6388 -0.3857 -0.2424
 2098TIP3   OH227708   5.868   6.615  12.147 -0.3252 -0.3219 -0.1850
 2098TIP3    H127709   5.815   6.619  12.067 -0.3227 -1.6123 -0.2722
 2098TIP3    H227710   5.852   6.699  12.191 -2.4949 -0.6901 -0.1779
 2099TIP3   OH227711   3.952   4.528  14.214 -0.5715 -0.1889 -0.0606
 2099TIP3    H127712   3.952   4.509  14.308 -0.4822 -0.6345 -0.1458
 2099TIP3    H227713   4.014   4.465  14.177 -2.0801 -1.3736 -0.6793
 2100TIP3   OH227714   2.483   2.575  11.003 -0.2500 -0.5656  0.2258
 2100TIP3    H127715   2.562   2.522  11.011 -0.0522 -0.3034  0.0159
 2100TIP3    H227716   2.482   2.604  10.912 -0.2274 -0.0120  0.3999
 2101TIP3   OH227717   1.138   2.643   2.289 -0.2022 -0.0051  0.9918
 2101TIP3    H127718   1.231   2.665   2.298  0.2134 -0.9290 -0.5284
 2101TIP3    H227719   1.092   2.708   2.341  1.3376  0.0167  2.4124
 2102TIP3   OH227720   1.941   2.342   2.417 -0.2580  0.1657  0.3222
 2102TIP3    H127721   1.997   2.407   2.376 -1.5062  2.6884  2.3557
 2102TIP3    H227722   1.852   2.375   2.406 -1.0549 -1.7657  0.5104
 2103TIP3   OH227723   4.630   5.551   4.286  0.1239  0.0048 -0.4478
 2103TIP3    H127724   4.536   5.531   4.289  0.4679 -2.0393 -1.6489
 2103TIP3    H227725   4.661   5.530   4.374 -0.2667 -0.9153 -0.5196
 2104TIP3   OH227726   2.494   6.378   2.564  0.0984 -0.1649 -0.4900
 2104TIP3    H127727   2.481   6.418   2.650 -0.8842 -1.4078 -0.0282
 2104TIP3    H227728   2.439   6.300   2.565  1.1942 -1.0111 -1.7088
 2105TIP3   OH227729   0.591   1.471  16.523 -0.4546  0.0326  0.3149
 2105TIP3    H127730   0.588   1.449  16.430 -1.2603  2.0909 -0.1994
 2105TIP3    H227731   0.683   1.493  16.539  0.6603 -4.3011  1.1249
 2106TIP3   OH227732   0.132   0.979   5.103 -0.3860  0.7702 -0.1048
 2106TIP3    H127733   0.049   0.945   5.136 -1.6479  3.1117 -0.7246
 2106TIP3    H227734   0.135   0.951   5.011  1.0957 -2.0142  0.6677
 2107TIP3   OH227735   6.023   1.341   5.167  0.1228 -0.1784  0.0910
 2107TIP3    H127736   5.929   1.328   5.177  0.4594 -1.2476  2.9358
 2107TIP3    H227737   6.054   1.261   5.125 -0.3370  0.8446 -2.3868
 2108TIP3   OH227738   0.441   5.177  15.500 -0.2761  0.4401  0.2756
 2108TIP3    H127739   0.396   5.190  15.583 -1.3533 -0.1025 -0.2123
 2108TIP3    H227740   0.374   5.145  15.440  0.5037  0.7235 -0.7873
 2109TIP3   OH227741   6.521   5.468  11.889  0.0941 -0.2244 -0.3222
 2109TIP3    H127742   6.438   5.424  11.910 -0.1871  0.6205  0.3639
 2109TIP3    H227743   6.588   5.411  11.926 -0.2815  0.0256  0.7724
 2110TIP3   OH227744   1.148   4.427   3.507 -0.3433  0.4916 -0.3592
 2110TIP3    H127745   1.110   4.363   3.569 -0.7015  1.8431  0.8769
 2110TIP3    H227746   1.187   4.373   3.438  1.5048 -1.2011  1.8343
 2111TIP3   OH227747   5.514   6.720   4.405 -0.4809  0.3932  0.6785
 2111TIP3    H127748   5.459   6.793   4.433 -0.4853  0.8768 -0.5074
 2111TIP3    H227749   5.492   6.708   4.312  0.9732  0.2107  0.3310
 2112TIP3   OH227750   2.139   6.543  15.733 -0.1886  0.4377  0.2269
 2112TIP3    H127751   2.156   6.566  15.824  1.3105  0.0504  0.0716
 2112TIP3    H227752   2.220   6.565  15.687  0.0302 -1.7096 -0.5468
 2113TIP3   OH227753   2.067   2.872  11.117  0.4885  0.0889 -0.0431
 2113TIP3    H127754   2.116   2.941  11.072  1.0647  0.9887  1.8549
 2113TIP3    H227755   2.133   2.825  11.168 -0.3129  0.0157  0.9603
 2114TIP3   OH227756   6.782   5.455   2.513 -0.7007  0.3789  0.2672
 2114TIP3    H127757   6.807   5.498   2.595 -1.2448  1.3489 -0.0623
 2114TIP3    H227758   6.779   5.361   2.535  0.4900  0.4872  0.9963
 2115TIP3   OH227759   2.439   6.165   3.323  0.1904 -0.2212  0.4375
 2115TIP3    H127760   2.483   6.080   3.317 -0.7182 -0.7130  0.5521
 2115TIP3    H227761   2.425   6.191   3.232  1.0653  0.1412  0.3908
 2116TIP3   OH227762   4.903   2.362   0.742 -0.0003  0.0592 -0.4486
 2116TIP3    H127763   4.906   2.451   0.707 -1.5374  0.0402 -0.7281
 2116TIP3    H227764   4.832   2.320   0.694  1.1211 -1.5338 -0.7688
 2117TIP3   OH227765   5.909   2.315  14.520 -0.0484  0.1227 -0.3693
 2117TIP3    H127766   5.950   2.252  14.460 -0.3804 -1.0438  0.5794
 2117TIP3    H227767   5.874   2.261  14.591 -1.3562  1.2953 -0.0831
 2118TIP3   OH227768   4.827   5.078   1.985  0.1608 -0.4849 -0.2496
 2118TIP3    H127769   4.808   5.157   1.934 -2.6153 -0.1921  1.0585
 2118TIP3    H227770   4.881   5.109   2.058  0.0338  0.0240 -0.3633
 2119TIP3   OH227771   6.769   1.469  16.534 -0.0265 -0.1443 -0.3117
 2119TIP3    H127772   6.712   1.498  16.605  0.8847  0.3742  0.2287
 2119TIP3    H227773   6.798   1.381  16.561  2.6626  1.1610  1.4949
 2120TIP3   OH227774   5.219   1.094  14.208  0.5323 -1.0756 -0.2359
 2120TIP3    H127775   5.138   1.115  14.161  1.2267 -0.3391 -1.1492
 2120TIP3    H227776   5.218   0.998  14.214  0.5153 -1.2276 -1.9841
 2121TIP3   OH227777   1.368   0.636  16.188  0.2052 -0.0083  0.9400
 2121TIP3    H127778   1.451   0.682  16.178  0.2460 -0.3692 -0.7097
 2121TIP3    H227779   1.316   0.692  16.245  0.2372  2.1275 -0.9879
 2122TIP3   OH227780   1.354   1.073   1.445  0.3927  0.0586 -0.3893
 2122TIP3    H127781   1.431   1.025   1.475  0.8785  0.2377 -1.2950
 2122TIP3    H227782   1.356   1.065   1.350 -0.6049  0.2348 -0.4403
 2123TIP3   OH227783   3.113   3.672   5.075 -0.3117 -0.1551 -0.1804
 2123TIP3    H127784   3.028   3.715   5.088  1.0211  2.2674  1.2780
 2123TIP3    H227785   3.156   3.679   5.160  1.8621 -0.0871 -1.2303
 2124TIP3   OH227786   1.677   2.917   2.219 -0.0069  0.1010  0.0899
 2124TIP3    H127787   1.589   2.903   2.254 -0.1945 -2.9272 -1.2311
 2124TIP3    H227788   1.713   2.828   2.209  3.1491  1.2108  0.3847
 2125TIP3   OH227789   3.088   2.514   2.711  0.6105 -0.4128  0.3269
 2125TIP3    H127790   3.127   2.431   2.684 -0.1211 -0.8856  0.6701
 2125TIP3    H227791   3.056   2.497   2.800 -3.4426 -1.2171 -1.0668
 2126TIP3   OH227792   6.787   1.769   1.320  0.3221  0.2501 -0.0278
 2126TIP3    H127793   6.777   1.855   1.280 -0.0153  0.9554  1.4770
 2126TIP3    H227794   6.876   1.770   1.356  0.3080 -0.0205  0.0172
 2127TIP3   OH227795   6.514   2.702  16.049  0.1783 -0.3145 -0.4661
 2127TIP3    H127796   6.453   2.629  16.063 -1.3805  0.8520 -0.8725
 2127TIP3    H227797   6.490   2.735  15.962  1.1676  0.4090 -0.4714
 2128TIP3   OH227798   4.873   6.330   0.383 -0.0642 -0.5934  0.0432
 2128TIP3    H127799   4.840   6.317   0.295 -0.0065 -2.7105  0.2637
 2128TIP3    H227800   4.901   6.242   0.411  0.4166  0.1122  1.9588
 2129TIP3   OH227801   4.408   3.323  15.697 -0.5743  0.1350 -0.2192
 2129TIP3    H127802   4.409   3.350  15.789 -0.2125 -1.0593  0.1547
 2129TIP3    H227803   4.471   3.380  15.654 -0.8961  0.8401  0.2316
 2130TIP3   OH227804   2.831   6.783  11.534 -0.0576  0.3609 -0.3336
 2130TIP3    H127805   2.807   6.780  11.442 -0.6123 -0.8058 -0.1725
 2130TIP3    H227806   2.777   6.715  11.575  1.1177 -0.0278  0.6319
 2131TIP3   OH227807   2.062   1.093   5.145 -0.2817 -0.0990  0.5875
 2131TIP3    H127808   2.031   1.065   5.059  0.0037  2.3191 -0.3908
 2131TIP3    H227809   1.983   1.120   5.192 -0.4749 -1.7065  1.2714
 2132TIP3   OH227810   4.676   5.517   5.942 -0.0921 -0.0336  0.2246
 2132TIP3    H127811   4.653   5.564   5.862 -0.1536  1.4049  1.0654
 2132TIP3    H227812   4.655   5.426   5.922  1.2733  0.0253 -1.9227
 2133TIP3   OH227813   1.218   6.039  15.972  0.2778 -0.1063  0.2323
 2133TIP3    H127814   1.291   5.977  15.962 -0.6319 -1.2810  0.6008
 2133TIP3    H227815   1.254   6.108  16.028  2.1055  1.0780 -2.1997
 2134TIP3   OH227816   6.680   5.040   3.020 -0.1592 -0.0066 -0.4433
 2134TIP3    H127817   6.673   4.945   3.030 -1.2620  0.1198  0.1231
 2134TIP3    H227818   6.608   5.075   3.072 -0.2817  1.1069 -1.3194
 2135TIP3   OH227819   2.231   5.040   3.870  0.1421  0.4065 -0.2380
 2135TIP3    H127820   2.171   5.028   3.797 -1.3686 -2.1839  1.2533
 2135TIP3    H227821   2.293   4.968   3.863 -0.8737 -0.7382  1.7040
 2136TIP3   OH227822   5.091   6.582  11.106  0.0115 -0.0327  0.0302
 2136TIP3    H127823   5.095   6.619  11.018  0.8215 -2.1359 -0.9119
 2136TIP3    H227824   5.158   6.513  11.105 -0.9908 -1.1051  1.7904
 2137TIP3   OH227825   2.203   5.214   3.547  0.0600  0.3292 -0.2357
 2137TIP3    H127826   2.210   5.269   3.625 -0.6355 -1.1962  0.9493
 2137TIP3    H227827   2.159   5.134   3.578  1.1479 -0.9495 -1.8448
 2138TIP3   OH227828   0.737   2.638  12.891 -0.0677 -0.7025 -0.1613
 2138TIP3    H127829   0.801   2.632  12.821  0.2122  0.3433 -0.0077
 2138TIP3    H227830   0.720   2.547  12.915 -0.7299 -1.1458 -2.0773
 2139TIP3   OH227831   2.951   5.546   2.122  0.0263 -0.0476 -0.3800
 2139TIP3    H127832   2.955   5.561   2.217 -0.4864 -1.3593 -0.1378
 2139TIP3    H227833   2.950   5.451   2.113 -3.3258 -0.0022 -1.5243
 2140TIP3   OH227834   5.934   3.288   1.653  0.1142  0.2486  0.1577
 2140TIP3    H127835   5.891   3.203   1.662  1.2419 -0.3066  0.5335
 2140TIP3    H227836   5.887   3.332   1.582 -2.3222  0.4902  1.7939
 2141TIP3   OH227837   2.017   0.305   4.090 -0.0980  0.9927  0.3389
 2141TIP3    H127838   1.998   0.352   4.009  1.2859 -0.3290 -0.8047
 2141TIP3    H227839   2.064   0.368   4.144 -1.5981  2.0977  0.4322
 2142TIP3   OH227840   1.079   4.756   5.860 -0.0838 -0.5088 -0.1801
 2142TIP3    H127841   1.075   4.717   5.947 -0.1025 -1.6194 -0.6616
 2142TIP3    H227842   1.063   4.849   5.875 -1.3920 -0.8666  0.8635
 2143TIP3   OH227843   1.157   2.636  13.862  0.1666 -0.2773  0.5585
 2143TIP3    H127844   1.235   2.639  13.806  0.0723  0.4230  0.4586
 2143TIP3    H227845   1.191   2.612  13.948  0.5469  0.4261  0.6079
 2144TIP3   OH227846   3.576   3.077  13.971  0.5860 -0.6540 -0.3806
 2144TIP3    H127847   3.503   3.081  13.910 -0.3245 -1.5960  0.5918
 2144TIP3    H227848   3.654   3.070  13.916 -0.1725 -0.9991 -1.4302
 2145TIP3   OH227849   3.601   1.849  12.292  0.1023  0.4177  0.1766
 2145TIP3    H127850   3.581   1.757  12.271 -0.3013  0.5912 -0.2272
 2145TIP3    H227851   3.533   1.874  12.355 -0.6495  0.8462 -0.7780
 2146TIP3   OH227852   0.088   2.586   0.191 -0.4120  0.1225  0.7490
 2146TIP3    H127853   0.011   2.636   0.219 -0.9849  0.6653 -1.5895
 2146TIP3    H227854   0.057   2.495   0.189 -0.2491  0.0196  2.1344
 2147TIP3   OH227855   0.967   6.372  16.411 -0.3052  0.1659  0.0246
 2147TIP3    H127856   1.047   6.401  16.456  0.1415  0.0710 -0.7023
 2147TIP3    H227857   0.936   6.298  16.463 -1.0001  1.3872  1.4313
 2148TIP3   OH227858   1.347   0.564   0.450  0.0743  0.0482  0.3419
 2148TIP3    H127859   1.366   0.490   0.507  0.9768  0.2669  0.3380
 2148TIP3    H227860   1.321   0.524   0.367  1.0338 -0.2723  0.1845
 2149TIP3   OH227861   3.910   1.873   4.244  0.0043  0.0359  0.8182
 2149TIP3    H127862   3.932   1.945   4.303  1.0614  1.4333 -1.1653
 2149TIP3    H227863   3.867   1.916   4.170 -0.1054 -1.4959 -0.0298
 2150TIP3   OH227864   0.799   3.596   6.360  0.8331 -0.4127  0.1274
 2150TIP3    H127865   0.731   3.544   6.402 -0.1820  0.6410 -0.1693
 2150TIP3    H227866   0.831   3.654   6.430  0.1966  0.2960 -0.1588
 2151TIP3   OH227867   6.626   4.414  14.267  0.2144  0.2107 -0.4698
 2151TIP3    H127868   6.667   4.341  14.314  1.5114  0.7700 -0.6967
 2151TIP3    H227869   6.532   4.397  14.275  0.3933 -0.0300  1.8235
 2152TIP3   OH227870   3.914   1.399  13.356 -0.0503 -0.4249  0.1497
 2152TIP3    H127871   3.878   1.402  13.444  1.0206  1.5788  0.5853
 2152TIP3    H227872   3.839   1.410  13.298 -0.5572  0.1985  0.9041
 2153TIP3   OH227873   1.540   5.817   2.670 -0.1395  0.5758  0.0999
 2153TIP3    H127874   1.596   5.871   2.725  0.2744 -0.3450  0.6169
 2153TIP3    H227875   1.550   5.728   2.706  0.1317 -0.0566 -1.4557
 2154TIP3   OH227876   2.192   2.878  14.290  0.1625  0.4526  0.2777
 2154TIP3    H127877   2.097   2.893  14.292  0.2203  1.0377 -0.8657
 2154TIP3    H227878   2.213   2.850  14.379 -1.2391 -0.6705  0.3016
 2155TIP3   OH227879   1.395   2.504  14.888  0.3139 -0.0488  0.4387
 2155TIP3    H127880   1.479   2.548  14.906  0.8214  1.0380 -3.5552
 2155TIP3    H227881   1.419   2.418  14.856  0.3570  1.1753 -3.3677
 2156TIP3   OH227882   5.112   0.786   5.176  0.3937 -0.0563  0.6187
 2156TIP3    H127883   5.202   0.796   5.146 -0.5078 -0.8521 -2.7683
 2156TIP3    H227884   5.086   0.874   5.202  1.6167  0.5423 -0.0876
 2157TIP3   OH227885   0.682   3.355   5.996  0.1248  0.0605  0.5300
 2157TIP3    H127886   0.679   3.268   5.956 -0.7321  0.2143  0.2337
 2157TIP3    H227887   0.737   3.344   6.073 -1.1048 -1.0858  1.2894
 2158TIP3   OH227888   6.710   5.924   4.447 -0.0203  0.1334 -0.3344
 2158TIP3    H127889   6.759   5.878   4.379 -0.6649 -0.3695 -0.4675
 2158TIP3    H227890   6.672   5.855   4.501 -0.6356  0.5082 -0.2723
 2159TIP3   OH227891   0.646   5.915  12.798  0.1487  0.0724  0.2081
 2159TIP3    H127892   0.607   5.916  12.885  0.3631  1.7229  0.3046
 2159TIP3    H227893   0.652   6.007  12.772 -2.8037 -0.4171 -2.8786
 2160TIP3   OH227894   2.428   3.281   1.310  0.2602 -0.3988 -0.6668
 2160TIP3    H127895   2.410   3.374   1.292  0.1878 -0.2629  0.0945
 2160TIP3    H227896   2.389   3.265   1.396 -0.4104 -1.3357 -1.1275
 2161TIP3   OH227897   6.580   0.881   4.564  0.1869 -0.2785 -0.3670
 2161TIP3    H127898   6.638   0.869   4.489 -1.4687  2.1255 -2.1798
 2161TIP3    H227899   6.513   0.814   4.553 -0.7027  0.7851 -1.7981
 2162TIP3   OH227900   4.322   2.143  13.472 -0.4343 -0.5539  0.2596
 2162TIP3    H127901   4.236   2.160  13.510 -0.5185 -0.1452 -0.1127
 2162TIP3    H227902   4.319   2.183  13.385  1.0973  2.0536  1.2897
 2163TIP3   OH227903   1.593   3.500   2.314 -0.1065  0.1364 -0.3929
 2163TIP3    H127904   1.537   3.577   2.310 -0.3181 -0.0677 -2.1998
 2163TIP3    H227905   1.652   3.509   2.239 -0.7467 -1.8738 -1.2079
 2164TIP3   OH227906   5.655   6.585   0.259 -0.1254  0.4672 -0.4196
 2164TIP3    H127907   5.659   6.551   0.169 -0.0707  1.0143 -0.6314
 2164TIP3    H227908   5.667   6.509   0.315 -0.7579  0.0290 -0.8734
 2165TIP3   OH227909   0.512   2.423  13.968 -0.3816 -0.2722 -0.5366
 2165TIP3    H127910   0.417   2.419  13.975 -0.5838  2.1783 -0.9942
 2165TIP3    H227911   0.529   2.410  13.874 -0.2882 -0.5332 -0.4828
 2166TIP3   OH227912   2.856   5.756   0.625 -0.5884  0.3926  0.0055
 2166TIP3    H127913   2.899   5.671   0.610 -2.0331 -0.8046  2.1691
 2166TIP3    H227914   2.808   5.773   0.544  1.1571  0.0904 -1.1541
 2167TIP3   OH227915   2.795   2.622   1.776  0.6914  0.0790 -1.1547
 2167TIP3    H127916   2.776   2.542   1.727  1.0042 -0.1410 -0.9153
 2167TIP3    H227917   2.732   2.623   1.847  2.0119 -1.0352  0.0856
 2168TIP3   OH227918   6.699   1.429   2.417 -0.4215 -0.0644 -0.2137
 2168TIP3    H127919   6.738   1.412   2.331 -1.9639  0.7886 -1.1124
 2168TIP3    H227920   6.774   1.448   2.474  0.5876 -0.1479 -1.4804
 2169TIP3   OH227921   5.612   1.412   5.020 -1.0701 -0.2133  0.5784
 2169TIP3    H127922   5.694   1.441   4.978 -0.3458 -0.4452  1.7908
 2169TIP3    H227923   5.567   1.362   4.952 -0.1472 -0.1834 -0.0733
 2170TIP3   OH227924   1.642   0.470  11.152  0.9711  0.3095  0.0066
 2170TIP3    H127925   1.656   0.497  11.061  0.7135 -0.5265 -0.2957
 2170TIP3    H227926   1.694   0.531  11.204  2.0921  0.0614 -0.7863
 2171TIP3   OH227927   5.790   4.571   0.247 -0.2631  0.2709  0.1462
 2171TIP3    H127928   5.835   4.535   0.324  1.0141  1.4288 -0.0138
 2171TIP3    H227929   5.822   4.517   0.174  0.6673  0.8923  0.0762
 2172TIP3   OH227930   2.534   1.420   5.313 -0.4742 -0.6987 -0.1881
 2172TIP3    H127931   2.512   1.348   5.253 -0.5151 -0.2819 -0.6721
 2172TIP3    H227932   2.563   1.375   5.393 -0.0359 -1.2623 -0.6490
 2173TIP3   OH227933   4.386   5.793   5.600  0.0162 -0.1891 -0.0909
 2173TIP3    H127934   4.304   5.778   5.646 -1.2997 -2.0175 -2.7421
 2173TIP3    H227935   4.360   5.801   5.508  2.8181 -1.2499 -1.0689
 2174TIP3   OH227936   5.707   0.417   5.614 -0.7421 -0.2097 -0.1776
 2174TIP3    H127937   5.635   0.464   5.657 -0.8669  0.8516 -1.4638
 2174TIP3    H227938   5.706   0.450   5.524  2.1112  0.7119  0.0478
 2175TIP3   OH227939   4.261   0.159  13.755  0.0638  0.4203  0.1559
 2175TIP3    H127940   4.352   0.129  13.750 -0.1963 -0.3390 -0.1519
 2175TIP3    H227941   4.228   0.123  13.837 -0.5786 -1.1017 -0.7408
 2176TIP3   OH227942   3.523   3.838  13.278 -0.1511 -0.2298  0.0856
 2176TIP3    H127943   3.506   3.930  13.300  1.7604 -0.4164  2.8997
 2176TIP3    H227944   3.593   3.841  13.213 -2.6018  0.2596 -2.7393
 2177TIP3   OH227945   4.955   6.771   5.708 -0.1219 -0.3873 -0.1151
 2177TIP3    H127946   5.020   6.820   5.658 -0.6740 -0.6054 -1.0725
 2177TIP3    H227947   5.003   6.740   5.785  0.6444  0.2868 -0.3016
 2178TIP3   OH227948   2.799   0.325  11.436 -0.4724  0.2393  0.1988
 2178TIP3    H127949   2.784   0.360  11.348 -1.5820 -2.2850 -0.7198
 2178TIP3    H227950   2.711   0.310  11.471 -0.0620 -1.2967  0.6341
 2179TIP3   OH227951   2.897   5.305   5.236  0.6766  0.3309 -0.5647
 2179TIP3    H127952   2.951   5.368   5.188  0.4485  1.1667  0.2359
 2179TIP3    H227953   2.945   5.289   5.317  0.8086 -0.6639 -0.8303
 2180TIP3   OH227954   1.417   4.766  10.893  0.1453  0.4894 -1.1324
 2180TIP3    H127955   1.344   4.792  10.948  0.9790  2.2272 -0.7781
 2180TIP3    H227956   1.380   4.757  10.805 -0.6019  0.7578 -0.8432
 2181TIP3   OH227957   6.132   6.456  12.174  0.1313  0.0449 -0.0943
 2181TIP3    H127958   6.197   6.526  12.165 -0.7016  1.0732  1.5205
 2181TIP3    H227959   6.048   6.500  12.174 -0.4918 -1.0982 -0.2504
 2182TIP3   OH227960   4.279   0.556   2.464 -0.5530 -0.3503  0.0985
 2182TIP3    H127961   4.349   0.491   2.471 -0.9383 -0.6722  1.0649
 2182TIP3    H227962   4.204   0.516   2.508 -0.7369  0.8193  0.8987
 2183TIP3   OH227963   1.100   4.818  14.747  0.1216 -0.0663 -0.0550
 2183TIP3    H127964   1.087   4.862  14.831 -0.2897 -1.5496  0.6805
 2183TIP3    H227965   1.090   4.725  14.766  1.4721 -0.5542 -1.4709
 2184TIP3   OH227966   6.298   1.859   4.403 -0.5831  0.2212  0.4610
 2184TIP3    H127967   6.227   1.922   4.413  1.1951  2.5465 -0.6047
 2184TIP3    H227968   6.378   1.912   4.406  0.9594 -1.6609 -2.3813
 2185TIP3   OH227969   0.954   4.158  13.439  0.4234  0.2005  0.0021
 2185TIP3    H127970   1.003   4.109  13.505  0.0342  0.2075  0.3030
 2185TIP3    H227971   0.999   4.242  13.433  0.4182  0.2309  0.3219
 2186TIP3   OH227972   4.208   1.061  13.836  0.0445 -0.0062  0.1964
 2186TIP3    H127973   4.174   1.061  13.926  0.4044  0.1205  0.3339
 2186TIP3    H227974   4.149   1.120  13.789  0.7698  1.1514  0.7070
 2187TIP3   OH227975   1.588   6.015  16.834 -0.6603 -0.1952  0.3825
 2187TIP3    H127976   1.499   5.995  16.863 -1.2365  0.8898 -0.5095
 2187TIP3    H227977   1.602   5.958  16.759  0.3781 -2.1513  1.9927
 2188TIP3   OH227978   2.117   4.541   6.209  0.0507  1.1019 -0.7062
 2188TIP3    H127979   2.200   4.536   6.257 -0.0674  2.6340 -0.2941
 2188TIP3    H227980   2.114   4.630   6.174 -2.0816  1.5933  0.5442
 2189TIP3   OH227981   3.545   2.727  14.300  0.2826 -0.1858  0.1843
 2189TIP3    H127982   3.499   2.645  14.281 -0.5979  0.8104 -2.3960
 2189TIP3    H227983   3.485   2.774  14.358 -0.8748  0.0606 -1.1646
 2190TIP3   OH227984   1.124   4.320  16.591 -0.0580  0.2055  0.2248
 2190TIP3    H127985   1.175   4.241  16.576 -2.0072 -1.0253 -0.2761
 2190TIP3    H227986   1.056   4.318  16.524 -2.0994  0.5768  2.1658
 2191TIP3   OH227987   5.835   2.909  14.454 -0.3491 -0.8811  0.3378
 2191TIP3    H127988   5.767   2.855  14.413 -0.5922 -0.2951 -0.0421
 2191TIP3    H227989   5.804   2.999  14.443  0.1423 -0.6518  0.7985
 2192TIP3   OH227990   1.946   5.701  16.457 -0.1402 -0.5705  0.4077
 2192TIP3    H127991   1.935   5.699  16.552 -1.1782  1.4572  0.3736
 2192TIP3    H227992   1.863   5.667  16.423 -0.0837 -0.5268  0.2255
 2193TIP3   OH227993   1.592   1.145   3.123 -0.2567 -0.3541 -0.2578
 2193TIP3    H127994   1.599   1.071   3.062 -0.3720 -1.2384  0.7690
 2193TIP3    H227995   1.649   1.121   3.196 -1.4280 -0.1197  0.7589
 2194TIP3   OH227996   2.686   0.916   2.494  0.1167  0.1433  0.0519
 2194TIP3    H127997   2.627   0.845   2.516 -0.0323  0.1882 -0.1931
 2194TIP3    H227998   2.774   0.878   2.500  0.0077 -0.2674 -0.8092
 2195TIP3   OH227999   0.893   2.924  11.126 -0.3012 -0.7317  0.5577
 2195TIP3    H128000   0.937   2.899  11.207 -0.8030 -1.6243  0.5700
 2195TIP3    H228001   0.961   2.966  11.074 -0.4986  2.0579  2.3581
 2196TIP3   OH228002   1.532   4.289  16.432  0.0028  0.2020  0.1618
 2196TIP3    H128003   1.557   4.225  16.365  0.2748  1.3254 -0.8463
 2196TIP3    H228004   1.484   4.238  16.497 -1.0215 -0.8019 -1.3075
 2197TIP3   OH228005   5.657   3.988  11.306  0.0749 -0.1442  0.2250
 2197TIP3    H128006   5.630   3.959  11.393 -2.8525 -2.1903 -1.2046
 2197TIP3    H228007   5.682   3.908  11.260 -0.1501  0.6354 -1.3400
 2198TIP3   OH228008   2.077   4.540   6.495 -0.3354 -0.3694  0.4872
 2198TIP3    H128009   2.170   4.517   6.494 -0.3930 -0.5868 -0.0133
 2198TIP3    H228010   2.052   4.544   6.403 -0.2173  2.1997  0.4985
 2199TIP3   OH228011   0.455   4.136  16.310 -0.8395 -0.1420 -0.2501
 2199TIP3    H128012   0.476   4.218  16.356  1.1691 -1.6898  1.7825
 2199TIP3    H228013   0.534   4.115  16.261 -1.3703 -0.8328 -0.8314
 2200TIP3   OH228014   5.847   4.054   5.045 -0.1059 -0.3405  0.2938
 2200TIP3    H128015   5.776   4.026   4.988  0.9287 -0.0458 -1.2007
 2200TIP3    H228016   5.921   3.998   5.021  0.5687  0.2921  0.8212
 2201TIP3   OH228017   2.168   1.959  13.605  0.1812  0.3557 -0.3019
 2201TIP3    H128018   2.228   1.943  13.678  0.4165 -0.3475 -0.6383
 2201TIP3    H228019   2.224   1.953  13.527 -0.4544 -1.2397 -0.6820
 2202TIP3   OH228020   2.065   2.498  15.241  0.5616  0.3704 -0.0461
 2202TIP3    H128021   2.056   2.428  15.177 -0.9898 -0.9214  1.4695
 2202TIP3    H228022   2.007   2.567  15.209 -1.3841 -0.8614  0.6413
 2203TIP3   OH228023   6.624   2.371  16.543  0.6778  0.4467  0.0647
 2203TIP3    H128024   6.708   2.338  16.512  1.9380  0.3299  3.1733
 2203TIP3    H228025   6.628   2.465  16.527  1.9569  0.6132  1.1380
 2204TIP3   OH228026   4.134   1.653   3.848  0.5277  0.5787  0.2290
 2204TIP3    H128027   4.119   1.732   3.901 -0.0644  0.2843  0.5183
 2204TIP3    H228028   4.125   1.581   3.911 -1.4158  0.1502 -0.4621
 2205TIP3   OH228029   2.791   3.121  15.647 -0.1077 -0.0767 -0.5565
 2205TIP3    H128030   2.761   3.065  15.719 -0.7793  1.2443  0.2116
 2205TIP3    H228031   2.711   3.152  15.606  0.2229 -2.1297 -3.0057
 2206TIP3   OH228032   2.193   1.372  12.845  0.1914  0.0193 -0.0425
 2206TIP3    H128033   2.127   1.307  12.869  1.0185 -1.4348 -1.4227
 2206TIP3    H228034   2.212   1.419  12.926 -0.8751 -1.0702  0.8812
 2207TIP3   OH228035   0.780   2.392  12.981 -0.4251  0.0235  0.6827
 2207TIP3    H128036   0.728   2.320  12.945  0.2510  0.1018 -0.5195
 2207TIP3    H228037   0.797   2.367  13.071 -0.9407 -0.9016  0.5352
 2208TIP3   OH228038   1.081   4.192  14.789  0.0648  0.6625 -0.2468
 2208TIP3    H128039   1.159   4.202  14.734  0.7724 -2.0365  0.1271
 2208TIP3    H228040   1.114   4.160  14.873 -1.3160  1.2675  0.5599
 2209TIP3   OH228041   0.518   0.427   1.239  0.2734  0.4429 -0.4344
 2209TIP3    H128042   0.571   0.435   1.160  3.0008 -1.4133  1.0086
 2209TIP3    H228043   0.577   0.454   1.310 -2.0545  2.0495  1.0332
 2210TIP3   OH228044   5.538   2.951   1.564  0.5440  0.0779 -0.1464
 2210TIP3    H128045   5.562   3.011   1.493 -1.1526 -0.3428 -1.1448
 2210TIP3    H228046   5.442   2.955   1.567  0.5232 -0.7778  1.3906
 2211TIP3   OH228047   1.410   5.135   2.706 -0.7520 -0.7722  0.0099
 2211TIP3    H128048   1.443   5.124   2.617 -0.0490  1.3275 -0.0494
 2211TIP3    H228049   1.337   5.196   2.696 -0.3121 -0.0793  0.9221
 2212TIP3   OH228050   5.618   4.770  15.421 -0.5611 -0.1739 -0.3172
 2212TIP3    H128051   5.690   4.716  15.453  0.1559  0.9901  0.1358
 2212TIP3    H228052   5.656   4.858  15.415 -1.6564  0.2647 -1.1035
 2213TIP3   OH228053   3.953   5.404   0.867  0.2483  0.1615 -0.0409
 2213TIP3    H128054   3.889   5.373   0.804  1.0440 -2.3267  0.2709
 2213TIP3    H228055   3.982   5.489   0.832 -0.7386 -0.2280 -1.9361
 2214TIP3   OH228056   3.387   5.083   4.340 -0.9222 -0.8155  0.1247
 2214TIP3    H128057   3.412   5.035   4.262  0.0691  2.4456 -1.7587
 2214TIP3    H228058   3.295   5.060   4.354 -1.1385 -1.4555 -2.0432
 2215TIP3   OH228059   2.114   5.599  16.176 -0.0651 -0.0959 -0.3171
 2215TIP3    H128060   2.098   5.679  16.126  0.6534  0.5312  0.4316
 2215TIP3    H228061   2.161   5.541  16.116 -1.0244 -0.1761 -1.0260
 2216TIP3   OH228062   5.954   3.294   2.971  0.7388  0.0181  0.0489
 2216TIP3    H128063   5.937   3.282   3.064  1.8217 -0.3809  0.2044
 2216TIP3    H228064   5.878   3.344   2.939  0.4772  0.3675  1.1854
 2217TIP3   OH228065   6.528   4.024   0.837  0.2368 -0.0140 -0.5790
 2217TIP3    H128066   6.605   4.053   0.788 -0.3037 -0.4677 -1.7330
 2217TIP3    H228067   6.455   4.072   0.798 -0.0831  0.3974  0.4917
 2218TIP3   OH228068   1.262   5.175   3.378  0.0950 -0.4382 -0.1547
 2218TIP3    H128069   1.250   5.266   3.350 -1.6944 -0.2805  0.9987
 2218TIP3    H228070   1.273   5.126   3.297  0.0074  0.6661 -0.8490
 2219TIP3   OH228071   4.239   3.395   2.500 -0.5326 -0.5938 -0.4059
 2219TIP3    H128072   4.211   3.448   2.575  0.0338  0.9339 -1.2369
 2219TIP3    H228073   4.167   3.333   2.486 -0.5916 -1.0022  1.4541
 2220TIP3   OH228074   5.471   1.855   0.411  0.2469  0.1674 -0.2721
 2220TIP3    H128075   5.511   1.784   0.360  1.0479  1.3210 -1.3126
 2220TIP3    H228076   5.395   1.882   0.359 -0.0654  0.0740  0.1284
 2221TIP3   OH228077   1.726   6.553   3.032 -0.1270 -0.3812 -0.2440
 2221TIP3    H128078   1.721   6.493   3.106  0.4690  0.0988  0.2040
 2221TIP3    H228079   1.797   6.613   3.055  1.0557 -1.0823 -1.8542
 2222TIP3   OH228080   2.775   0.074  12.613 -0.4528  0.1971 -0.4408
 2222TIP3    H128081   2.746   0.146  12.669  0.8501  0.7385 -0.4246
 2222TIP3    H228082   2.698   0.019  12.601 -1.1131  0.8671  0.6738
 2223TIP3   OH228083   6.599   3.125  14.278 -0.2535 -0.7813  0.0204
 2223TIP3    H128084   6.695   3.129  14.283 -0.2732 -1.8338  1.9498
 2223TIP3    H228085   6.579   3.032  14.280 -1.3655 -0.5536  1.7279
 2224TIP3   OH228086   2.193   2.222   2.214 -0.4137 -0.9869 -0.1987
 2224TIP3    H128087   2.098   2.222   2.212 -0.4361  0.5197 -1.8238
 2224TIP3    H228088   2.219   2.221   2.121  1.1393 -0.6617  0.1998
 2225TIP3   OH228089   3.686   0.341   6.065 -0.7580 -0.0660 -0.2846
 2225TIP3    H128090   3.687   0.308   5.976 -0.6575  0.5919 -0.5298
 2225TIP3    H228091   3.779   0.346   6.090 -0.7654  0.1140 -0.2866
 2226TIP3   OH228092   3.357   2.190   1.379  0.2745  0.0438  0.1035
 2226TIP3    H128093   3.388   2.189   1.469  1.0874 -2.4384 -0.1459
 2226TIP3    H228094   3.345   2.098   1.356  1.6111  0.4677 -2.7902
 2227TIP3   OH228095   6.430   5.241   2.050 -0.0161  0.2745 -0.6147
 2227TIP3    H128096   6.463   5.279   1.968  1.5818  3.4412  1.3021
 2227TIP3    H228097   6.502   5.186   2.082  0.0284  0.3679 -0.5530
 2228TIP3   OH228098   0.708   1.730  13.326  0.0791  0.0090 -0.4195
 2228TIP3    H128099   0.714   1.824  13.341 -0.6983 -0.2075  1.6314
 2228TIP3    H228100   0.792   1.706  13.287  0.3286  1.5156 -0.8561
 2229TIP3   OH228101   1.358   5.598  16.975 -0.1207 -0.2925 -0.3325
 2229TIP3    H128102   1.281   5.644  16.942 -1.0804 -1.7620 -0.2371
 2229TIP3    H228103   1.420   5.599  16.901 -1.2964 -1.4337 -1.3859
 2230TIP3   OH228104   4.938   4.506   3.037 -0.6023 -0.2797 -0.3676
 2230TIP3    H128105   4.943   4.419   3.075  0.1385  0.0411  0.2917
 2230TIP3    H228106   4.919   4.491   2.944  1.9060 -1.2670 -0.7969
 2231TIP3   OH228107   3.092   3.431   2.447  0.4928  0.1375  0.6571
 2231TIP3    H128108   3.005   3.446   2.411 -0.2543 -0.1022  2.2837
 2231TIP3    H228109   3.098   3.337   2.459  1.2542  0.0767 -0.0353
 2232TIP3   OH228110   3.363   0.186   2.920  0.0064 -0.4840  0.2516
 2232TIP3    H128111   3.315   0.173   2.838  0.4460  0.1494 -0.1188
 2232TIP3    H228112   3.352   0.280   2.938 -0.6386 -0.7457  1.2736
 2233TIP3   OH228113   3.544   0.550  13.311 -0.2636  0.3209 -0.1246
 2233TIP3    H128114   3.460   0.595  13.298 -0.3609  0.3621  0.6077
 2233TIP3    H228115   3.560   0.505  13.228 -1.9177 -1.1958  0.3176
 2234TIP3   OH228116   2.304   4.735   5.970  0.4467 -0.2630  0.0698
 2234TIP3    H128117   2.302   4.764   6.061 -0.5493 -1.3991  0.4318
 2234TIP3    H228118   2.384   4.683   5.964 -0.9103 -2.6754  1.1594
 2235TIP3   OH228119   5.396   6.385  16.658 -0.5562 -0.5697 -0.2887
 2235TIP3    H128120   5.449   6.375  16.738  1.1262 -0.4198 -1.3398
 2235TIP3    H228121   5.336   6.310  16.660 -1.4556  0.1336  1.7485
 2236TIP3   OH228122   0.403   1.701  11.607 -0.5155 -0.1958  0.3004
 2236TIP3    H128123   0.389   1.711  11.513  0.3645  1.8028  0.3230
 2236TIP3    H228124   0.457   1.776  11.631  1.6112 -2.1165  1.9391
 2237TIP3   OH228125   1.680   0.144  17.169  0.2723  0.0308 -0.6751
 2237TIP3    H128126   1.611   0.114  17.110 -0.3860  0.3024 -0.0599
 2237TIP3    H228127   1.638   0.213  17.221  0.3419 -1.2610  1.1900
 2238TIP3   OH228128   5.703   5.714   4.339 -0.1010  0.4927 -0.6219
 2238TIP3    H128129   5.726   5.621   4.333 -1.8693 -0.1982  1.7534
 2238TIP3    H228130   5.787   5.760   4.333  0.9744 -1.3619 -0.4455
 2239TIP3   OH228131   3.226   5.979  12.463 -0.3872 -0.1911 -0.2864
 2239TIP3    H128132   3.290   6.045  12.438 -1.9794  0.5732 -2.7660
 2239TIP3    H228133   3.221   5.921  12.386 -1.8960 -0.8237  0.2548
 2240TIP3   OH228134   2.912   4.173   3.302  0.2614 -0.4642  0.6544
 2240TIP3    H128135   2.979   4.235   3.332  0.5876 -1.5436  2.2842
 2240TIP3    H228136   2.830   4.223   3.305  0.7611  0.4143  0.1339
 2241TIP3   OH228137   0.541   4.941   1.686 -0.1802 -0.1381 -0.1492
 2241TIP3    H128138   0.574   4.981   1.767 -0.1351 -2.2456  0.9265
 2241TIP3    H228139   0.454   4.979   1.675  0.3198  1.1753  0.1150
 2242TIP3   OH228140   5.445   0.825   0.994  0.0454  0.4044 -0.0104
 2242TIP3    H128141   5.384   0.896   0.974 -0.0236 -0.2288 -2.4753
 2242TIP3    H228142   5.486   0.850   1.076 -3.3508  0.9476  1.7013
 2243TIP3   OH228143   2.525   0.394   4.643 -0.5948  0.0993 -0.0091
 2243TIP3    H128144   2.600   0.418   4.698 -0.1856  0.2748 -0.6309
 2243TIP3    H228145   2.538   0.301   4.624 -1.2782 -0.2166  1.0126
 2244TIP3   OH228146   2.325   6.310  10.827 -0.4467 -0.3501  0.2562
 2244TIP3    H128147   2.293   6.379  10.885 -1.1650 -0.2850 -0.2007
 2244TIP3    H228148   2.246   6.263  10.800 -0.3670  0.7093 -2.0698
 2245TIP3   OH228149   1.014   1.501   1.045 -0.4177  0.1781 -1.3354
 2245TIP3    H128150   1.095   1.465   1.007 -0.1164  0.1668 -0.6977
 2245TIP3    H228151   1.036   1.592   1.065 -0.2104 -0.1144 -0.1748
 2246TIP3   OH228152   1.927   2.159   4.915 -0.0966 -0.0578  0.4950
 2246TIP3    H128153   2.017   2.147   4.884 -0.6901 -0.5209 -1.1575
 2246TIP3    H228154   1.911   2.086   4.974  0.7971  0.3480  1.2459
 2247TIP3   OH228155   4.993   4.299   5.699 -0.4376 -0.1453 -0.6811
 2247TIP3    H128156   5.006   4.359   5.773 -0.8978 -2.4234  1.4093
 2247TIP3    H228157   4.899   4.281   5.699 -0.4172 -0.3219 -1.7272
 2248TIP3   OH228158   6.385   2.470   4.118 -0.0616 -0.3405  0.0191
 2248TIP3    H128159   6.302   2.510   4.142 -0.1070 -1.2091  1.4405
 2248TIP3    H228160   6.383   2.465   4.023 -1.5426 -0.1454  0.0168
 2249TIP3   OH228161   1.897   0.816  16.455  0.2050 -0.8023 -0.2459
 2249TIP3    H128162   1.911   0.819  16.361 -0.1027  3.4661 -0.3153
 2249TIP3    H228163   1.985   0.811  16.492  0.3817 -1.3952 -0.7285
 2250TIP3   OH228164   3.465   3.057   4.961 -0.1665  0.2217 -0.3857
 2250TIP3    H128165   3.384   3.097   4.994 -0.5142 -2.2098  2.0068
 2250TIP3    H228166   3.480   3.100   4.877 -4.0522  0.6434 -1.0301
 2251TIP3   OH228167   3.516   4.999   4.603  0.0428 -0.3414  0.4160
 2251TIP3    H128168   3.533   5.092   4.592  1.0703 -0.5403  0.2346
 2251TIP3    H228169   3.428   4.986   4.568  0.2048  0.4201 -0.2867
 2252TIP3   OH228170   5.427   0.440  10.824  0.2390  0.1170  0.2831
 2252TIP3    H128171   5.393   0.508  10.882 -0.7867  1.6992 -2.0005
 2252TIP3    H228172   5.508   0.477  10.788 -0.4588  0.3393 -1.1661
 2253TIP3   OH228173   2.555   4.476  16.583  0.3169 -0.2560  0.4155
 2253TIP3    H128174   2.613   4.482  16.659 -0.3953 -1.2663  1.0627
 2253TIP3    H228175   2.513   4.390  16.592  2.4416 -1.8264 -2.7509
 2254TIP3   OH228176   6.044   1.328  11.709  0.3166 -0.0896  0.1393
 2254TIP3    H128177   5.954   1.300  11.730 -0.5766  1.4334 -1.4043
 2254TIP3    H228178   6.071   1.378  11.785 -0.2358 -0.3683  0.5322
 2255TIP3   OH228179   6.054   1.840  12.239 -0.6933 -0.5491  0.0427
 2255TIP3    H128180   5.969   1.878  12.260 -0.7746 -1.4850  1.5389
 2255TIP3    H228181   6.073   1.781  12.312  2.7071  1.9667  1.4551
 2256TIP3   OH228182   4.985   6.135  15.527 -0.1592  0.6470 -0.3994
 2256TIP3    H128183   5.028   6.208  15.483  1.5522  1.2171  2.0286
 2256TIP3    H228184   4.914   6.175  15.577 -1.0144  0.2320 -1.2472
 2257TIP3   OH228185   1.798   4.345   1.339 -0.5076 -0.2487 -0.5558
 2257TIP3    H128186   1.747   4.317   1.263  1.0338 -1.2426 -1.2771
 2257TIP3    H228187   1.752   4.422   1.371 -1.8912 -0.5272 -1.7574
 2258TIP3   OH228188   6.281   3.864  15.323 -0.0375  0.1820  0.5954
 2258TIP3    H128189   6.284   3.812  15.403 -0.6333 -0.5688  0.1376
 2258TIP3    H228190   6.328   3.811  15.259  0.9552  1.0441  0.5822
 2259TIP3   OH228191   5.023   2.754   1.666 -0.1197  0.1282  0.2329
 2259TIP3    H128192   5.032   2.746   1.761  0.5904  0.9508  0.2452
 2259TIP3    H228193   5.006   2.665   1.636 -0.4506 -0.1245  1.1373
 2260TIP3   OH228194   5.723   2.458  14.324 -0.1041  0.5499  0.3302
 2260TIP3    H128195   5.739   2.373  14.363 -1.8029  0.2764  0.5344
 2260TIP3    H228196   5.802   2.509  14.342  0.2551 -0.4428  1.6874
 2261TIP3   OH228197   0.047   6.655   1.904 -0.0772 -0.6203  0.3385
 2261TIP3    H128198   0.133   6.617   1.885  0.7580  0.0956  2.3652
 2261TIP3    H228199  -0.010   6.619   1.837  1.5163 -2.2049 -0.2679
 2262TIP3   OH228200   3.240   1.499   2.425  0.8456  0.3593  0.4565
 2262TIP3    H128201   3.255   1.463   2.337 -0.0688 -0.2688  0.5511
 2262TIP3    H228202   3.205   1.426   2.475  0.8240  0.8715  1.1931
 2263TIP3   OH228203   2.500   2.129   1.065 -0.1580  0.3839 -0.2719
 2263TIP3    H128204   2.501   2.187   0.988  1.5667 -1.2172 -1.5379
 2263TIP3    H228205   2.570   2.162   1.121  0.8669 -0.4757 -1.0226
 2264TIP3   OH228206   4.441   4.653   0.677  0.5563  0.9399 -0.2070
 2264TIP3    H128207   4.388   4.643   0.756  1.2472 -1.1172  0.0479
 2264TIP3    H228208   4.399   4.725   0.630  0.0384  2.1468  1.9342
 2265TIP3   OH228209   4.156   0.820   2.257 -0.4364 -0.3926 -0.1042
 2265TIP3    H128210   4.250   0.816   2.243  0.1673  2.2009  2.4390
 2265TIP3    H228211   4.144   0.791   2.348 -1.9133  0.6054  0.0455
 2266TIP3   OH228212   0.785   4.903  16.226 -1.0897 -0.3950  0.0619
 2266TIP3    H128213   0.839   4.863  16.294 -0.5854 -1.3171 -0.8526
 2266TIP3    H228214   0.728   4.832  16.196  0.4687 -0.7882 -2.2472
 2267TIP3   OH228215   1.942   3.398  15.308 -0.5165  0.1317  0.1280
 2267TIP3    H128216   1.940   3.308  15.275  0.7087 -0.1959  0.8713
 2267TIP3    H228217   1.877   3.399  15.378  0.5402 -0.6216  1.1468
 2268TIP3   OH228218   6.422   5.002   4.575 -0.0260 -0.2788 -0.1808
 2268TIP3    H128219   6.445   5.086   4.614 -0.0326 -1.0196  1.4916
 2268TIP3    H228220   6.389   4.949   4.648  2.2684 -2.5659 -0.6401
 2269TIP3   OH228221   3.271   3.912   0.309 -0.5270  0.0501  1.0767
 2269TIP3    H128222   3.234   3.843   0.254 -1.2296  0.8447  0.5455
 2269TIP3    H228223   3.290   3.984   0.249  0.7249  0.1232  1.5416
 2270TIP3   OH228224   2.212   6.662   1.765  0.8756 -0.6758 -0.2443
 2270TIP3    H128225   2.148   6.602   1.804  1.6208 -0.4011  1.5159
 2270TIP3    H228226   2.296   6.633   1.801  1.0573  2.8342  2.7354
 2271TIP3   OH228227   2.905   0.359   1.411  0.2025 -0.0441  0.0497
 2271TIP3    H128228   2.900   0.455   1.414 -0.0970 -0.0451 -0.3645
 2271TIP3    H228229   2.818   0.332   1.383 -0.2445 -0.5305  1.7938
 2272TIP3   OH228230   3.424   0.870   3.907 -0.0044  0.0203  0.7253
 2272TIP3    H128231   3.393   0.783   3.932  0.6337 -0.3268  0.3236
 2272TIP3    H228232   3.386   0.886   3.821  1.1156 -0.5248  0.1042
 2273TIP3   OH228233   2.068   5.204  15.228  0.3050  0.2661 -0.3872
 2273TIP3    H128234   2.033   5.292  15.217  0.9676  0.5441 -0.3255
 2273TIP3    H228235   2.159   5.217  15.255  1.4124 -0.4140 -3.3568
 2274TIP3   OH228236   5.406   2.062  16.822  0.2115 -0.2996 -0.0623
 2274TIP3    H128237   5.494   2.046  16.858 -0.7497 -1.6595  1.8155
 2274TIP3    H228238   5.402   2.006  16.744  0.0128 -2.6797  1.5449
 2275TIP3   OH228239   2.561   3.974  13.304 -0.5122 -0.5864 -0.1320
 2275TIP3    H128240   2.568   3.987  13.210  1.4906  1.1391  0.1714
 2275TIP3    H228241   2.647   4.000  13.338 -1.3231 -0.7332  2.2117
 2276TIP3   OH228242   0.654   2.730  13.178 -0.0431  0.0073  0.1953
 2276TIP3    H128243   0.584   2.679  13.220  0.2618  0.2373  0.9937
 2276TIP3    H228244   0.613   2.765  13.099 -1.1134  0.8421  1.0741
 2277TIP3   OH228245   4.483   4.483  16.052  0.3552 -0.0203  0.0025
 2277TIP3    H128246   4.504   4.511  16.141  0.8202 -0.5658  0.0709
 2277TIP3    H228247   4.559   4.431  16.025 -0.0294 -0.3243 -0.5036
 2278TIP3   OH228248   6.472   5.146  11.705 -0.1368 -0.3545  0.2239
 2278TIP3    H128249   6.438   5.057  11.712  1.6188 -1.0028  0.8667
 2278TIP3    H228250   6.416   5.197  11.764  0.2884 -1.4916  1.6765
 2279TIP3   OH228251   2.909   3.570  11.317 -0.0121 -0.0119 -0.3787
 2279TIP3    H128252   2.912   3.605  11.406 -0.4004  0.2202 -0.4511
 2279TIP3    H228253   2.992   3.597  11.278 -0.0851  0.3885 -0.2670
 2280TIP3   OH228254   0.271   2.954   5.077  0.3778  0.5271 -0.2183
 2280TIP3    H128255   0.309   2.942   4.990  0.5301  0.8696 -0.1991
 2280TIP3    H228256   0.196   2.894   5.078  2.6343 -2.4993  0.8360
 2281TIP3   OH228257   5.141   6.420  14.134  0.2123  0.4673  0.1035
 2281TIP3    H128258   5.055   6.461  14.145 -0.1109 -0.4789  1.3395
 2281TIP3    H228259   5.149   6.360  14.209  2.4807  1.4565  0.7518
 2282TIP3   OH228260   5.694   4.855   4.677 -0.1691  0.0163  0.5903
 2282TIP3    H128261   5.702   4.762   4.699  0.8293 -0.2274 -0.6933
 2282TIP3    H228262   5.744   4.899   4.745  1.0718 -0.5620  0.0835
 2283TIP3   OH228263   5.706   5.526  16.838 -0.0756 -0.1433 -0.3052
 2283TIP3    H128264   5.735   5.556  16.752 -2.4817  2.6871 -0.2655
 2283TIP3    H228265   5.781   5.540  16.895  0.3293  1.6438 -1.2147
 2284TIP3   OH228266   0.866   5.557  12.700 -0.0775 -0.1049 -0.0634
 2284TIP3    H128267   0.903   5.643  12.679 -2.4356  0.7145 -1.2699
 2284TIP3    H228268   0.783   5.577  12.744 -1.0018 -1.7155 -0.9852
 2285TIP3   OH228269   4.086   6.351  16.754 -0.3978 -0.7258  0.5971
 2285TIP3    H128270   4.129   6.436  16.758 -0.9018 -0.4935  1.4143
 2285TIP3    H228271   4.049   6.346  16.667 -0.0123 -0.2860  0.4049
 2286TIP3   OH228272   6.330   5.974   2.076 -0.2651 -0.1127 -0.5664
 2286TIP3    H128273   6.241   6.009   2.073 -0.6359 -1.0720 -1.4868
 2286TIP3    H228274   6.337   5.921   1.997  1.0980 -0.1380 -0.4524
 2287TIP3   OH228275   2.784   3.295   3.195  0.3444  0.2987 -0.2823
 2287TIP3    H128276   2.857   3.300   3.134  1.5433  0.5422  1.1247
 2287TIP3    H228277   2.729   3.225   3.161  2.2335 -1.2308 -0.3546
 2288TIP3   OH228278   2.989   6.679   2.919  0.1015 -0.7551  0.5299
 2288TIP3    H128279   2.957   6.707   3.004 -0.5763 -0.2519  0.1189
 2288TIP3    H228280   3.028   6.758   2.881 -0.8619 -0.5980 -0.1933
 2289TIP3   OH228281   2.406   0.254   1.762  0.0688  0.3533 -0.1418
 2289TIP3    H128282   2.372   0.252   1.672 -0.2978 -0.2393  0.0014
 2289TIP3    H228283   2.362   0.328   1.803  0.3299  0.7027 -0.4850
 2290TIP3   OH228284   1.352   5.661  14.108  0.0876  0.1507 -0.4085
 2290TIP3    H128285   1.428   5.708  14.144  1.3257 -0.3647 -2.2184
 2290TIP3    H228286   1.374   5.568  14.120  0.8563 -0.0598 -2.9879
 2291TIP3   OH228287   4.672   0.222  13.447 -0.5148 -0.6073  0.4033
 2291TIP3    H128288   4.676   0.312  13.415  1.3369 -0.4830  0.8540
 2291TIP3    H228289   4.673   0.231  13.542  1.4185 -1.1042  0.4635
 2292TIP3   OH228290   0.477   3.931  15.446 -0.7667  0.4317 -0.4075
 2292TIP3    H128291   0.513   4.018  15.461 -0.5166  0.1288  0.8528
 2292TIP3    H228292   0.523   3.874  15.508 -1.0980 -0.5574 -1.0398
 2293TIP3   OH228293   0.276   0.386  12.311 -0.2550 -0.1294 -0.0250
 2293TIP3    H128294   0.346   0.371  12.247 -0.7569  0.2823 -0.6856
 2293TIP3    H228295   0.303   0.465  12.358  1.0900 -1.5184  1.6551
 2294TIP3   OH228296   0.522   2.336  15.220 -0.3434 -0.7066 -0.6795
 2294TIP3    H128297   0.529   2.418  15.270 -1.5945 -0.8181 -0.2811
 2294TIP3    H228298   0.484   2.362  15.136  1.3488 -0.5827 -1.4408
 2295TIP3   OH228299   1.039   4.307  12.322 -0.1522 -0.8033 -0.5868
 2295TIP3    H128300   1.027   4.344  12.235 -0.9236  0.1695 -0.0800
 2295TIP3    H228301   1.118   4.350  12.356 -1.1271  0.5443  0.0575
 2296TIP3   OH228302   3.483   3.836  17.107  0.4537  0.8365  0.2772
 2296TIP3    H128303   3.516   3.924  17.125  0.8379  0.5228  1.1526
 2296TIP3    H228304   3.388   3.844  17.113  0.5284  0.9131  1.7863
 2297TIP3   OH228305   4.247   1.720  15.692 -0.1349  0.0353 -0.5751
 2297TIP3    H128306   4.208   1.730  15.779  0.9431  0.6840 -0.1444
 2297TIP3    H228307   4.228   1.630  15.667  1.6634 -0.9815  1.4163
 2298TIP3   OH228308   6.636   3.998  11.284 -0.0785  0.5230  0.3680
 2298TIP3    H128309   6.631   3.971  11.376  0.8702  1.4600  0.7110
 2298TIP3    H228310   6.562   4.058  11.273  0.9872  2.0234  1.1053
 2299TIP3   OH228311   5.254   2.472  16.876 -0.2852 -0.2108  0.0018
 2299TIP3    H128312   5.216   2.556  16.853 -0.1067 -0.3545 -0.8297
 2299TIP3    H228313   5.330   2.463  16.818  0.5276 -0.3097  1.0418
 2300TIP3   OH228314   6.659   4.377  14.868 -0.0842 -0.7915  0.2731
 2300TIP3    H128315   6.636   4.470  14.873 -0.2594 -0.8047 -0.2292
 2300TIP3    H228316   6.755   4.376  14.863 -0.1483 -0.4793 -2.3813
 2301TIP3   OH228317   2.128   3.114  15.765 -0.1432 -0.7260 -0.0566
 2301TIP3    H128318   2.207   3.069  15.797 -0.1481 -0.5492  0.2080
 2301TIP3    H228319   2.122   3.193  15.819  0.1193 -0.1696 -0.8259
 2302TIP3   OH228320   4.101   3.176   0.077  0.4381 -0.0354 -0.3201
 2302TIP3    H128321   4.169   3.213   0.134  0.6101 -1.4373  0.4302
 2302TIP3    H228322   4.124   3.083   0.071 -0.4666 -0.2002 -1.4346
 2303TIP3   OH228323   1.694   3.321   2.965 -0.1851 -0.5409 -0.5435
 2303TIP3    H128324   1.666   3.282   2.882  0.6173  1.2679 -1.7308
 2303TIP3    H228325   1.728   3.247   3.016 -1.1409 -1.7616 -1.5983
 2304TIP3   OH228326   4.385   2.573   1.436  0.3573 -0.1353 -0.0559
 2304TIP3    H128327   4.366   2.505   1.501  1.1836 -1.7646 -1.4494
 2304TIP3    H228328   4.302   2.621   1.428 -0.7165 -1.8982 -0.0828
 2305TIP3   OH228329   6.027   0.456  12.986 -0.2991  0.0148  0.4621
 2305TIP3    H128330   5.986   0.539  13.010 -0.1477  0.1374  0.3075
 2305TIP3    H228331   6.104   0.482  12.935  1.5108 -0.0765  2.9206
 2306TIP3   OH228332   3.140   3.400   0.080 -0.3649 -0.0843 -0.2133
 2306TIP3    H128333   3.106   3.346   0.152  0.3421  0.6943  0.7279
 2306TIP3    H228334   3.061   3.432   0.036 -0.8060 -0.9735 -0.0992
 2307TIP3   OH228335   4.715   2.880   6.223 -0.4599  0.2935  0.3293
 2307TIP3    H128336   4.750   2.815   6.284  0.9235  0.4479 -0.2725
 2307TIP3    H228337   4.672   2.828   6.155  1.2826 -0.0743 -0.5466
 2308TIP3   OH228338   3.584   4.922   5.385  0.0574 -0.0207 -0.1949
 2308TIP3    H128339   3.659   4.974   5.414  0.4975 -0.6683 -0.1559
 2308TIP3    H228340   3.623   4.848   5.339 -0.5694 -0.2250 -0.4012
 2309TIP3   OH228341   1.489   6.087   6.017  0.8742  0.0688 -0.1436
 2309TIP3    H128342   1.465   6.158   5.957 -0.4580  0.5496  0.8925
 2309TIP3    H228343   1.552   6.127   6.077  0.6621  0.1856  0.0049
 2310TIP3   OH228344   4.521   5.265  12.394  0.6943 -0.4887 -0.1490
 2310TIP3    H128345   4.539   5.343  12.447  1.9453 -0.5392 -0.4777
 2310TIP3    H228346   4.500   5.299  12.307 -0.0874 -0.4659  0.0430
 2311TIP3   OH228347   6.386   6.164  16.368  0.1574 -0.0333 -0.5427
 2311TIP3    H128348   6.366   6.100  16.301  0.7833 -0.9515  0.1330
 2311TIP3    H228349   6.300   6.200  16.393 -0.3802 -1.6982  0.1350
 2312TIP3   OH228350   0.057   2.928   4.805 -0.1327  1.1606  0.2574
 2312TIP3    H128351   0.012   2.912   4.721  0.2214  1.1679  0.0655
 2312TIP3    H228352  -0.012   2.961   4.862 -0.5399  0.4548  0.1877
 2313TIP3   OH228353   1.816   5.428   0.118  0.1298  0.2636  0.0568
 2313TIP3    H128354   1.815   5.517   0.083 -3.1745  0.1227 -0.5357
 2313TIP3    H228355   1.860   5.436   0.203 -0.4090  2.5598  0.1915
 2314TIP3   OH228356   3.451   5.632  15.791 -0.2529  0.1137  0.0453
 2314TIP3    H128357   3.444   5.602  15.700 -0.0498  0.8016 -0.2024
 2314TIP3    H228358   3.472   5.725  15.784 -0.6935  0.2750  0.8022
 2315TIP3   OH228359   5.620   1.875  11.498 -0.0231  0.4112  0.5162
 2315TIP3    H128360   5.633   1.886  11.404  0.0894 -1.7036  0.2338
 2315TIP3    H228361   5.622   1.964  11.534  1.3544  1.1564 -1.2882
 2316TIP3   OH228362   2.561   5.976   0.521  0.3715 -0.1760  0.1287
 2316TIP3    H128363   2.471   5.966   0.552  1.4014  0.6178  3.8780
 2316TIP3    H228364   2.576   5.898   0.467 -2.8001  0.2047 -1.5816
 2317TIP3   OH228365   4.670   2.561   5.737 -0.0610 -0.4282 -0.2110
 2317TIP3    H128366   4.592   2.562   5.792 -1.1749 -0.3814 -1.7379
 2317TIP3    H228367   4.670   2.473   5.697  1.4771 -0.9548  0.8422
 2318TIP3   OH228368   2.138   3.782  12.273  0.1866 -0.5355 -0.4076
 2318TIP3    H128369   2.054   3.818  12.301 -1.0443 -2.5543 -1.2311
 2318TIP3    H228370   2.200   3.810  12.340 -1.2913  0.4275  0.6111
 2319TIP3   OH228371   3.887   0.181   3.158 -0.0642  0.1104 -0.0333
 2319TIP3    H128372   3.813   0.172   3.097 -1.7196  2.4221  1.4804
 2319TIP3    H228373   3.858   0.136   3.237  0.8029 -0.2290  0.1058
 2320TIP3   OH228374   5.743   0.443  13.167 -0.3940 -0.8284  0.1253
 2320TIP3    H128375   5.798   0.520  13.184 -1.4886  0.0949 -0.3537
 2320TIP3    H228376   5.797   0.369  13.193  1.0579  0.0388 -0.2858
 2321TIP3   OH228377   1.401   1.266   5.042 -0.0018 -0.0937  0.1359
 2321TIP3    H128378   1.370   1.355   5.062 -2.3693 -0.1744 -2.4616
 2321TIP3    H228379   1.375   1.214   5.117 -1.0600  0.9766  0.5529
 2322TIP3   OH228380   5.003   5.274   3.075  0.1076 -0.0079  0.0313
 2322TIP3    H128381   4.933   5.217   3.109  0.4647 -0.9970 -0.8423
 2322TIP3    H228382   4.989   5.274   2.980  0.5587  0.7865 -0.0372
 2323TIP3   OH228383   5.173   4.463  12.910 -0.1386 -0.1741  0.1767
 2323TIP3    H128384   5.261   4.474  12.947 -0.7499  1.5982  1.2120
 2323TIP3    H228385   5.188   4.441  12.818  1.3850  0.3792  0.2711
 2324TIP3   OH228386   0.130   6.030   2.001  0.2551  0.1657 -0.0272
 2324TIP3    H128387   0.042   6.052   2.030  0.5888  0.4990  0.7634
 2324TIP3    H228388   0.142   5.939   2.027  0.5758  0.4830  0.9480
 2325TIP3   OH228389   6.590   1.150   5.694 -0.3298 -0.7261 -0.1543
 2325TIP3    H128390   6.573   1.195   5.612 -0.5016 -0.7795 -0.1492
 2325TIP3    H228391   6.517   1.175   5.751 -0.6473 -1.3353 -0.2861
 2326TIP3   OH228392   2.039   5.440   1.325 -0.0762 -0.2045 -0.0839
 2326TIP3    H128393   2.113   5.490   1.360  0.6108 -1.7688  0.7825
 2326TIP3    H228394   1.966   5.501   1.328  1.4285  1.9661 -2.4586
 2327TIP3   OH228395   3.799   1.174  11.456 -0.0664  0.1803  0.1926
 2327TIP3    H128396   3.731   1.113  11.485 -2.5111  2.2696 -0.7051
 2327TIP3    H228397   3.804   1.161  11.361  0.1952  0.6083  0.1463
 2328TIP3   OH228398   1.619   6.598  11.506 -0.6456 -0.7764  0.4457
 2328TIP3    H128399   1.618   6.630  11.416  0.9985  2.2068  1.3199
 2328TIP3    H228400   1.527   6.590  11.530 -1.1837  1.3545 -0.6453
 2329TIP3   OH228401   3.732   3.907   5.196 -0.0051 -0.2120 -0.0948
 2329TIP3    H128402   3.758   3.945   5.112  0.9598 -1.2556 -0.2844
 2329TIP3    H228403   3.638   3.890   5.187 -0.1126  0.5815 -0.5895
 2330TIP3   OH228404   2.155   5.180  15.865 -0.2373  0.1849 -0.0406
 2330TIP3    H128405   2.197   5.154  15.947 -0.4510 -0.5828 -0.1658
 2330TIP3    H228406   2.081   5.120  15.856  0.5604 -0.6217 -1.4721
 2331TIP3   OH228407   2.771   3.507  13.701  0.1722  0.3447 -0.1860
 2331TIP3    H128408   2.764   3.547  13.788 -3.2683 -0.1204 -0.1160
 2331TIP3    H228409   2.741   3.417  13.715  0.6350 -0.0573 -1.6810
 2332TIP3   OH228410   5.722   0.968   3.002  0.5914  0.6075  0.0963
 2332TIP3    H128411   5.655   1.015   3.051  1.3398  0.9121  0.8485
 2332TIP3    H228412   5.741   1.023   2.927 -0.8311 -0.0350 -0.7671
 2333TIP3   OH228413   2.516   5.583  12.334 -0.0546 -0.1754 -0.1290
 2333TIP3    H128414   2.448   5.515  12.342  0.4617 -0.5936  0.8909
 2333TIP3    H228415   2.494   5.629  12.254 -0.1270 -1.8938 -1.1518
 2334TIP3   OH228416   3.928   4.556   0.414  0.1663  0.2080 -0.0884
 2334TIP3    H128417   3.994   4.516   0.358 -0.0385  0.5767 -0.6026
 2334TIP3    H228418   3.847   4.553   0.362  0.2530  1.7268 -0.3478
 2335TIP3   OH228419   6.129   5.649  10.886 -0.0841 -0.4626  0.1581
 2335TIP3    H128420   6.103   5.677  10.799 -1.8960 -1.2264  0.4114
 2335TIP3    H228421   6.091   5.562  10.896  0.5299 -0.6017  1.5193
 2336TIP3   OH228422   1.927   5.915  12.049  0.3280 -0.0552  0.1259
 2336TIP3    H128423   2.001   5.856  12.037  1.2814  1.0061  0.5905
 2336TIP3    H228424   1.963   5.988  12.099 -1.3173 -0.0879  1.4574
 2337TIP3   OH228425   4.244   5.808   6.811  0.1429  0.2066  0.4159
 2337TIP3    H128426   4.286   5.730   6.846 -0.4701  0.3896  1.6026
 2337TIP3    H228427   4.153   5.802   6.840 -0.2793  0.6165 -0.7547
 2338TIP3   OH228428   6.420   4.544  16.889 -0.3679 -0.5910  0.5984
 2338TIP3    H128429   6.404   4.586  16.973 -2.4587  2.2857 -1.0366
 2338TIP3    H228430   6.379   4.457  16.897 -1.7521  0.1541  2.1333
 2339TIP3   OH228431   5.216   0.479  15.889 -0.3029 -0.4880 -0.0351
 2339TIP3    H128432   5.259   0.530  15.958  1.2057  1.1810 -2.0523
 2339TIP3    H228433   5.124   0.474  15.916  0.2252  0.1083  2.0542
 2340TIP3   OH228434   2.128   6.120   5.388  0.5538  0.4681  0.0160
 2340TIP3    H128435   2.071   6.122   5.310 -0.3008  2.3095  0.6328
 2340TIP3    H228436   2.177   6.038   5.379 -0.6095 -0.1137 -1.6802
 2341TIP3   OH228437   3.306   4.281  14.687 -0.1679 -0.9485 -0.2192
 2341TIP3    H128438   3.294   4.290  14.592 -2.8558 -0.0698  0.1356
 2341TIP3    H228439   3.384   4.334  14.706  0.5754 -1.3466 -1.9209
 2342TIP3   OH228440   2.921   6.462   4.951  0.4720 -0.4813 -0.0978
 2342TIP3    H128441   2.970   6.423   4.879 -1.1362 -0.8175 -1.0554
 2342TIP3    H228442   2.955   6.551   4.959  0.8469 -0.5278 -1.0992
 2343TIP3   OH228443   3.412   2.998   1.054  0.7799 -0.4852  0.4015
 2343TIP3    H128444   3.485   3.016   0.994  0.1352  1.6444  0.1823
 2343TIP3    H228445   3.429   2.909   1.085  3.5217 -0.0369  0.4584
 2344TIP3   OH228446   5.740   4.137  16.226  0.3716  0.4909  0.4014
 2344TIP3    H128447   5.702   4.102  16.146  0.7392  2.0959 -0.5302
 2344TIP3    H228448   5.814   4.080  16.246  0.9114  0.6588 -1.0135
 2345TIP3   OH228449   3.081   5.129   4.332 -0.3018  0.1761 -0.4108
 2345TIP3    H128450   3.078   5.194   4.262 -1.7074 -0.2794 -0.7963
 2345TIP3    H228451   3.025   5.165   4.401 -0.9204 -0.5336 -0.5397
 2346TIP3   OH228452   0.355   5.752  13.572 -0.3065 -0.3297 -1.0541
 2346TIP3    H128453   0.336   5.810  13.499  0.1745 -0.4791 -1.2994
 2346TIP3    H228454   0.446   5.727  13.560  0.0697  0.4093  0.1210
 2347TIP3   OH228455   2.219   1.316   5.068 -0.0761  0.4470  0.6093
 2347TIP3    H128456   2.224   1.394   5.124 -2.3515  2.3025 -1.5557
 2347TIP3    H228457   2.191   1.246   5.127  0.4335  1.6011  2.3016
 2348TIP3   OH228458   4.627   3.578  12.976 -0.0282 -0.6211 -0.2506
 2348TIP3    H128459   4.573   3.499  12.981 -1.3155  0.2778  0.3996
 2348TIP3    H228460   4.636   3.595  12.882 -1.8801 -0.1326 -0.3707
 2349TIP3   OH228461   4.517   0.650   4.525 -0.7268 -0.4555  0.3579
 2349TIP3    H128462   4.507   0.611   4.439  2.2622 -1.6794  0.4624
 2349TIP3    H228463   4.452   0.606   4.580 -1.3822 -0.9978 -0.8302
 2350TIP3   OH228464   4.176   0.726   2.768 -0.2080  0.2569 -0.6241
 2350TIP3    H128465   4.162   0.808   2.815 -0.8382  0.2401 -0.7722
 2350TIP3    H228466   4.123   0.735   2.689 -2.0982 -1.1743  0.4009
 2351TIP3   OH228467   4.796   5.263   5.362 -0.4349 -0.2978 -0.4976
 2351TIP3    H128468   4.804   5.358   5.356 -0.6741 -0.0975  1.7806
 2351TIP3    H228469   4.885   5.231   5.344 -0.2163  0.3932 -0.6746
 2352TIP3   OH228470   4.218   3.005  11.590 -0.0544 -0.1822 -0.1591
 2352TIP3    H128471   4.142   3.057  11.564  0.2225  1.0186  1.3402
 2352TIP3    H228472   4.288   3.035  11.531  0.3061  1.7868  1.1578
 2353TIP3   OH228473   3.388   5.975   2.593 -0.6828 -0.0381 -0.0433
 2353TIP3    H128474   3.320   5.908   2.602  0.4826 -1.1349  1.1921
 2353TIP3    H228475   3.344   6.049   2.552 -1.9436 -1.6922 -1.8999
 2354TIP3   OH228476   4.782   1.022  12.807  0.3351  0.4024  0.3091
 2354TIP3    H128477   4.873   1.051  12.802  0.2927  0.4208 -0.5271
 2354TIP3    H228478   4.782   0.937  12.763 -0.0298  0.3388  0.4266
 2355TIP3   OH228479   0.446   4.435   4.406 -0.2863 -0.2331 -0.2779
 2355TIP3    H128480   0.401   4.428   4.322  2.0568 -0.3484 -1.5987
 2355TIP3    H228481   0.464   4.345   4.432  0.8464 -0.1575 -0.7462
 2356TIP3   OH228482   3.030   5.365   0.788  0.1055 -0.3321 -0.1080
 2356TIP3    H128483   3.040   5.324   0.875 -0.7121  0.9864  0.6355
 2356TIP3    H228484   2.962   5.431   0.801 -1.2320 -1.2203 -2.1637
 2357TIP3   OH228485   5.133   3.216   0.791 -0.3322 -0.4124  0.2669
 2357TIP3    H128486   5.180   3.277   0.734 -0.8323  0.9241  1.2418
 2357TIP3    H228487   5.202   3.177   0.846 -0.1349  0.0895  0.3785
 2358TIP3   OH228488   4.636   0.352  12.552 -0.1858  0.0281 -0.5315
 2358TIP3    H128489   4.562   0.376  12.495  0.3198 -0.0537 -1.2299
 2358TIP3    H228490   4.633   0.416  12.623 -1.1655 -0.2101 -0.3415
 2359TIP3   OH228491   0.951   2.375  15.227 -0.2181  0.2099 -0.3914
 2359TIP3    H128492   0.920   2.426  15.152  0.4981  1.2224 -0.0125
 2359TIP3    H228493   1.046   2.377  15.221 -0.1644 -0.7825 -0.1526
 2360TIP3   OH228494   4.588   0.282   6.687 -0.0425 -0.4278  0.0463
 2360TIP3    H128495   4.660   0.219   6.696 -0.9140 -1.4477  0.1394
 2360TIP3    H228496   4.568   0.308   6.777 -0.1418 -0.5697  0.0666
 2361TIP3   OH228497   0.444   5.060  11.584  0.3565  0.1154 -0.3910
 2361TIP3    H128498   0.424   4.987  11.526  0.1172  0.7076 -1.0709
 2361TIP3    H228499   0.414   5.138  11.536  0.8388  0.6802  0.2066
 2362TIP3   OH228500   0.251   3.345   5.060  0.5463 -0.0182 -0.3822
 2362TIP3    H128501   0.309   3.414   5.091 -0.7736  1.7579 -1.6473
 2362TIP3    H228502   0.168   3.359   5.106 -0.3196  0.4717 -1.9750
 2363TIP3   OH228503   4.878   5.319  11.061 -0.4926  0.7497  0.1647
 2363TIP3    H128504   4.888   5.272  11.144  0.1599  0.6942  0.0565
 2363TIP3    H228505   4.859   5.250  10.997  1.9188  0.4150 -0.2703
 2364TIP3   OH228506   1.607   3.695   4.578  0.0252  0.0038  0.5082
 2364TIP3    H128507   1.549   3.771   4.572  1.5985  1.2263 -0.1377
 2364TIP3    H228508   1.597   3.650   4.494 -0.3884 -0.0998  0.6131
 2365TIP3   OH228509   3.158   6.634   3.182 -0.3196 -0.2392 -0.1807
 2365TIP3    H128510   3.212   6.712   3.180  0.3357 -0.7025 -1.9304
 2365TIP3    H228511   3.071   6.663   3.154 -0.5864  0.1979  1.0536
 2366TIP3   OH228512   0.201   1.458  15.864 -0.3182  0.3378 -0.2595
 2366TIP3    H128513   0.255   1.529  15.829 -0.0193  0.3606  0.2469
 2366TIP3    H228514   0.263   1.391  15.892 -0.4321  1.0255  1.8021
 2367TIP3   OH228515   6.399   1.872   0.710 -0.2962 -0.7603 -0.0274
 2367TIP3    H128516   6.408   1.804   0.643 -0.7144 -0.2388 -0.6282
 2367TIP3    H228517   6.307   1.868   0.736 -0.7941  0.7399 -1.3714
 2368TIP3   OH228518   1.343   3.387   3.377 -0.2424 -0.1960  0.1131
 2368TIP3    H128519   1.406   3.412   3.444 -0.7759 -0.3596  0.6864
 2368TIP3    H228520   1.294   3.468   3.360 -0.0612 -0.1369 -0.1361
 2369TIP3   OH228521   0.398   4.347   3.268 -0.3117 -0.0773 -0.2834
 2369TIP3    H128522   0.475   4.385   3.227 -0.0476 -0.5995 -0.2723
 2369TIP3    H228523   0.338   4.329   3.195 -0.3405  0.1383 -0.3125
 2370TIP3   OH228524   3.078   4.013   2.523  0.3576  0.2587 -0.3234
 2370TIP3    H128525   3.093   3.924   2.490 -3.8358 -1.3710  1.4314
 2370TIP3    H228526   3.001   4.044   2.475  0.9159  2.4485  0.0825
 2371TIP3   OH228527   1.485   3.801  12.145  0.4533  0.3299  0.8067
 2371TIP3    H128528   1.414   3.858  12.116  1.4753  1.5790  0.6689
 2371TIP3    H228529   1.442   3.733  12.197 -1.5185 -2.0436 -3.4649
 2372TIP3   OH228530   4.680   5.887  15.203 -0.0644 -0.1165  0.1502
 2372TIP3    H128531   4.602   5.854  15.249 -0.0637 -1.1537 -0.5459
 2372TIP3    H228532   4.749   5.825  15.227  0.6912  1.0578  1.1323
 2373TIP3   OH228533   1.241   6.332  12.273 -0.4742  0.0381 -0.2211
 2373TIP3    H128534   1.231   6.331  12.368 -0.1428  0.5000 -0.1774
 2373TIP3    H228535   1.317   6.276  12.256 -1.1958 -0.9346 -0.3079
 2374TIP3   OH228536   4.419   3.911   4.858  0.1647  0.5853  0.5118
 2374TIP3    H128537   4.364   3.965   4.914  0.0625  2.0155 -0.8712
 2374TIP3    H228538   4.365   3.834   4.839 -0.3358  0.7420  1.2370
 2375TIP3   OH228539   5.197   2.473   5.695  0.0405  0.7036  0.0776
 2375TIP3    H128540   5.109   2.437   5.683  1.0538 -2.2670  0.7002
 2375TIP3    H228541   5.195   2.514   5.781 -0.7606  0.8132  0.0145
 2376TIP3   OH228542   4.786   4.725  16.588 -0.1020 -0.1974  0.6773
 2376TIP3    H128543   4.870   4.679  16.591  0.0258 -0.4670 -2.7606
 2376TIP3    H228544   4.736   4.691  16.662  1.4595 -2.8473  0.6215
 2377TIP3   OH228545   0.666   1.189  10.553  0.3520 -0.3840 -0.5074
 2377TIP3    H128546   0.607   1.238  10.495  0.9193  1.7422  0.6149
 2377TIP3    H228547   0.620   1.185  10.636  0.9437 -0.4410 -0.1771
 2378TIP3   OH228548   5.480   0.774  16.567  0.3821  0.1564 -0.2206
 2378TIP3    H128549   5.497   0.800  16.477  0.0227  2.0993  0.2227
 2378TIP3    H228550   5.552   0.812  16.617 -0.0003  0.0405  0.4305
 2379TIP3   OH228551   4.092   4.318  16.898 -0.3926  0.4782 -0.2829
 2379TIP3    H128552   4.173   4.359  16.867  0.1534 -0.6457 -0.3985
 2379TIP3    H228553   4.022   4.366  16.855  0.1763  1.8945  0.3161
 2380TIP3   OH228554   2.170   4.945   2.261  0.2579 -0.4632  0.3867
 2380TIP3    H128555   2.257   4.961   2.297  0.5775 -2.2971  0.5522
 2380TIP3    H228556   2.112   4.939   2.337 -0.3090  1.9542  0.2355
 2381TIP3   OH228557   4.130   3.841  12.076  0.1643  0.3238 -0.5722
 2381TIP3    H128558   4.164   3.766  12.027 -0.2713  1.0709 -2.0891
 2381TIP3    H228559   4.161   3.917  12.028  0.0807  1.1109  0.5903
 2382TIP3   OH228560   4.925   3.527   6.087 -0.0940  0.0124 -0.1310
 2382TIP3    H128561   4.960   3.480   6.164 -1.0890 -1.8388 -0.7519
 2382TIP3    H228562   5.002   3.547   6.035  0.4370 -0.2264  0.5406
 2383TIP3   OH228563   1.362   4.081   2.206  0.5958  0.1598  0.4011
 2383TIP3    H128564   1.301   4.017   2.243 -1.1834  0.1165 -2.3067
 2383TIP3    H228565   1.383   4.047   2.119  2.2362  1.6681  0.1365
 2384TIP3   OH228566   6.092   6.689  11.526  0.4363 -0.0876  0.0404
 2384TIP3    H128567   6.000   6.672  11.509  0.5199 -1.2356  0.6682
 2384TIP3    H228568   6.103   6.674  11.620  1.1843  0.4528  0.0546
 2385TIP3   OH228569   5.364   3.460  14.159  0.5929 -0.4926  0.2617
 2385TIP3    H128570   5.309   3.431  14.231 -1.4003 -1.1569 -1.4399
 2385TIP3    H228571   5.450   3.476  14.200  0.7920 -4.8364  2.0921
 2386TIP3   OH228572   3.522   3.874  11.054  0.4250 -0.1771 -0.3045
 2386TIP3    H128573   3.435   3.899  11.024  1.4078  2.7985 -1.0265
 2386TIP3    H228574   3.556   3.818  10.984 -0.2376  0.1828 -0.9283
 2387TIP3   OH228575   4.890   0.327   4.987  0.0344  0.2729 -0.1093
 2387TIP3    H128576   4.937   0.392   5.039  2.2425 -2.7121  1.9280
 2387TIP3    H228577   4.818   0.299   5.043  2.4944 -3.0465  1.7608
 2388TIP3   OH228578   3.913   3.610   1.470 -0.1158  0.4276 -0.2287
 2388TIP3    H128579   3.986   3.563   1.510 -0.4811 -0.7178 -0.8626
 2388TIP3    H228580   3.953   3.668   1.405  0.2173 -0.5051 -0.8770
 2389TIP3   OH228581   6.151   5.251   2.098  0.5813 -0.7484  0.2038
 2389TIP3    H128582   6.246   5.245   2.091  0.8112  2.1877 -1.2606
 2389TIP3    H228583   6.121   5.257   2.007 -0.7798  0.2470  0.6791
 2390TIP3   OH228584   4.712   2.880  15.067 -0.1410  0.7851  0.0264
 2390TIP3    H128585   4.744   2.933  15.140 -0.1862 -1.6733  2.0026
 2390TIP3    H228586   4.646   2.934  15.024  0.0177  2.4079  1.7287
 2391TIP3   OH228587   0.962   0.829  11.122 -0.5552  0.1058 -0.6520
 2391TIP3    H128588   1.042   0.882  11.126 -0.7218  0.3193  0.2789
 2391TIP3    H228589   0.936   0.829  11.030  2.3525 -2.7359 -1.6633
 2392TIP3   OH228590   0.374   0.809  14.661 -0.3982  0.3507 -0.5642
 2392TIP3    H128591   0.466   0.790  14.642 -0.5266 -0.7732 -0.1262
 2392TIP3    H228592   0.329   0.792  14.579  0.0295  2.9887 -1.4227
 2393TIP3   OH228593   0.714   1.461  15.493 -0.6015  0.3668 -0.2926
 2393TIP3    H128594   0.740   1.526  15.427  2.5621  0.1512  0.6204
 2393TIP3    H228595   0.659   1.511  15.554 -2.4697  0.8830 -2.2317
 2394TIP3   OH228596   3.061   2.482  13.183  0.0553 -0.3766  0.5600
 2394TIP3    H128597   3.014   2.565  13.188 -0.4452 -0.6922  1.5571
 2394TIP3    H228598   3.146   2.504  13.145 -1.6449 -0.1417 -3.6146
 2395TIP3   OH228599   0.383   4.590   2.705 -0.2525  0.3115  0.4825
 2395TIP3    H128600   0.312   4.606   2.768 -0.0493 -0.0349  0.8011
 2395TIP3    H228601   0.462   4.586   2.759  0.0354  0.8408  0.1130
 2396TIP3   OH228602   6.310   3.798  12.662  0.1837  0.4708 -0.4097
 2396TIP3    H128603   6.290   3.709  12.632  1.1915 -0.5715  1.7588
 2396TIP3    H228604   6.389   3.823  12.614  1.0429 -0.6500  0.3509
 2397TIP3   OH228605   1.684   5.626   4.154  0.0551 -0.6342 -0.7853
 2397TIP3    H128606   1.618   5.565   4.121  1.4187 -1.7281 -1.5893
 2397TIP3    H228607   1.726   5.579   4.225  0.3109 -0.1327 -0.5987
 2398TIP3   OH228608   5.543   4.916  14.720 -0.2062  0.3686  0.1936
 2398TIP3    H128609   5.626   4.913  14.673  0.3374  1.1534  1.0569
 2398TIP3    H228610   5.510   5.005  14.705  0.5622  1.0516  2.1944
 2399TIP3   OH228611   4.751   4.011  14.143 -0.2377 -0.3329 -0.2320
 2399TIP3    H128612   4.744   3.966  14.227 -0.0305  0.4401  0.2121
 2399TIP3    H228613   4.671   3.987  14.096 -0.6194 -0.3338  0.4045
 2400TIP3   OH228614   1.627   4.651   3.378 -0.3431 -0.6040  0.0922
 2400TIP3    H128615   1.683   4.699   3.317 -0.6479 -0.7937 -0.3405
 2400TIP3    H228616   1.578   4.719   3.424 -1.6827 -0.5276 -1.3905
 2401TIP3   OH228617   2.920   6.282  14.087  0.5264  0.4004  0.0354
 2401TIP3    H128618   2.924   6.364  14.137 -1.6375  0.7167 -0.2104
 2401TIP3    H228619   2.928   6.310  13.996  2.2445  0.0470  0.0456
 2402TIP3   OH228620   4.064   3.603  16.784 -0.8612  0.0972  0.5232
 2402TIP3    H128621   3.972   3.628  16.771 -0.7362  0.4582  0.3219
 2402TIP3    H228622   4.076   3.604  16.878 -0.4373  2.3872  0.5000
 2403TIP3   OH228623   5.691   5.435  12.391 -0.2872  0.1989  0.2944
 2403TIP3    H128624   5.608   5.397  12.419 -0.0041 -1.0259 -0.4742
 2403TIP3    H228625   5.743   5.361  12.362  0.6194  1.0873 -0.4198
 2404TIP3   OH228626   5.023   4.502   1.826 -0.0910 -0.0416  0.3381
 2404TIP3    H128627   5.090   4.568   1.843 -0.4897  0.7410 -1.0134
 2404TIP3    H228628   5.063   4.419   1.855  1.1086  0.5327  0.3718
 2405TIP3   OH228629   5.147   0.351   3.877 -0.2800 -0.4558 -0.2195
 2405TIP3    H128630   5.196   0.317   3.802 -1.6270  4.0353 -3.6023
 2405TIP3    H228631   5.073   0.292   3.887  1.1088 -2.4083 -0.8122
 2406TIP3   OH228632   4.925   2.529  11.676  0.0813 -0.1132  0.1487
 2406TIP3    H128633   4.972   2.497  11.753 -0.7596 -0.2108  0.6365
 2406TIP3    H228634   4.994   2.550  11.613  0.8330  0.6658  1.1864
 2407TIP3   OH228635   2.785   4.350  13.354 -0.7809 -0.2819 -0.3208
 2407TIP3    H128636   2.699   4.389  13.343  0.1424  1.1801 -3.5345
 2407TIP3    H228637   2.840   4.395  13.290  2.3147 -1.3996  1.3339
 2408TIP3   OH228638   3.963   3.081  16.897  0.8398  0.3327  0.2174
 2408TIP3    H128639   3.971   3.161  16.948 -1.7306  0.0965  1.1449
 2408TIP3    H228640   3.954   3.111  16.807 -3.1632  1.4710  0.8095
 2409TIP3   OH228641   2.524   0.591  13.997 -0.0646  0.3136  0.5539
 2409TIP3    H128642   2.551   0.509  14.038 -0.7902  0.6102  1.6836
 2409TIP3    H228643   2.514   0.652  14.070 -0.0110  1.2790 -0.2217
 2410TIP3   OH228644   0.186   3.432   0.210 -0.4852 -0.4711  0.3135
 2410TIP3    H128645   0.199   3.525   0.229 -1.7093  0.2308 -1.9221
 2410TIP3    H228646   0.211   3.422   0.118 -1.4556 -2.0949  0.1814
 2411TIP3   OH228647   6.179   4.388  16.951  0.2767  0.0107 -0.0653
 2411TIP3    H128648   6.175   4.420  17.041  0.3737 -0.5207  0.1324
 2411TIP3    H228649   6.177   4.293  16.959 -0.9560 -0.0380 -0.6903
 2412TIP3   OH228650   5.801   6.027   2.665  0.3247  0.7785  0.6833
 2412TIP3    H128651   5.730   6.065   2.614  0.2800  2.0462  1.6630
 2412TIP3    H228652   5.774   5.936   2.679  0.5487  0.2259 -1.9057
 2413TIP3   OH228653   2.959   4.316   5.644  0.0955  0.1869 -0.1690
 2413TIP3    H128654   3.049   4.291   5.668 -0.4634 -2.2400 -0.3171
 2413TIP3    H228655   2.970   4.384   5.578  1.7624  1.6518  1.4894
 2414TIP3   OH228656   5.393   0.104   3.860 -0.0367 -0.1649 -0.3188
 2414TIP3    H128657   5.394   0.143   3.947 -0.1846 -0.9047  0.0201
 2414TIP3    H228658   5.485   0.099   3.834  0.0110  0.0072 -0.1833
 2415TIP3   OH228659   5.620   3.651  15.195  0.1543  0.1786 -0.2196
 2415TIP3    H128660   5.634   3.738  15.233 -0.4869 -0.0993  0.6974
 2415TIP3    H228661   5.534   3.656  15.154  0.9474  0.5485 -1.9137
 2416TIP3   OH228662   5.144   1.567   3.363  0.0440  0.0528  0.0187
 2416TIP3    H128663   5.192   1.618   3.297 -0.5345  0.2661 -0.2474
 2416TIP3    H228664   5.155   1.616   3.444  0.0727  0.2288 -0.0911
 2417TIP3   OH228665   6.548   5.699   5.361  0.4624 -0.3309  0.1503
 2417TIP3    H128666   6.624   5.742   5.321 -0.0734  0.9323  0.4376
 2417TIP3    H228667   6.552   5.609   5.329  0.6981  0.3360 -1.8455
 2418TIP3   OH228668   2.440   2.352   1.423  0.0356 -0.6574  0.9094
 2418TIP3    H128669   2.431   2.256   1.420 -0.3170 -0.6340  1.1941
 2418TIP3    H228670   2.357   2.384   1.388  0.1851 -0.4524  0.7379
 2419TIP3   OH228671   5.144   5.099  13.168 -0.6973 -0.2298 -0.2579
 2419TIP3    H128672   5.112   5.085  13.079 -2.6304 -2.2466  0.6745
 2419TIP3    H228673   5.076   5.063  13.224  1.4002 -0.9223  2.0017
 2420TIP3   OH228674   6.002   2.885  11.837 -0.3227 -0.3848 -0.2209
 2420TIP3    H128675   5.957   2.815  11.789  1.0791 -1.0649 -0.5833
 2420TIP3    H228676   6.018   2.952  11.771  0.8885 -0.9765 -0.5552
 2421TIP3   OH228677   5.864   5.794  12.581 -0.4361 -1.0858 -0.1913
 2421TIP3    H128678   5.861   5.884  12.550  0.5515 -0.7743  0.5801
 2421TIP3    H228679   5.931   5.751  12.528  0.3748 -0.8768  0.6380
 2422TIP3   OH228680   5.478   3.003   1.861 -0.1804  0.4846  0.3895
 2422TIP3    H128681   5.383   3.010   1.854 -0.0505  1.3534 -0.8075
 2422TIP3    H228682   5.504   2.960   1.779  0.4983  0.7398  0.4679
 2423TIP3   OH228683   2.781   4.093  16.583 -0.5313 -0.1233  0.2454
 2423TIP3    H128684   2.868   4.071  16.618  0.3105 -0.3735 -1.8483
 2423TIP3    H228685   2.735   4.010  16.580 -0.5616 -0.1218  0.6141
 2424TIP3   OH228686   5.131   1.770   2.579  0.5629 -0.6783  0.2042
 2424TIP3    H128687   5.127   1.788   2.673  1.3189 -1.0892  0.3183
 2424TIP3    H228688   5.139   1.675   2.573 -0.8294 -0.7822 -0.3241
 2425TIP3   OH228689   4.627   2.487  11.484 -0.2569 -0.4330  0.2099
 2425TIP3    H128690   4.588   2.559  11.535 -1.1832 -0.1676 -0.8315
 2425TIP3    H228691   4.693   2.529  11.429  0.3444 -0.6336  0.7719
 2426TIP3   OH228692   6.061   3.027  11.605  0.7070  0.4589 -0.0306
 2426TIP3    H128693   6.053   3.024  11.509  1.1217 -0.9078 -0.0370
 2426TIP3    H228694   6.110   3.108  11.621  0.5519  0.7609 -0.9588
 2427TIP3   OH228695   0.599   1.197  12.542 -0.6814 -0.1563 -0.1765
 2427TIP3    H128696   0.541   1.124  12.564  0.2362 -1.3972 -1.6216
 2427TIP3    H228697   0.662   1.200  12.615 -2.6006  1.3652  1.5303
 2428TIP3   OH228698   6.308   0.034   5.165 -0.0869 -0.4323  0.6417
 2428TIP3    H128699   6.242  -0.034   5.175  1.0670 -1.6852  0.0736
 2428TIP3    H228700   6.285   0.101   5.229 -2.7384 -0.1197 -0.5168
 2429TIP3   OH228701   5.834   0.528   6.611  0.2424  0.0649  0.1209
 2429TIP3    H128702   5.841   0.614   6.652 -0.4679  0.6830 -0.9793
 2429TIP3    H228703   5.887   0.536   6.531  1.0568 -0.8835  0.5460
 2430TIP3   OH228704   4.802   2.698   4.945 -0.3717  0.1051 -0.4490
 2430TIP3    H128705   4.895   2.715   4.936 -0.5090  0.2179 -1.8996
 2430TIP3    H228706   4.797   2.619   5.000  0.6120 -0.3568 -1.0051
 2431TIP3   OH228707   3.207   2.825   2.739 -0.6235 -0.8375  0.1214
 2431TIP3    H128708   3.232   2.894   2.800  2.0156 -2.5672  1.2110
 2431TIP3    H228709   3.112   2.827   2.738 -0.6711  2.5483  0.3138
 2432TIP3   OH228710   3.876   6.686  13.220 -0.6284 -0.3073  0.1685
 2432TIP3    H128711   3.841   6.737  13.293 -0.4910 -1.1929  0.8788
 2432TIP3    H228712   3.923   6.614  13.262  1.4789  0.4499 -0.7560
 2433TIP3   OH228713   5.650   3.810   6.107  0.2389  0.3204 -0.8285
 2433TIP3    H128714   5.599   3.766   6.175 -0.9455 -0.3813 -2.1119
 2433TIP3    H228715   5.589   3.872   6.067  1.5647  2.3790  0.1879
 2434TIP3   OH228716   3.727   1.968  16.463 -0.0624  0.0830  0.1046
 2434TIP3    H128717   3.701   2.053  16.426  0.1933  0.8917  1.6949
 2434TIP3    H228718   3.648   1.914  16.457  0.4594 -0.5146 -3.3138
 2435TIP3   OH228719   6.731   1.077  16.954 -0.0659 -0.2561 -0.6936
 2435TIP3    H128720   6.804   1.100  16.895  0.6009 -0.4602  0.0318
 2435TIP3    H228721   6.663   1.141  16.934  0.8635  0.8605 -0.3734
 2436TIP3   OH228722   1.641   1.440   0.100 -0.0271 -0.2325  0.1271
 2436TIP3    H128723   1.720   1.463   0.051  0.6322 -3.6185 -0.6364
 2436TIP3    H228724   1.628   1.347   0.084 -1.0446 -1.1365  4.6723
 2437TIP3   OH228725   1.331   3.105   4.305  0.2371  0.4117 -0.2161
 2437TIP3    H128726   1.420   3.113   4.271  0.8406  1.2232  1.4367
 2437TIP3    H228727   1.291   3.190   4.287  0.5059  0.7864  0.8793
 2438TIP3   OH228728   2.337   5.545   5.948  0.1943  0.2905  0.0075
 2438TIP3    H128729   2.425   5.582   5.957  0.1747  0.2483  0.3849
 2438TIP3    H228730   2.316   5.511   6.035 -0.5013  0.9641  0.1057
 2439TIP3   OH228731   4.733   5.912   6.283  0.3964  0.2860 -0.6931
 2439TIP3    H128732   4.640   5.922   6.262  0.1532 -1.1709 -0.4258
 2439TIP3    H228733   4.772   5.876   6.203  0.7660  1.0194 -0.8496
 2440TIP3   OH228734   3.983   1.328  14.428  0.3501  0.7773 -0.2440
 2440TIP3    H128735   3.929   1.282  14.492 -1.1282  0.9120 -1.3358
 2440TIP3    H228736   4.029   1.395  14.480 -0.8105  0.8936  0.6930
 2441TIP3   OH228737   2.048   2.584  14.717  0.2798 -0.0556  0.7597
 2441TIP3    H128738   1.963   2.541  14.707  1.2111 -1.8982  0.3862
 2441TIP3    H228739   2.085   2.585  14.629  0.8521  0.2739  0.9971
 2442TIP3   OH228740   4.081   5.928  15.923  0.7283  0.3367 -0.0504
 2442TIP3    H128741   4.054   5.868  15.992 -1.3942  1.5131  0.2071
 2442TIP3    H228742   4.037   6.011  15.943  1.4926  1.2393 -1.8200
 2443TIP3   OH228743   0.046   1.845   0.585  0.5051  0.1203  0.7967
 2443TIP3    H128744   0.133   1.845   0.544  0.3268  0.5144  0.4125
 2443TIP3    H228745   0.017   1.754   0.580 -0.6080  0.5263 -2.3379
 2444TIP3   OH228746   1.437   3.734   5.984 -0.7907 -0.8792 -0.1526
 2444TIP3    H128747   1.495   3.702   6.053 -1.7348  1.5696  1.9626
 2444TIP3    H228748   1.356   3.683   5.996 -1.7280  0.9787  2.1312
 2445TIP3   OH228749   3.010   4.832  11.436  0.0203 -0.2309  0.1926
 2445TIP3    H128750   2.919   4.859  11.450 -0.1889  0.7065 -2.4518
 2445TIP3    H228751   3.058   4.914  11.421  1.3195 -0.7239  1.3486
 2446TIP3   OH228752   1.012   1.532  17.190 -0.2300 -0.1775  0.5520
 2446TIP3    H128753   0.967   1.579  17.120 -0.3891 -1.5029 -0.2672
 2446TIP3    H228754   0.967   1.560  17.270 -0.1535  1.2300  0.1283
 2447TIP3   OH228755   2.082   3.647   2.821  0.3879 -0.3002 -0.3145
 2447TIP3    H128756   2.058   3.632   2.729  0.3560  1.7156 -0.6676
 2447TIP3    H228757   2.178   3.649   2.820  0.3780  0.2247 -0.3993
 2448TIP3   OH228758   1.545   1.002  13.462  0.3484  0.2738 -0.0980
 2448TIP3    H128759   1.561   0.932  13.525  0.4003  0.6047  0.2559
 2448TIP3    H228760   1.541   1.082  13.514  1.6209  0.7178 -0.6319
 2449TIP3   OH228761   1.051   2.870  13.272  0.0332  0.1673 -0.0814
 2449TIP3    H128762   1.093   2.942  13.225  0.1141  2.0484  2.6386
 2449TIP3    H228763   0.988   2.912  13.330 -2.3105 -2.2558 -0.6902
 2450TIP3   OH228764   3.078   1.685  13.134 -0.2205  0.0596 -0.2549
 2450TIP3    H128765   2.992   1.672  13.094  0.3883  1.0350 -2.0105
 2450TIP3    H228766   3.060   1.732  13.215 -1.2582  2.3637 -1.7105
 2451TIP3   OH228767   2.960   1.697   3.976 -0.6714  0.3859 -0.0092
 2451TIP3    H128768   2.890   1.731   3.920  0.3098  1.4649 -0.6178
 2451TIP3    H228769   2.984   1.613   3.936  0.5574  1.4936 -1.7553
 2452TIP3   OH228770   2.906   5.649  13.624 -0.3291 -0.2343 -0.1056
 2452TIP3    H128771   2.959   5.594  13.566 -0.5899 -0.3393 -0.2440
 2452TIP3    H228772   2.816   5.638  13.593 -0.3977  0.1927 -0.0724
 2453TIP3   OH228773   1.325   3.472   5.453 -0.1135  0.1376 -0.7069
 2453TIP3    H128774   1.296   3.498   5.366  0.9700  1.9745 -0.5557
 2453TIP3    H228775   1.251   3.491   5.510  0.0074  1.1847 -0.8857
 2454TIP3   OH228776   4.209   4.427   6.140  0.4980  0.7417 -0.1303
 2454TIP3    H128777   4.275   4.359   6.126  2.7296  2.5082  1.1878
 2454TIP3    H228778   4.247   4.506   6.100 -1.5037  1.5333 -0.6123
 2455TIP3   OH228779   3.848   1.984   2.200 -0.1986  1.0232  0.2124
 2455TIP3    H128780   3.822   2.070   2.166  0.2017  1.0461 -0.0389
 2455TIP3    H228781   3.849   1.927   2.123  0.1541  0.9403  0.2781
 2456TIP3   OH228782   3.563   5.631   2.457 -0.2381 -0.5188 -0.4904
 2456TIP3    H128783   3.644   5.658   2.500  1.3067 -4.0764 -0.8425
 2456TIP3    H228784   3.581   5.640   2.364 -0.8841  0.2076 -0.5562
 2457TIP3   OH228785   3.669   5.381   2.557 -0.6249 -0.3006 -0.0174
 2457TIP3    H128786   3.709   5.427   2.631  0.4284 -0.9442 -0.1694
 2457TIP3    H228787   3.602   5.441   2.525 -0.3488  0.4517  0.7662
 2458TIP3   OH228788   6.297   0.389  15.380 -0.2477 -0.2404  0.3765
 2458TIP3    H128789   6.388   0.378  15.407 -0.8013  0.4576  2.7257
 2458TIP3    H228790   6.302   0.396  15.284  2.4577  2.1789  0.5450
 2459TIP3   OH228791   1.513   4.152   3.015  0.0602 -0.5570 -0.0127
 2459TIP3    H128792   1.521   4.185   3.105 -0.0719 -1.1989  0.2416
 2459TIP3    H228793   1.430   4.104   3.015  0.3219 -1.0134 -0.3337
 2460TIP3   OH228794   3.624   4.627   2.704  0.1394  0.1591  0.0623
 2460TIP3    H128795   3.702   4.682   2.699  0.0159  0.2403 -1.5195
 2460TIP3    H228796   3.555   4.686   2.734 -0.0867  1.0407 -2.0044
 2461TIP3   OH228797   4.679   6.406   0.926  0.4672 -0.3099  0.2179
 2461TIP3    H128798   4.681   6.449   0.841 -1.5491 -0.0441  0.2660
 2461TIP3    H228799   4.596   6.359   0.927 -0.3629  1.0648  2.6762
 2462TIP3   OH228800   3.494   2.212  12.366  0.0115  0.0593 -0.0297
 2462TIP3    H128801   3.401   2.214  12.346  0.3359 -3.2142 -2.5813
 2462TIP3    H228802   3.504   2.139  12.427  0.9407  0.4096  0.2633
 2463TIP3   OH228803   4.610   2.688   6.043 -0.2806 -0.7163 -0.1442
 2463TIP3    H128804   4.565   2.622   5.991  0.2497 -0.5552 -0.8267
 2463TIP3    H228805   4.561   2.769   6.028  0.9088 -0.2425 -1.9256
 2464TIP3   OH228806   5.558   0.429   4.253  0.2574  0.6710  0.2818
 2464TIP3    H128807   5.512   0.503   4.293  0.2844  0.9756 -0.2407
 2464TIP3    H228808   5.639   0.466   4.219 -0.4185  0.7374 -1.3574
 2465TIP3   OH228809   2.601   3.700  15.250 -0.2462  0.4764 -0.2031
 2465TIP3    H128810   2.510   3.718  15.225 -0.2598  0.6946  0.0031
 2465TIP3    H228811   2.599   3.696  15.346 -0.5904 -2.3872 -0.2429
 2466TIP3   OH228812   0.626   1.838  14.676 -0.1308 -0.0191 -0.2403
 2466TIP3    H128813   0.720   1.850  14.670 -0.1633 -0.3089 -1.6723
 2466TIP3    H228814   0.592   1.924  14.699  0.4846  0.0479  0.4599
 2467TIP3   OH228815   6.471   6.304   4.996 -0.0405  0.6182  0.4551
 2467TIP3    H128816   6.567   6.306   5.002 -0.0465 -1.0246  1.5604
 2467TIP3    H228817   6.443   6.386   5.036  0.8903  1.2751 -0.1749
 2468TIP3   OH228818   4.145   1.471   3.342  1.0353 -0.1038  0.5615
 2468TIP3    H128819   4.211   1.452   3.409  2.7233  0.6277 -0.8222
 2468TIP3    H228820   4.195   1.508   3.269 -1.0291  1.4477 -0.1567
 2469TIP3   OH228821   5.888   4.046   1.587  0.0042  0.4177  0.2575
 2469TIP3    H128822   5.960   4.028   1.648 -0.4194 -1.8934  0.1468
 2469TIP3    H228823   5.927   4.101   1.519  1.2362  0.5551  1.0466
 2470TIP3   OH228824   1.965   3.834  15.332 -0.2935  0.2636 -0.6660
 2470TIP3    H128825   1.887   3.875  15.370 -0.9112 -0.3417 -1.2504
 2470TIP3    H228826   2.025   3.908  15.316 -0.4482  0.6485  0.4427
 2471TIP3   OH228827   0.326   4.162  14.926  0.2688  0.1338 -1.1047
 2471TIP3    H128828   0.356   4.251  14.909  2.5592 -0.3677 -0.1718
 2471TIP3    H228829   0.368   4.138  15.009  0.4835 -2.0915 -1.7744
 2472TIP3   OH228830   0.587   5.694  16.215  0.3211 -0.0318  0.4181
 2472TIP3    H128831   0.607   5.659  16.302 -0.1268 -1.3920 -0.0114
 2472TIP3    H228832   0.492   5.705  16.215  0.3424  0.1614  0.1586
 2473TIP3   OH228833   6.388   3.930  13.956 -0.1551 -0.1540  0.1390
 2473TIP3    H128834   6.434   3.851  13.928 -2.2873 -1.6445  0.5263
 2473TIP3    H228835   6.452   4.000  13.948  1.9123 -1.9588  0.0337
 2474TIP3   OH228836   5.943   2.490  15.542 -0.1094 -0.1003 -0.2315
 2474TIP3    H128837   5.962   2.480  15.449  0.7386  0.5829 -0.1364
 2474TIP3    H228838   5.997   2.564  15.570 -1.0127  0.2534  0.6121
 2475TIP3   OH228839   3.903   0.948  16.219  0.2105 -0.1361  0.4498
 2475TIP3    H128840   3.982   0.935  16.166  0.7599  1.6183  0.7691
 2475TIP3    H228841   3.836   0.974  16.156 -0.2154 -1.8719  0.1427
 2476TIP3   OH228842   3.472   3.876   6.354  0.7622 -0.6376 -0.2366
 2476TIP3    H128843   3.481   3.883   6.449 -2.0999 -0.1897  0.1133
 2476TIP3    H228844   3.451   3.784   6.339 -0.6310 -0.3500 -0.1745
 2477TIP3   OH228845   4.272   3.072   4.639  0.1696  0.1235  0.0081
 2477TIP3    H128846   4.225   3.154   4.651 -1.8209 -1.0613  0.7877
 2477TIP3    H228847   4.254   3.047   4.549 -2.1613 -1.0987  0.7270
 2478TIP3   OH228848   0.857   1.688  10.833 -0.0058  0.6846  0.2126
 2478TIP3    H128849   0.837   1.706  10.741 -1.0710  1.5953  0.5882
 2478TIP3    H228850   0.946   1.652  10.832 -0.1848  0.2006 -1.2091
 2479TIP3   OH228851   4.861   5.353   5.657 -0.5331 -0.6093  0.0846
 2479TIP3    H128852   4.932   5.383   5.601 -0.6264  0.9221  0.7428
 2479TIP3    H228853   4.783   5.396   5.623 -0.6781 -0.1035  1.0273
 2480TIP3   OH228854   1.313   4.898   2.958  0.5098 -0.1296  0.0382
 2480TIP3    H128855   1.387   4.893   2.897  0.3281  1.2486 -0.3383
 2480TIP3    H228856   1.257   4.966   2.921 -0.2926 -0.2413  1.0192
 2481TIP3   OH228857   0.019   4.442  11.820  0.1554 -0.1336 -0.5383
 2481TIP3    H128858   0.013   4.346  11.817  0.9073 -0.2664  1.2184
 2481TIP3    H228859  -0.071   4.472  11.804 -1.0503 -1.3062  3.0325
 2482TIP3   OH228860   5.240   6.718   1.734  0.1333  0.3057 -0.4065
 2482TIP3    H128861   5.274   6.749   1.817 -0.3744  0.2811 -0.1874
 2482TIP3    H228862   5.211   6.628   1.751 -0.6911  0.5619 -0.4024
 2483TIP3   OH228863   6.421   3.517   0.978  0.1298  0.1881  0.3228
 2483TIP3    H128864   6.475   3.488   1.052  0.2347  1.0004  0.5766
 2483TIP3    H228865   6.455   3.469   0.903  0.0352 -0.6355  0.7961
 2484TIP3   OH228866   6.580   2.104  15.369 -0.3716  0.0833  0.3479
 2484TIP3    H128867   6.586   2.149  15.453  1.5405  1.9140 -0.6720
 2484TIP3    H228868   6.647   2.146  15.315  0.5871 -3.1228 -1.1677
 2485TIP3   OH228869   2.432   4.782  12.067  0.5180 -0.1713  0.3846
 2485TIP3    H128870   2.380   4.814  12.141 -0.1423 -0.7514  0.1784
 2485TIP3    H228871   2.368   4.743  12.008  1.1278 -0.3694 -0.1526
 2486TIP3   OH228872   0.588   0.195  13.197  0.1550  0.1264 -0.6093
 2486TIP3    H128873   0.591   0.199  13.293  0.1472  2.7506 -0.6320
 2486TIP3    H228874   0.680   0.198  13.170  0.1525 -0.4732 -0.6797
 2487TIP3   OH228875   5.901   1.738  15.625 -0.1034  0.1888  0.1978
 2487TIP3    H128876   5.987   1.734  15.583 -1.1202  0.0221 -2.0442
 2487TIP3    H228877   5.893   1.656  15.673  0.2800 -0.6641 -1.1324
 2488TIP3   OH228878   5.693   1.000  15.186 -0.0211 -0.0350  0.5446
 2488TIP3    H128879   5.675   0.936  15.117 -0.3909  0.4579  0.1653
 2488TIP3    H228880   5.632   1.072  15.167 -0.5764 -0.1696  1.7613
 2489TIP3   OH228881   2.435   2.558  16.615  0.4512 -0.4947  1.2090
 2489TIP3    H128882   2.523   2.573  16.650  0.5163 -0.6428  1.1079
 2489TIP3    H228883   2.425   2.622  16.544  0.5718 -0.6494  1.0530
 2490TIP3   OH228884   1.312   3.443   0.035  0.1162 -0.0340 -0.2050
 2490TIP3    H128885   1.233   3.438  -0.018  0.2597  2.2712 -0.7290
 2490TIP3    H228886   1.299   3.519   0.092  2.2035  0.8569 -0.8123
 2491TIP3   OH228887   2.949   1.215   3.845 -0.4278  0.2073  0.1353
 2491TIP3    H128888   2.993   1.191   3.764  1.3152 -0.3015  1.1726
 2491TIP3    H228889   2.870   1.261   3.817  0.4000  0.5281 -1.8255
 2492TIP3   OH228890   4.214   1.930  11.155 -0.2162  0.1123  0.6669
 2492TIP3    H128891   4.183   1.850  11.114  1.2719 -0.1089 -0.1053
 2492TIP3    H228892   4.179   2.001  11.101  0.2282 -0.1077  0.0880
 2493TIP3   OH228893   4.915   4.835  12.704 -0.0649 -0.4227 -0.5611
 2493TIP3    H128894   4.947   4.856  12.791  1.5325  1.1854 -1.4689
 2493TIP3    H228895   4.868   4.914  12.676  0.4216 -0.4869 -1.5820
 2494TIP3   OH228896   0.238   5.879  15.700 -0.1708  0.3674  0.2428
 2494TIP3    H128897   0.268   5.931  15.626  0.9171 -0.7653 -0.1554
 2494TIP3    H228898   0.317   5.859  15.749 -0.2047 -2.4152 -0.6321
 2495TIP3   OH228899   2.937   1.863   2.457 -0.2813 -0.5785 -0.3256
 2495TIP3    H128900   3.027   1.829   2.458 -0.5361 -1.2686  0.2181
 2495TIP3    H228901   2.890   1.803   2.399 -0.5390 -0.6338 -0.0617
 2496TIP3   OH228902   4.577   0.066  15.873 -0.5722 -0.1645 -0.5589
 2496TIP3    H128903   4.649   0.106  15.823  0.3621  1.4854  1.9228
 2496TIP3    H228904   4.579  -0.026  15.848  0.6524  0.3301 -2.5540
 2497TIP3   OH228905   6.732   0.887  15.479 -0.1094  0.1819  0.1887
 2497TIP3    H128906   6.670   0.954  15.509  0.0442 -0.1435  1.2747
 2497TIP3    H228907   6.777   0.927  15.405 -1.4776  0.4947 -0.5040
 2498TIP3   OH228908   0.792   2.121   0.731 -0.0328 -0.3300  0.1238
 2498TIP3    H128909   0.806   2.027   0.717  0.5086  0.0076 -1.9501
 2498TIP3    H228910   0.717   2.142   0.676  1.1485  0.8269 -1.0947
 2499TIP3   OH228911   4.887   3.823   6.502  0.0494 -0.1154 -0.6334
 2499TIP3    H128912   4.857   3.914   6.507  0.2111 -0.1128  1.8771
 2499TIP3    H228913   4.822   3.779   6.448 -0.9861  1.1594 -0.4739
 2500TIP3   OH228914   4.383   2.634  11.124 -0.0961 -0.1940  0.4592
 2500TIP3    H128915   4.358   2.542  11.137  0.5787 -0.5328 -0.5055
 2500TIP3    H228916   4.415   2.662  11.210 -3.4252  0.2114  1.7192
 2501TIP3   OH228917   4.810   2.381  15.864 -0.0070  0.3363  0.1210
 2501TIP3    H128918   4.859   2.448  15.818  1.8241  0.0687  1.5835
 2501TIP3    H228919   4.876   2.317  15.891 -1.2997 -0.5792  1.2410
 2502TIP3   OH228920   4.584   6.123  14.257  0.2598 -0.2162  0.3274
 2502TIP3    H128921   4.638   6.167  14.322  0.7821 -0.6880  0.2226
 2502TIP3    H228922   4.647   6.084  14.196 -0.1465 -1.8145  0.8868
 2503TIP3   OH228923   6.010   5.025  17.082  0.2342  0.5845  0.1706
 2503TIP3    H128924   5.963   4.973  17.147 -0.1442  1.7853  0.8769
 2503TIP3    H228925   5.962   5.107  17.077  1.6053  1.4109  0.0790
 2504TIP3   OH228926   4.018   1.130   3.809 -0.3111 -0.1257  0.3332
 2504TIP3    H128927   4.109   1.162   3.804 -0.3377  0.0452  0.9421
 2504TIP3    H228928   3.965   1.206   3.787 -0.3317 -0.0803  0.5471
 2505TIP3   OH228929   6.398   0.718   4.438 -0.0474  0.4280 -0.0194
 2505TIP3    H128930   6.369   0.705   4.347  0.3331  1.1780 -0.2604
 2505TIP3    H228931   6.321   0.752   4.483 -0.2697 -0.0510 -0.0297
 2506TIP3   OH228932   4.923   4.634  14.689 -0.0556 -0.5726 -0.2402
 2506TIP3    H128933   4.977   4.649  14.611 -0.9899 -0.7057 -0.9351
 2506TIP3    H228934   4.965   4.685  14.757  0.2816  0.2809 -1.0624
 2507TIP3   OH228935   4.285   1.426   2.109 -0.3634  0.1216 -0.4270
 2507TIP3    H128936   4.256   1.367   2.039 -0.1070  0.8892 -1.2096
 2507TIP3    H228937   4.374   1.450   2.084  0.1170 -0.4184  0.7370
 2508TIP3   OH228938   6.007   0.265  13.178  0.4675 -0.7163  0.2369
 2508TIP3    H128939   6.023   0.321  13.102  0.4698 -0.0135  0.7447
 2508TIP3    H228940   5.971   0.184  13.141 -0.2631 -0.0955 -0.4596
 2509TIP3   OH228941   3.951   0.383   6.176 -0.2345  0.2062 -0.4277
 2509TIP3    H128942   3.992   0.470   6.179 -0.7827  0.5210 -1.4583
 2509TIP3    H228943   4.024   0.322   6.168  0.2058  0.4950  1.0886
 2510TIP3   OH228944   3.577   0.673  12.518 -0.0884  0.2363  0.1687
 2510TIP3    H128945   3.550   0.614  12.588  1.1153  0.1409  0.5629
 2510TIP3    H228946   3.504   0.670  12.456 -0.5949 -0.6873  0.7747
 2511TIP3   OH228947   2.682   5.034   1.910 -0.2158  0.0243 -0.1645
 2511TIP3    H128948   2.706   5.121   1.942 -1.1193  0.4111 -0.5231
 2511TIP3    H228949   2.587   5.037   1.899 -0.1890 -0.8163 -0.7531
 2512TIP3   OH228950   1.708   3.560  14.971  0.0487  0.1327  0.6099
 2512TIP3    H128951   1.780   3.517  15.016  0.6556  0.8049  0.2918
 2512TIP3    H228952   1.665   3.489  14.923  1.3136 -0.0738 -0.2704
 2513TIP3   OH228953   5.823   2.590  14.907 -1.0585 -0.4489 -0.3734
 2513TIP3    H128954   5.749   2.648  14.924  0.0776  0.8159  0.3767
 2513TIP3    H228955   5.880   2.640  14.848 -0.1517 -0.8731  0.1262
 2514TIP3   OH228956   1.508   5.328  11.818 -0.1239 -0.0328  0.2141
 2514TIP3    H128957   1.596   5.365  11.825 -0.6101  1.0971  0.5193
 2514TIP3    H228958   1.452   5.389  11.865 -0.8937 -1.4767  1.2624
 2515TIP3   OH228959   6.139   1.195  15.115  0.0944  0.2340 -0.1818
 2515TIP3    H128960   6.089   1.234  15.186  0.4717 -0.6957  0.6015
 2515TIP3    H228961   6.099   1.232  15.035 -1.1676  0.2868  0.4490
 2516TIP3   OH228962   4.224   6.489  17.148 -0.2355 -0.1943 -0.1449
 2516TIP3    H128963   4.197   6.401  17.122 -3.6572  1.2949 -2.3849
 2516TIP3    H228964   4.188   6.501  17.236 -0.4927 -0.7551 -0.1689
 2517TIP3   OH228965   2.158   2.684   5.169 -0.0013  0.3804  0.0352
 2517TIP3    H128966   2.138   2.620   5.237 -1.9362  1.1526  0.2534
 2517TIP3    H228967   2.252   2.700   5.178 -0.2273  0.6921  2.7484
 2518TIP3   OH228968   6.769   5.584  11.523  0.1545 -0.3769 -0.4661
 2518TIP3    H128969   6.696   5.533  11.558  0.3582 -0.1042  0.3807
 2518TIP3    H228970   6.748   5.595  11.431 -0.9348 -0.2175 -0.2179
 2519TIP3   OH228971   3.653   2.443  13.203 -0.1545  0.2628 -0.3118
 2519TIP3    H128972   3.728   2.487  13.243 -0.8498  0.7536  0.4778
 2519TIP3    H228973   3.687   2.358  13.176  1.0783  1.0788 -1.3995
 2520TIP3   OH228974   0.559   6.208  15.948  0.6764 -0.0419 -0.3369
 2520TIP3    H128975   0.468   6.207  15.979  0.0858  1.5622 -1.8396
 2520TIP3    H228976   0.609   6.167  16.019 -0.9922  0.6015  1.2942
 2521TIP3   OH228977   5.103   2.551  12.501 -0.0456 -0.6466  0.4535
 2521TIP3    H128978   5.144   2.612  12.563 -0.5913 -1.1504  1.3395
 2521TIP3    H228979   5.009   2.563  12.514 -0.2684  1.0851 -2.1455
 2522TIP3   OH228980   3.475   0.226  12.657 -0.3547  0.9021 -0.0750
 2522TIP3    H128981   3.484   0.187  12.570  0.7493  0.3680  0.2676
 2522TIP3    H228982   3.380   0.232  12.670 -0.5476  1.4962 -1.5221
 2523TIP3   OH228983   5.566   1.628  15.216  0.5626 -0.4073  0.2043
 2523TIP3    H128984   5.599   1.650  15.129 -0.2394  2.4688  0.5282
 2523TIP3    H228985   5.471   1.620  15.204  0.5026 -0.4634  0.7217
 2524TIP3   OH228986   5.180   6.597  15.408 -0.7740  0.2802 -0.2394
 2524TIP3    H128987   5.267   6.589  15.446 -1.7810 -0.3164  2.0939
 2524TIP3    H228988   5.191   6.658  15.335  1.5589  0.2415  0.0158
 2525TIP3   OH228989   2.780   6.087   1.495 -0.0681 -0.0599  0.4214
 2525TIP3    H128990   2.795   6.092   1.590 -0.2901  0.0915  0.4526
 2525TIP3    H228991   2.767   6.179   1.469  1.4262  0.0514 -0.0089
 2526TIP3   OH228992   6.691   5.713  14.808  0.2509 -0.2397 -0.6512
 2526TIP3    H128993   6.731   5.787  14.854  0.3628  0.2844 -1.5509
 2526TIP3    H228994   6.610   5.697  14.855  0.7191 -0.2229  0.1851
 2527TIP3   OH228995   3.064   5.301  15.395 -0.0119  0.4206 -0.3408
 2527TIP3    H128996   3.032   5.260  15.475  1.3566 -0.8016 -0.3616
 2527TIP3    H228997   3.111   5.379  15.424 -0.3120  0.4921 -0.0453
 2528TIP3   OH228998   3.615   1.601   4.976  0.7882 -0.0113  0.9124
 2528TIP3    H128999   3.648   1.593   4.886  0.2163 -0.8921  0.7626
 2528TIP3    H229000   3.564   1.521   4.989 -0.5705  0.8992  1.4216
 2529TIP3   OH229001   1.150   6.046   4.019  0.2827  0.6871 -0.1628
 2529TIP3    H129002   1.229   6.095   3.994 -0.2922  1.1447 -1.1446
 2529TIP3    H229003   1.114   6.016   3.936 -1.1936  1.4735  0.1629
 2530TIP3   OH229004   4.333   1.335   5.946  0.0881 -0.6480 -0.2140
 2530TIP3    H129005   4.314   1.367   6.034  0.7129 -0.7877 -0.0221
 2530TIP3    H229006   4.423   1.362   5.929 -0.9331  2.0467 -2.0355
 2531TIP3   OH229007   1.289   4.408  14.055 -0.0011 -0.8597 -0.4100
 2531TIP3    H129008   1.382   4.390  14.039 -0.2754 -2.9695  0.0812
 2531TIP3    H229009   1.286   4.436  14.147 -0.0553 -2.8336  0.2195
 2532TIP3   OH229010   3.905   6.466   1.735  0.2342  0.1081  0.1433
 2532TIP3    H129011   3.998   6.452   1.714 -0.2011 -0.0654 -1.9023
 2532TIP3    H229012   3.860   6.390   1.697 -1.0122  1.5361 -1.3527
 2533TIP3   OH229013   3.015   0.580   6.158  0.4797  0.2922 -0.1412
 2533TIP3    H129014   3.015   0.570   6.253 -0.8144  0.1319 -0.1380
 2533TIP3    H229015   2.982   0.669   6.143 -0.4116 -0.0749 -0.4461
 2534TIP3   OH229016   2.372   1.702   3.845  0.2221 -0.1834  0.9166
 2534TIP3    H129017   2.331   1.640   3.906 -2.4999 -1.2161 -1.7285
 2534TIP3    H229018   2.323   1.783   3.856 -0.5679 -0.5006 -0.1290
 2535TIP3   OH229019   3.060   4.268   0.837 -0.0917  0.1473  0.0394
 2535TIP3    H129020   3.004   4.218   0.897  1.1579  0.1288  1.2434
 2535TIP3    H229021   3.147   4.265   0.878  0.2551  2.3588 -0.4379
 2536TIP3   OH229022   6.740   1.495  12.008  0.4880  0.0930 -0.1493
 2536TIP3    H129023   6.800   1.477  11.936 -1.0732  0.4279 -1.6142
 2536TIP3    H229024   6.689   1.415  12.018  0.4428  0.1770  0.3264
 2537TIP3   OH229025   2.484   6.529   3.168 -0.4361 -0.3387 -0.4678
 2537TIP3    H129026   2.401   6.486   3.190 -0.6255  0.1248 -0.2425
 2537TIP3    H229027   2.481   6.612   3.217  0.4255 -0.5817  0.0160
 2538TIP3   OH229028   0.785   1.433  14.707 -0.0740 -0.2949  0.4186
 2538TIP3    H129029   0.779   1.430  14.611 -1.0687  0.1031  0.4573
 2538TIP3    H229030   0.742   1.352  14.736  2.1850 -1.5549  0.4960
 2539TIP3   OH229031   0.247   2.399  13.973  0.3151  0.3911 -0.3546
 2539TIP3    H129032   0.168   2.438  13.935 -0.2432 -0.8624 -0.5098
 2539TIP3    H229033   0.251   2.311  13.936 -1.3273 -1.7000  3.7286
 2540TIP3   OH229034   0.122   2.292  16.384 -0.3648 -0.6441  0.2252
 2540TIP3    H129035   0.099   2.286  16.291 -0.3421  1.4541  0.0280
 2540TIP3    H229036   0.210   2.255  16.389 -0.0299 -0.0308 -0.7636
 2541TIP3   OH229037   6.205   0.590   5.342  0.1984 -0.3382 -0.4011
 2541TIP3    H129038   6.150   0.598   5.420  0.8200 -1.4449  0.1747
 2541TIP3    H229039   6.155   0.634   5.272 -0.0455  1.3013  0.7491
 2542TIP3   OH229040   2.342   4.202  11.377 -0.0282 -0.4462 -0.2299
 2542TIP3    H129041   2.344   4.298  11.381  2.6368 -0.2886 -2.1991
 2542TIP3    H229042   2.351   4.174  11.468 -1.4041  1.1176  0.4342
 2543TIP3   OH229043   5.732   2.933  16.500  0.2011 -0.2467  0.4036
 2543TIP3    H129044   5.705   2.996  16.433  1.0184  2.0629  2.1307
 2543TIP3    H229045   5.828   2.940  16.501  0.3069 -1.5301  0.6716
 2544TIP3   OH229046   0.364   1.859  10.840 -0.0588 -0.5771 -0.2631
 2544TIP3    H129047   0.357   1.954  10.841  2.1046 -0.3341  1.7120
 2544TIP3    H229048   0.417   1.839  10.763  0.5269 -0.0563 -0.0014
 2545TIP3   OH229049   4.544   6.298  13.077  0.8383 -0.3954  0.0936
 2545TIP3    H129050   4.488   6.362  13.032 -1.2622 -1.8765  0.4400
 2545TIP3    H229051   4.616   6.350  13.113  0.4101  1.4210 -1.5056
 2546TIP3   OH229052   0.614   1.060   0.608 -0.1119  0.6886  0.1547
 2546TIP3    H129053   0.686   1.015   0.652  0.3683  0.7010 -0.6016
 2546TIP3    H229054   0.539   1.049   0.667 -0.4398 -2.4489 -0.6449
 2547TIP3   OH229055   3.719   4.991   1.502 -0.0568 -0.1308 -0.0859
 2547TIP3    H129056   3.740   5.036   1.420 -0.0607 -0.6346 -0.3653
 2547TIP3    H229057   3.625   5.005   1.514 -0.4632 -1.6606 -1.1705
 2548TIP3   OH229058   5.945   1.485  14.150 -0.0260  0.4149  0.2787
 2548TIP3    H129059   5.885   1.549  14.187  1.1449  1.1090  1.0362
 2548TIP3    H229060   6.032   1.523  14.162  0.7696 -1.5652  1.3479
 2549TIP3   OH229061   1.711   5.902   4.120  0.5589  0.0812 -0.0160
 2549TIP3    H129062   1.689   5.809   4.120  0.5523  0.0568 -1.9230
 2549TIP3    H229063   1.780   5.911   4.054 -0.6264  1.6647 -1.1206
 2550TIP3   OH229064   1.268   5.965   3.521 -0.0523 -0.0357 -0.8168
 2550TIP3    H129065   1.195   5.968   3.583 -0.1729 -0.2928 -0.9455
 2550TIP3    H229066   1.301   5.875   3.528 -1.1899 -0.6410 -2.4085
 2551TIP3   OH229067   2.536   0.922  11.521  0.8458  0.3775  0.8610
 2551TIP3    H129068   2.448   0.897  11.547  1.1187 -0.5275  0.9518
 2551TIP3    H229069   2.528   0.950  11.430  1.0327 -3.3278 -0.4726
 2552TIP3   OH229070   3.719   4.572   6.451 -0.4592 -0.1499 -0.1850
 2552TIP3    H129071   3.629   4.603   6.443 -0.7669 -0.8604  0.4253
 2552TIP3    H229072   3.767   4.647   6.488 -0.5953  0.5436 -1.3700
 2553TIP3   OH229073   3.782   0.353  14.136 -0.0212  0.8528 -0.0694
 2553TIP3    H129074   3.741   0.278  14.092  3.1867 -0.3709 -1.2566
 2553TIP3    H229075   3.731   0.364  14.216 -1.2427 -2.0029 -0.3259
 2554TIP3   OH229076   3.730   4.944   3.665  0.4428 -0.4265  0.7245
 2554TIP3    H129077   3.669   4.870   3.672 -1.9804  1.5456  1.9452
 2554TIP3    H229078   3.809   4.913   3.709 -0.7740 -2.0482  1.9419
 2555TIP3   OH229079   2.512   5.232  16.242  0.5942 -0.9878 -0.2634
 2555TIP3    H129080   2.478   5.238  16.331  0.6465 -1.6427 -0.1971
 2555TIP3    H229081   2.596   5.189  16.251  0.3549 -1.5549 -0.6838
 2556TIP3   OH229082   5.330   2.788   1.269 -0.2697  0.0716 -0.2684
 2556TIP3    H129083   5.311   2.719   1.205 -1.9624  0.2560 -0.0190
 2556TIP3    H229084   5.416   2.766   1.303 -0.4849 -1.5589 -0.6725
 2557TIP3   OH229085   4.404   1.536   1.083 -0.7492  0.7222  0.3910
 2557TIP3    H129086   4.326   1.561   1.034 -1.4996 -1.0690  0.5825
 2557TIP3    H229087   4.474   1.589   1.045 -1.5399  0.3628 -1.7563
 2558TIP3   OH229088   4.680   5.910   1.512  0.5357  0.1499  0.1142
 2558TIP3    H129089   4.616   5.839   1.514  0.6718  0.0365  0.4231
 2558TIP3    H229090   4.692   5.929   1.419 -0.6697  0.8218  0.0806
 2559TIP3   OH229091   2.703   5.238   3.248  0.2590  0.1302  0.0448
 2559TIP3    H129092   2.635   5.261   3.311  0.9945  0.5302  0.7043
 2559TIP3    H229093   2.780   5.217   3.301  0.9228  0.5541 -0.7159
 2560TIP3   OH229094   0.310   3.569   5.322 -0.1459  0.3248  0.1729
 2560TIP3    H129095   0.382   3.623   5.288  1.1270 -1.0961  0.5233
 2560TIP3    H229096   0.326   3.564   5.416 -0.8732  0.2110  0.2988
 2561TIP3   OH229097   2.541   4.091   1.191 -0.1384  0.1043  0.4218
 2561TIP3    H129098   2.458   4.137   1.198  0.4247  1.0573  1.1641
 2561TIP3    H229099   2.595   4.128   1.261  1.1403 -0.0147 -0.4649
 2562TIP3   OH229100   5.412   4.747  12.782 -0.0618  0.5307  0.4879
 2562TIP3    H129101   5.346   4.723  12.717 -0.7113 -0.8010  1.6053
 2562TIP3    H229102   5.424   4.841  12.769 -1.8796  0.7370 -0.0144
 2563TIP3   OH229103   2.859   1.890   4.124  0.4837  0.4355  0.2066
 2563TIP3    H129104   2.894   1.869   4.211 -0.6370 -1.0829  0.3367
 2563TIP3    H229105   2.881   1.814   4.070  0.1975  0.8798 -0.5555
 2564TIP3   OH229106   2.625   3.158  16.956  0.1807  0.3067  0.3136
 2564TIP3    H129107   2.633   3.225  17.023 -2.5816 -0.0183  1.0950
 2564TIP3    H229108   2.617   3.207  16.874 -0.8132  0.9234  0.7611
 2565TIP3   OH229109   3.306   3.037  11.306  0.6590 -0.2116  0.1060
 2565TIP3    H129110   3.271   3.126  11.319  2.5631  0.5627  0.3403
 2565TIP3    H229111   3.333   3.036  11.214 -0.9085 -1.1780 -0.3757
 2566TIP3   OH229112   5.662   6.414   4.020 -0.7003  0.2010 -0.4819
 2566TIP3    H129113   5.691   6.353   3.952 -1.1218  0.6942 -1.1118
 2566TIP3    H229114   5.645   6.496   3.973 -2.0103  0.2482  0.0407
 2567TIP3   OH229115   0.165   5.524  15.126 -0.4991  0.0666 -0.2353
 2567TIP3    H129116   0.115   5.562  15.054  1.0585  0.1645 -1.3179
 2567TIP3    H229117   0.121   5.441  15.145 -2.7154  1.3843  0.7916
 2568TIP3   OH229118   1.770   3.021   1.595 -0.5739  0.2107  0.4934
 2568TIP3    H129119   1.851   3.035   1.645 -0.5799  0.1809  0.5113
 2568TIP3    H229120   1.702   3.065   1.646 -0.7348 -0.5722  0.9707
 2569TIP3   OH229121   6.036   0.059   5.909  0.1240 -0.5837 -0.2522
 2569TIP3    H129122   5.947   0.029   5.891 -0.3387 -0.3508  1.4623
 2569TIP3    H229123   6.037   0.076   6.003  1.9250 -0.3653 -0.2733
 2570TIP3   OH229124   3.863   3.661   5.247  0.2965 -0.1164 -0.4797
 2570TIP3    H129125   3.807   3.597   5.203 -1.1486  0.3471  0.5922
 2570TIP3    H229126   3.811   3.741   5.249 -0.3206 -0.4311  3.1313
 2571TIP3   OH229127   0.877   6.180   6.134  0.9133 -0.2489 -0.2010
 2571TIP3    H129128   0.919   6.266   6.129  0.0098  0.1341 -1.9819
 2571TIP3    H229129   0.841   6.176   6.223  3.3181  0.0287  0.8714
 2572TIP3   OH229130   5.592   2.520   0.374 -0.3905 -0.5269 -0.7896
 2572TIP3    H129131   5.660   2.559   0.320  1.3142 -2.3003 -0.0320
 2572TIP3    H229132   5.619   2.429   0.386 -1.3724 -0.5636  1.9302
 2573TIP3   OH229133   4.723   1.315  10.611 -0.2330 -0.2892  0.9091
 2573TIP3    H129134   4.706   1.380  10.543 -0.1845 -0.1710  1.0093
 2573TIP3    H229135   4.798   1.349  10.659 -0.6278 -0.0773  1.3911
 2574TIP3   OH229136   3.007   0.476   0.182  0.3996  0.2498 -0.3736
 2574TIP3    H129137   3.091   0.492   0.224  0.0393 -1.6866  1.2319
 2574TIP3    H229138   3.006   0.382   0.164 -1.3194  0.2804 -0.6131
 2575TIP3   OH229139   1.306   4.554  15.368 -0.3412  0.1006  0.1136
 2575TIP3    H129140   1.339   4.592  15.449 -1.8491 -0.2876  0.9546
 2575TIP3    H229141   1.377   4.498  15.336  0.1147 -0.0756  1.3917
 2576TIP3   OH229142   3.819   3.958   1.965 -0.0544  0.0539  0.2038
 2576TIP3    H129143   3.765   3.882   1.945 -0.1236  0.0909  0.2501
 2576TIP3    H229144   3.815   4.012   1.886  2.0700 -1.1884 -0.8501
 2577TIP3   OH229145   2.302   6.271  16.453 -0.2106  0.4904 -0.2434
 2577TIP3    H129146   2.214   6.265  16.488 -0.1785  0.2026 -0.2111
 2577TIP3    H229147   2.310   6.196  16.395  0.3974 -0.1246  0.6108
 2578TIP3   OH229148   0.958   3.189  16.115 -0.4516  0.8436  0.2393
 2578TIP3    H129149   0.998   3.198  16.029  0.4992  0.1030  0.5902
 2578TIP3    H229150   0.870   3.154  16.097 -0.2283  0.6178 -0.4215
 2579TIP3   OH229151   6.384   1.940  11.276 -0.3854  0.2992 -0.0321
 2579TIP3    H129152   6.357   1.880  11.346 -2.5604 -0.4427 -1.3906
 2579TIP3    H229153   6.378   2.027  11.315 -0.0299 -0.1858  1.1462
 2580TIP3   OH229154   5.801   4.504   2.434  0.1248  0.2023 -0.8153
 2580TIP3    H129155   5.754   4.475   2.356 -1.0267 -0.4899  0.1081
 2580TIP3    H229156   5.741   4.565   2.478 -0.7501 -2.0116  1.2929
 2581TIP3   OH229157   6.625   6.615  11.195 -0.0036 -0.4609  0.0506
 2581TIP3    H129158   6.674   6.666  11.259 -2.6102 -0.0565  1.9015
 2581TIP3    H229159   6.535   6.647  11.203 -0.5182 -0.5766 -3.7033
 2582TIP3   OH229160   4.961   5.181  14.390  0.0620  0.5432  0.0287
 2582TIP3    H129161   4.920   5.204  14.474  0.0957  0.6340  0.0207
 2582TIP3    H229162   4.941   5.088  14.379  0.8457  0.3004  0.5814
 2583TIP3   OH229163   3.840   4.594  15.857  0.7673  0.1337 -0.0482
 2583TIP3    H129164   3.878   4.602  15.769  1.5027 -0.0864  0.2433
 2583TIP3    H229165   3.815   4.683  15.880 -0.5490  0.0352 -0.9569
 2584TIP3   OH229166   2.814   0.876  15.644  0.3456 -0.3009  0.2426
 2584TIP3    H129167   2.806   0.781  15.634 -0.3832 -0.1208 -1.3636
 2584TIP3    H229168   2.725   0.909  15.627  1.0381  0.7898 -1.6210
 2585TIP3   OH229169   3.211   4.157   2.282  1.0469 -0.1697 -0.3402
 2585TIP3    H129170   3.213   4.062   2.292  1.8351 -0.1281 -0.0307
 2585TIP3    H229171   3.228   4.173   2.190 -2.4181 -0.4215 -1.1680
 2586TIP3   OH229172   6.713   3.863  12.800  0.2659  0.1481 -0.3392
 2586TIP3    H129173   6.695   3.916  12.877 -2.5135  0.6522 -1.2200
 2586TIP3    H229174   6.627   3.840  12.766  1.2768 -4.0950 -0.6407
 2587TIP3   OH229175   4.608   1.139  12.980  0.2337  0.0622  1.1525
 2587TIP3    H129176   4.553   1.061  12.983  0.2751 -0.1017 -0.9556
 2587TIP3    H229177   4.675   1.119  12.916  2.3105  0.5885  3.0480
 2588TIP3   OH229178   4.785   6.307   1.195 -0.1734 -0.1538 -0.1133
 2588TIP3    H129179   4.729   6.358   1.253 -0.8129 -0.8174 -0.1347
 2588TIP3    H229180   4.743   6.314   1.109  0.7827  0.8489 -0.5321
 2589TIP3   OH229181   0.132   2.402   5.515  0.4009 -0.2878  0.1606
 2589TIP3    H129182   0.118   2.312   5.486 -0.2409 -0.0018 -0.4492
 2589TIP3    H229183   0.195   2.394   5.586  1.1833 -1.1162 -0.5918
 2590TIP3   OH229184   4.141   5.220  15.685 -0.2330  0.4726  0.0273
 2590TIP3    H129185   4.140   5.196  15.593 -2.1925 -1.0900  0.3911
 2590TIP3    H229186   4.049   5.219  15.711  0.2904  0.6722  2.0571
 2591TIP3   OH229187   3.169   5.030  11.663 -0.1783  0.0991  0.3938
 2591TIP3    H129188   3.119   4.949  11.678  0.7091 -0.5644 -0.1021
 2591TIP3    H229189   3.124   5.096  11.715  0.7033 -1.3104  3.2078
 2592TIP3   OH229190   2.755   6.014  14.776  0.2133 -0.0746 -0.6250
 2592TIP3    H129191   2.689   5.975  14.834 -0.8728 -0.4213 -2.0401
 2592TIP3    H229192   2.762   5.952  14.703  1.3321  0.4924 -1.0172
 2593TIP3   OH229193   6.730   3.745   1.922 -0.5545  0.0718  0.0872
 2593TIP3    H129194   6.661   3.708   1.977  0.2626  0.0534  1.1467
 2593TIP3    H229195   6.802   3.682   1.928  0.3900  1.1754  0.8781
 2594TIP3   OH229196   1.787   3.600   4.992 -0.0464  0.0288  0.4078
 2594TIP3    H129197   1.853   3.554   4.940  1.0924 -1.5337  3.0205
 2594TIP3    H229198   1.725   3.533   5.017 -0.2174  0.5993  1.5560
 2595TIP3   OH229199   0.843   1.002   0.760  0.3963  0.5350  0.2946
 2595TIP3    H129200   0.814   1.010   0.851  1.0128 -0.5058  0.5897
 2595TIP3    H229201   0.935   1.029   0.762 -0.0343  2.2202 -0.3529
 2596TIP3   OH229202   5.959   4.593  15.520 -0.0838  0.1348  0.3722
 2596TIP3    H129203   5.980   4.634  15.604 -0.2945 -1.3870  1.2006
 2596TIP3    H229204   5.881   4.541  15.538 -0.7929  0.6482 -1.0631
 2597TIP3   OH229205   0.459   4.555  16.420  0.3250  0.2219  0.1355
 2597TIP3    H129206   0.501   4.615  16.482  1.6531 -1.2652  0.7484
 2597TIP3    H229207   0.465   4.469  16.462  0.0992 -0.6370 -1.4949
 2598TIP3   OH229208   3.985   4.091  12.264 -0.1906 -0.4300 -0.5754
 2598TIP3    H129209   4.075   4.068  12.290 -0.5966 -0.2390  1.1250
 2598TIP3    H229210   3.981   4.186  12.276 -1.0420 -0.6205  0.8515
 2599TIP3   OH229211   2.353   4.507  15.874 -0.4021 -0.0263  0.0087
 2599TIP3    H129212   2.368   4.592  15.832 -1.6708  0.8236  1.1752
 2599TIP3    H229213   2.303   4.457  15.809 -0.4826  0.4708 -0.3238
 2600TIP3   OH229214   0.715   1.974   5.907  0.1767 -0.1061 -0.3689
 2600TIP3    H129215   0.797   2.024   5.913  0.0371  0.2759 -1.3315
 2600TIP3    H229216   0.732   1.893   5.956  0.6441  0.5811  0.6223
 2601TIP3   OH229217   4.725   6.729  16.713 -0.2113 -0.0034 -0.2559
 2601TIP3    H129218   4.708   6.712  16.620  0.0326 -0.1719 -0.2706
 2601TIP3    H229219   4.642   6.766  16.746 -0.1067  0.6211 -0.6730
 2602TIP3   OH229220   6.145   0.843   4.521  0.1943 -0.1833 -0.3572
 2602TIP3    H129221   6.056   0.875   4.535  0.0691 -0.4438 -0.5570
 2602TIP3    H229222   6.196   0.921   4.498 -0.0308 -0.0737 -0.4769
 2603TIP3   OH229223   5.004   3.532   5.312  0.1063  0.1801  0.0149
 2603TIP3    H129224   5.042   3.614   5.279  1.3620  0.0616  1.1265
 2603TIP3    H229225   5.048   3.464   5.261 -0.0997  0.1412 -0.1100
 2604TIP3   OH229226   0.290   5.078  15.121 -0.2564 -0.1399 -0.4175
 2604TIP3    H129227   0.385   5.075  15.106 -0.0773  1.9487  0.1115
 2604TIP3    H229228   0.278   5.040  15.208 -0.0369 -1.2844 -0.8655
 2605TIP3   OH229229   2.226   4.118   3.180  0.1845  0.2130 -0.4656
 2605TIP3    H129230   2.184   4.123   3.266 -2.9758 -3.4934 -1.5428
 2605TIP3    H229231   2.304   4.065   3.194  0.2289  0.4615  0.2583
 2606TIP3   OH229232   2.498   2.191   3.382  0.4843  0.2549 -0.4386
 2606TIP3    H129233   2.513   2.237   3.299 -2.8639  1.7583 -0.3668
 2606TIP3    H229234   2.493   2.098   3.357 -1.1131  0.7370 -2.0864
 2607TIP3   OH229235   1.456   3.844  13.047 -0.1713 -0.9155  0.4137
 2607TIP3    H129236   1.476   3.923  12.997 -0.2456 -0.8575  0.4751
 2607TIP3    H229237   1.374   3.865  13.092  0.3865 -0.6177  1.3194
 2608TIP3   OH229238   4.086   2.547   1.373  0.2139  0.1945 -0.2849
 2608TIP3    H129239   4.002   2.569   1.416 -0.5772 -0.3965 -1.4826
 2608TIP3    H229240   4.102   2.620   1.314  0.1510 -0.0514 -0.6080
 2609TIP3   OH229241   2.559   3.669   1.946  0.3546 -0.1188  0.0400
 2609TIP3    H129242   2.631   3.730   1.958 -0.6335  0.9340  0.8416
 2609TIP3    H229243   2.481   3.719   1.967 -0.9215 -0.4425 -3.3341
 2610TIP3   OH229244   2.850   4.139  12.190  0.1965  0.2662 -0.4056
 2610TIP3    H129245   2.774   4.129  12.247 -0.1248  2.9241 -0.2426
 2610TIP3    H229246   2.915   4.185  12.243  1.1599 -0.1817 -1.1606
 2611TIP3   OH229247   1.015   0.448  10.557  0.3657 -0.5817 -0.0721
 2611TIP3    H129248   1.050   0.363  10.587  0.1919 -0.0447  1.8003
 2611TIP3    H229249   0.967   0.482  10.633  0.5208  1.2433 -0.7460
 2612TIP3   OH229250   4.097   4.976   2.106  0.2903 -0.3381 -0.4503
 2612TIP3    H129251   4.004   4.984   2.085  0.0772 -1.8118 -0.1281
 2612TIP3    H229252   4.141   5.020   2.033 -0.6466  0.9391 -0.2923
 2613TIP3   OH229253   5.272   5.015  12.101 -0.3884 -0.1822  0.2864
 2613TIP3    H129254   5.326   5.092  12.123  1.0058 -1.1744  0.4819
 2613TIP3    H229255   5.288   5.003  12.007 -0.3167 -0.4368  0.3317
 2614TIP3   OH229256   5.390   4.430   2.552  0.3768  0.5844 -0.3707
 2614TIP3    H129257   5.440   4.470   2.481  0.9608  1.3705  0.4675
 2614TIP3    H229258   5.308   4.403   2.511  1.5126 -0.8656 -1.8215
 2615TIP3   OH229259   0.403   2.975   0.671 -0.2480  0.2644  0.6794
 2615TIP3    H129260   0.328   3.033   0.657  0.6834  1.3393 -0.0699
 2615TIP3    H229261   0.416   2.975   0.766  0.3045  2.0817  0.6442
 2616TIP3   OH229262   4.842   4.358  11.748 -0.4293  0.5680 -0.2180
 2616TIP3    H129263   4.912   4.399  11.799 -0.8236  2.3139 -1.0005
 2616TIP3    H229264   4.887   4.296  11.691  0.5642  1.8778 -0.9242
 2617TIP3   OH229265   1.579   5.630  16.827 -0.3110  0.3262  0.5900
 2617TIP3    H129266   1.617   5.543  16.841 -2.6065 -0.3189  3.9222
 2617TIP3    H229267   1.634   5.689  16.878  0.4347  0.7003 -0.5820
 2618TIP3   OH229268   2.098   4.918  10.771 -0.5082  0.1677 -0.1356
 2618TIP3    H129269   2.005   4.901  10.787 -0.4310 -0.8156 -0.7093
 2618TIP3    H229270   2.098   4.995  10.714 -0.9108  1.0525  1.0153
 2619TIP3   OH229271   5.298   0.352  12.905  0.1022 -0.7917  0.3022
 2619TIP3    H129272   5.232   0.411  12.943 -0.0768 -0.9015  0.1613
 2619TIP3    H229273   5.379   0.377  12.948 -0.1982 -1.3180  1.2035
 2620TIP3   OH229274   1.599   5.556   2.715 -0.4487 -0.9284 -0.0856
 2620TIP3    H129275   1.660   5.482   2.720 -1.6437 -1.8925  1.0985
 2620TIP3    H229276   1.522   5.520   2.669 -0.4536  0.0280 -0.8496
 2621TIP3   OH229277   4.363   6.617  11.670 -1.0513  0.2426 -0.2234
 2621TIP3    H129278   4.337   6.527  11.651 -1.6246 -0.1456  2.1129
 2621TIP3    H229279   4.281   6.666  11.673 -1.0421  0.1973  1.4675
 2622TIP3   OH229280   0.644   1.865   4.996  0.3903  0.1673 -0.2427
 2622TIP3    H129281   0.682   1.876   4.909 -0.0016  0.9124 -0.3251
 2622TIP3    H229282   0.708   1.904   5.056  0.1034  0.7567 -0.3139
 2623TIP3   OH229283   6.226   0.828  11.030  0.6274 -0.0698 -0.3199
 2623TIP3    H129284   6.187   0.822  11.117 -1.0429  1.6638 -0.8697
 2623TIP3    H229285   6.151   0.830  10.970  1.7220 -0.7869 -1.7846
 2624TIP3   OH229286   6.616   4.491  13.041 -0.5398  0.8089  0.1240
 2624TIP3    H129287   6.690   4.542  13.010  0.4205  0.1133  1.2105
 2624TIP3    H229288   6.548   4.506  12.975  0.5154  1.5260 -0.8450
 2625TIP3   OH229289   4.684   4.489  11.371  0.4446 -0.2265  0.6467
 2625TIP3    H129290   4.706   4.496  11.464  1.3840 -0.1593  0.4354
 2625TIP3    H229291   4.745   4.548  11.327 -1.4554  1.4626  0.1495
 2626TIP3   OH229292   4.675   3.108  11.067 -0.2285 -0.1721  0.2464
 2626TIP3    H129293   4.612   3.143  11.003  1.3717 -0.4837 -1.5781
 2626TIP3    H229294   4.758   3.147  11.043  0.6558 -1.2724  1.3832
 2627TIP3   OH229295   6.310   6.537  11.463 -0.2396 -0.6370  0.6670
 2627TIP3    H129296   6.301   6.492  11.379  1.0834  0.2553  0.0129
 2627TIP3    H229297   6.232   6.592  11.469  0.2994  0.3259 -0.6589
 2628TIP3   OH229298   4.902   4.155   0.243  0.0513 -0.9563 -0.5540
 2628TIP3    H129299   4.899   4.205   0.161  1.2481  0.4951  0.2377
 2628TIP3    H229300   4.995   4.138   0.257  0.4050  2.2923  2.4250
 2629TIP3   OH229301   1.066   3.065   0.587 -0.2576  0.4191 -0.3102
 2629TIP3    H129302   1.092   3.144   0.540  1.4532 -0.4155 -0.8863
 2629TIP3    H229303   1.121   3.064   0.665  0.3604 -0.5880 -0.7304
 2630TIP3   OH229304   4.054   2.440  16.525  0.0162  1.0288  0.2135
 2630TIP3    H129305   4.115   2.409  16.459  0.7228  1.4384  0.6709
 2630TIP3    H229306   4.095   2.417  16.609 -0.5450  1.1340  0.5223
 2631TIP3   OH229307   3.133   1.998  11.305  0.5011  0.1985  0.3416
 2631TIP3    H129308   3.209   2.034  11.259  2.0043 -1.7449  1.1561
 2631TIP3    H229309   3.143   1.903  11.297 -0.7818 -0.1375  2.1538
 2632TIP3   OH229310   1.708   5.494   2.426 -0.5963  0.0492 -0.5066
 2632TIP3    H129311   1.788   5.531   2.388 -0.5953 -0.6071 -1.1572
 2632TIP3    H229312   1.723   5.496   2.521  0.0357  0.2712 -0.6106
 2633TIP3   OH229313   6.630   3.473   3.240 -0.1812 -0.2657  0.0277
 2633TIP3    H129314   6.587   3.526   3.173  0.0751 -0.5865 -0.3914
 2633TIP3    H229315   6.721   3.503   3.240 -0.6382  1.3475  1.8306
 2634TIP3   OH229316   4.337   6.087   2.531 -0.3778  0.2173 -1.1802
 2634TIP3    H129317   4.284   6.164   2.553 -1.5786 -0.7819 -0.4667
 2634TIP3    H229318   4.338   6.085   2.436 -1.8678  0.1274 -1.2222
 2635TIP3   OH229319   2.302   4.444   5.951  0.5368 -0.1553 -0.8398
 2635TIP3    H129320   2.359   4.437   5.874  0.3879  0.6227 -1.0307
 2635TIP3    H229321   2.251   4.524   5.936 -0.5513 -0.7931 -0.6243
 2636TIP3   OH229322   0.477   6.647  15.869  0.3487  0.7393 -0.2531
 2636TIP3    H129323   0.444   6.714  15.928 -1.3027 -0.4292  0.2306
 2636TIP3    H229324   0.499   6.573  15.926 -0.6813 -0.1901 -1.0123
 2637TIP3   OH229325   5.676   4.399   2.179 -0.2473 -0.2406  0.5319
 2637TIP3    H129326   5.716   4.438   2.101 -1.9708  0.7801  0.0776
 2637TIP3    H229327   5.666   4.307   2.158 -1.5468  0.1783 -0.9080
 2638TIP3   OH229328   0.599   2.680   0.430  0.1664 -0.1915 -0.1451
 2638TIP3    H129329   0.586   2.682   0.336  0.3683 -1.0918 -0.2031
 2638TIP3    H229330   0.588   2.588   0.454 -0.5879  0.1155  0.8102
 2639TIP3   OH229331   0.489   4.857  16.921 -0.6388  0.0510  0.3384
 2639TIP3    H129332   0.566   4.838  16.868 -0.7983  0.7053 -0.1416
 2639TIP3    H229333   0.513   4.830  17.009  0.3035  0.6610  0.2762
 2640TIP3   OH229334   6.450   0.169   2.415 -0.5359  0.2382 -0.1465
 2640TIP3    H129335   6.453   0.093   2.357 -0.4087  0.0287  0.1325
 2640TIP3    H229336   6.359   0.174   2.444 -0.8253  0.9249 -1.1250
 2641TIP3   OH229337   5.923   5.952   4.062 -0.4122  0.2897  0.2012
 2641TIP3    H129338   5.969   6.036   4.054 -0.0057  0.0304 -0.2489
 2641TIP3    H229339   5.844   5.962   4.010 -0.1675  0.2634 -0.1805
 2642TIP3   OH229340   2.850   4.610   5.992  0.3314 -0.3208  0.5283
 2642TIP3    H129341   2.851   4.561   5.909 -2.1387  0.3024  0.0317
 2642TIP3    H229342   2.810   4.550   6.054 -2.5662  0.8544 -0.0460
 2643TIP3   OH229343   4.784   1.483   4.038  0.1290 -0.6386  0.0626
 2643TIP3    H129344   4.768   1.558   3.980 -2.4045 -1.5609 -0.5595
 2643TIP3    H229345   4.828   1.521   4.114 -0.7042  1.4233 -0.4183
 2644TIP3   OH229346   5.485   2.369   3.717  0.3101  0.4239  0.1538
 2644TIP3    H129347   5.473   2.302   3.650  2.2262  2.2732 -2.2335
 2644TIP3    H229348   5.423   2.438   3.693 -1.7592 -0.4093  2.6756
 2645TIP3   OH229349   6.541   5.275   4.708 -0.5359 -0.1883  0.3546
 2645TIP3    H129350   6.512   5.363   4.682 -0.8948 -0.4234 -0.0517
 2645TIP3    H229351   6.630   5.269   4.676 -1.5857 -1.2015 -2.7124
 2646TIP3   OH229352   4.831   4.403  16.907 -0.3312 -0.2096 -0.1779
 2646TIP3    H129353   4.925   4.387  16.905 -0.1075  0.9656  0.3990
 2646TIP3    H229354   4.797   4.338  16.969  0.2657  0.1183  0.5046
 2647TIP3   OH229355   1.265   1.648   1.953  0.2084  0.2067 -0.3265
 2647TIP3    H129356   1.290   1.739   1.967  1.9702 -0.2613 -0.2633
 2647TIP3    H229357   1.327   1.615   1.888  1.4125 -1.6815  1.6194
 2648TIP3   OH229358   6.022   4.207  15.999 -0.4444  0.8714 -0.4490
 2648TIP3    H129359   5.941   4.220  15.949 -0.7221  0.9239  0.0144
 2648TIP3    H229360   6.065   4.293  15.996 -0.3651  0.8219 -0.7627
 2649TIP3   OH229361   2.935   3.633   0.645 -0.5403  0.2804 -0.0656
 2649TIP3    H129362   2.906   3.602   0.559 -0.7072 -1.1767  0.4813
 2649TIP3    H229363   2.860   3.616   0.703 -0.1426  0.5117  0.5277
 2650TIP3   OH229364   0.088   3.043  13.189 -0.2643  0.0611  0.2438
 2650TIP3    H129365   0.058   3.109  13.252 -0.0350  0.9953 -0.5995
 2650TIP3    H229366   0.106   2.966  13.242 -0.8606  0.5665  1.2158
 2651TIP3   OH229367   0.204   5.863   4.738  0.1210 -0.1586  0.3432
 2651TIP3    H129368   0.295   5.882   4.762 -0.3747  1.0601  1.3984
 2651TIP3    H229369   0.156   5.873   4.820 -0.8911 -1.4087 -0.0726
 2652TIP3   OH229370   2.377   2.083   5.069 -0.4167  0.5288  0.3464
 2652TIP3    H129371   2.465   2.108   5.042 -0.6417 -0.4710 -1.4820
 2652TIP3    H229372   2.334   2.166   5.090  0.4100  1.1978 -0.5132
 2653TIP3   OH229373   0.353   2.687  12.379 -0.9496  0.3346  0.4330
 2653TIP3    H129374   0.268   2.657  12.345  0.5005 -2.0718 -1.3334
 2653TIP3    H229375   0.400   2.719  12.302  0.4101 -0.0127  1.0862
 2654TIP3   OH229376   3.529   1.529   2.399  0.5235 -0.2590 -0.6666
 2654TIP3    H129377   3.529   1.615   2.359 -2.6067 -0.9105 -2.4124
 2654TIP3    H229378   3.500   1.544   2.489  0.5027  0.5425 -0.8050
 2655TIP3   OH229379   4.169   0.548   3.093  0.2037  0.3028 -0.9693
 2655TIP3    H129380   4.236   0.598   3.139  0.1862  2.4090 -3.0403
 2655TIP3    H229381   4.104   0.613   3.066 -0.7028 -1.0842 -2.3612
 2656TIP3   OH229382   5.404   4.821  12.281 -0.3565 -0.2231  0.1740
 2656TIP3    H129383   5.482   4.856  12.323 -1.4926  1.3354  1.1014
 2656TIP3    H229384   5.378   4.888  12.218 -1.9919  0.2217  1.2491
 2657TIP3   OH229385   3.675   2.980   1.334  0.1087  0.2150  0.2186
 2657TIP3    H129386   3.670   2.931   1.252 -0.9285  0.3048  0.2142
 2657TIP3    H229387   3.630   3.063   1.315  0.3306  0.4588  0.7238
 2658TIP3   OH229388   6.696   3.179   2.023  0.2131 -0.3205  0.2186
 2658TIP3    H129389   6.655   3.094   2.004  1.6999 -1.1118  0.4127
 2658TIP3    H229390   6.764   3.188   1.957  0.6396  0.3200  0.7385
 2659TIP3   OH229391   5.516   5.999  12.510  0.0922  0.0746 -0.5681
 2659TIP3    H129392   5.591   6.006  12.451  1.2697  0.7018  0.9393
 2659TIP3    H229393   5.554   5.970  12.593 -1.4145 -0.0918  0.0868
 2660TIP3   OH229394   0.084   0.510  15.837 -0.4650 -0.9815  0.0377
 2660TIP3    H129395   0.040   0.539  15.918  1.9307  3.6195  0.0050
 2660TIP3    H229396   0.169   0.477  15.867  0.4985  0.8958 -0.4623
 2661TIP3   OH229397   1.180   0.042   1.427  0.6474  0.2840 -0.0846
 2661TIP3    H129398   1.136  -0.021   1.484  2.0200 -0.8441 -0.2067
 2661TIP3    H229399   1.236  -0.012   1.371 -1.1411  1.2433 -3.0201
 2662TIP3   OH229400   4.897   1.448  11.355 -0.4157 -0.1197 -0.4237
 2662TIP3    H129401   4.829   1.380  11.358  0.8689 -1.4613 -0.7030
 2662TIP3    H229402   4.870   1.511  11.422 -2.2422 -0.2990 -0.9201
 2663TIP3   OH229403   4.307   4.900   0.575  0.4636 -0.1235  0.4086
 2663TIP3    H129404   4.250   4.888   0.499 -1.3557 -0.8147  1.8128
 2663TIP3    H229405   4.364   4.973   0.550 -1.8933  1.5106 -0.6011
 2664TIP3   OH229406   3.231   2.611  14.898 -0.6160 -0.9191 -0.5419
 2664TIP3    H129407   3.301   2.599  14.962 -1.2094 -0.7329  0.1607
 2664TIP3    H229408   3.152   2.579  14.942 -1.5655  1.8116 -0.0622
 2665TIP3   OH229409   2.367   1.422   4.678 -0.3663 -0.2158  0.0817
 2665TIP3    H129410   2.432   1.476   4.633  1.5795 -2.5764 -0.1998
 2665TIP3    H229411   2.310   1.389   4.609 -1.0041  0.7143  0.1461
 2666TIP3   OH229412   6.333   2.500  12.913  0.3479  0.1901  0.0056
 2666TIP3    H129413   6.372   2.421  12.876 -0.9673  0.4101 -1.9687
 2666TIP3    H229414   6.258   2.468  12.964 -0.1026  0.1520 -0.6796
 2667TIP3   OH229415   2.365   3.018  15.538 -0.6025  0.3816 -0.1179
 2667TIP3    H129416   2.428   3.090  15.539  0.0613 -0.1914  0.4546
 2667TIP3    H229417   2.347   3.000  15.631 -1.3298  0.2886 -0.2663
 2668TIP3   OH229418   0.426   6.109   5.225  0.3222 -0.1147  0.6022
 2668TIP3    H129419   0.485   6.177   5.192  1.2434 -0.9684  0.4487
 2668TIP3    H229420   0.484   6.041   5.260 -0.5871  0.0248  2.5453
 2669TIP3   OH229421   6.470   2.888   0.252  0.4013 -0.0988 -0.0289
 2669TIP3    H129422   6.564   2.902   0.243  0.4881  0.0648  1.0199
 2669TIP3    H229423   6.430   2.958   0.200  0.8476 -0.5162 -0.9609
 2670TIP3   OH229424   6.471   3.837   3.642  0.1952 -0.2048  0.3326
 2670TIP3    H129425   6.424   3.812   3.722 -1.1622  0.4810 -0.2280
 2670TIP3    H229426   6.524   3.760   3.620 -1.6217 -1.4994  0.3039
 2671TIP3   OH229427   3.117   0.069   2.765 -0.4195  0.2269 -0.0312
 2671TIP3    H129428   3.067   0.118   2.701 -0.1477  2.4260  1.3617
 2671TIP3    H229429   3.191   0.033   2.715 -0.7514  1.0446 -1.1467
 2672TIP3   OH229430   0.313   0.622   1.209 -0.3026 -0.5652 -0.5787
 2672TIP3    H129431   0.386   0.564   1.188 -0.4330 -0.6218 -0.8908
 2672TIP3    H229432   0.286   0.658   1.124 -0.7191 -0.6444 -0.4838
 2673TIP3   OH229433   5.984   6.627  11.228  0.1420 -0.1353  0.0773
 2673TIP3    H129434   5.945   6.710  11.201  0.3193 -0.0354  0.1315
 2673TIP3    H229435   6.015   6.588  11.146  1.2775  0.4699  0.2056
 2674TIP3   OH229436   3.421   6.482   2.166 -0.8277  0.1632  0.0100
 2674TIP3    H129437   3.405   6.438   2.083 -2.1882  0.9179 -0.1575
 2674TIP3    H229438   3.353   6.449   2.224  1.1612 -1.7522  1.4543
 2675TIP3   OH229439   6.297   1.140  12.823  0.6300  0.4293  0.6267
 2675TIP3    H129440   6.331   1.063  12.868 -1.0696  0.2834  1.7503
 2675TIP3    H229441   6.309   1.212  12.885 -1.5505  0.2635  1.3146
 2676TIP3   OH229442   2.848   0.583  12.563 -0.2408 -0.3154 -0.1193
 2676TIP3    H129443   2.835   0.672  12.530  0.1998 -0.3239 -0.3307
 2676TIP3    H229444   2.940   0.564  12.545  0.3785  0.1386  2.1969
 2677TIP3   OH229445   4.713   5.849   4.568  0.3257 -0.5716  0.3480
 2677TIP3    H129446   4.682   5.758   4.573 -0.8131 -0.1826  0.8696
 2677TIP3    H229447   4.806   5.842   4.549  0.0284 -1.8316 -0.8365
 2678TIP3   OH229448   5.667   3.639   3.330  0.0928 -0.0472  0.0682
 2678TIP3    H129449   5.731   3.611   3.395 -1.8526 -2.9801  0.9088
 2678TIP3    H229450   5.602   3.689   3.379  0.7072  1.2968 -0.4403
 2679TIP3   OH229451   4.714   4.084   1.176 -0.1011 -0.4433  0.4350
 2679TIP3    H129452   4.745   4.173   1.190  1.0621 -0.8740  0.7324
 2679TIP3    H229453   4.731   4.068   1.083 -2.3846  0.3781 -0.2106
 2680TIP3   OH229454   2.099   3.874   5.522 -0.4082 -0.8167  0.0059
 2680TIP3    H129455   2.021   3.856   5.469  0.5567 -1.9726 -1.1166
 2680TIP3    H229456   2.119   3.966   5.505 -0.9926 -0.7583 -0.4234
 2681TIP3   OH229457   4.148   5.822   4.451  0.4770  0.9353 -0.7358
 2681TIP3    H129458   4.133   5.908   4.490  1.9547  1.7084 -1.8125
 2681TIP3    H229459   4.172   5.840   4.360  1.4737 -0.5624 -0.8024
 2682TIP3   OH229460   3.301   1.884   1.705 -0.7738 -0.4531 -0.0567
 2682TIP3    H129461   3.243   1.822   1.749 -0.8691 -1.1788 -1.1630
 2682TIP3    H229462   3.252   1.911   1.627 -0.2279  0.0880 -0.2244
 2683TIP3   OH229463   4.905   5.506   2.071 -0.2643  0.0886 -0.6394
 2683TIP3    H129464   4.929   5.497   1.979  3.4044 -0.7463  0.2504
 2683TIP3    H229465   4.908   5.600   2.087 -0.7045  0.2227 -1.2963
 2684TIP3   OH229466   4.318   6.331  15.447 -0.0147  0.4336 -0.4141
 2684TIP3    H129467   4.285   6.390  15.515  0.7825  0.1828  0.1998
 2684TIP3    H229468   4.317   6.245  15.488 -1.9027 -0.1523 -1.5545
 2685TIP3   OH229469   4.998   5.359  12.756 -0.7720  0.0434 -0.4722
 2685TIP3    H129470   4.990   5.454  12.745 -1.4006 -0.1608 -2.1997
 2685TIP3    H229471   5.090   5.344  12.775 -0.7114  1.0088  0.0659
 2686TIP3   OH229472   1.843   0.282  14.879 -0.0276  0.6425  0.5035
 2686TIP3    H129473   1.825   0.310  14.789 -0.7949 -0.6288  0.2269
 2686TIP3    H229474   1.786   0.337  14.933 -0.4756  0.5901  0.0952
 2687TIP3   OH229475   4.936   4.392  11.091  0.5339 -0.0256 -0.4393
 2687TIP3    H129476   4.877   4.325  11.055  1.8393 -2.3411  1.4453
 2687TIP3    H229477   4.877   4.453  11.136 -0.5737 -0.9510 -0.5854
 2688TIP3   OH229478   5.973   0.915   1.655 -0.3153  0.2530 -0.3616
 2688TIP3    H129479   5.979   0.911   1.751  0.0138  0.1491 -0.3848
 2688TIP3    H229480   5.945   0.827   1.630 -0.0294  0.1677 -0.3857
 2689TIP3   OH229481   4.421   6.179   1.760 -0.2905  0.4153  0.5744
 2689TIP3    H129482   4.418   6.178   1.856  0.7318  2.1827  0.6758
 2689TIP3    H229483   4.507   6.143   1.739 -0.0767  1.0260  0.3834
 2690TIP3   OH229484   4.514   0.374  16.847  0.0264 -0.0187  0.0209
 2690TIP3    H129485   4.418   0.368  16.847  0.0248 -1.3186 -2.3841
 2690TIP3    H229486   4.538   0.376  16.754  2.3583  0.1914  0.5639
 2691TIP3   OH229487   4.332   5.337  11.379  0.1772 -0.2429  0.0984
 2691TIP3    H129488   4.413   5.286  11.383 -0.5170 -1.3003  1.1652
 2691TIP3    H229489   4.262   5.273  11.386 -0.7237  0.8448  1.6463
 2692TIP3   OH229490   5.214   3.476   1.251 -0.2704  0.1452  0.1235
 2692TIP3    H129491   5.265   3.396   1.255  0.1305  0.4363  2.0199
 2692TIP3    H229492   5.270   3.539   1.205  0.6510  0.1343  1.1864
 2693TIP3   OH229493   0.387   1.971   1.501  0.6756  0.0085  0.7887
 2693TIP3    H129494   0.479   1.997   1.499  0.8523 -0.5921  0.9505
 2693TIP3    H229495   0.361   1.982   1.593  0.2645  1.2392  0.5492
 2694TIP3   OH229496   4.055   6.191   0.284  0.0861 -0.6773  0.5461
 2694TIP3    H129497   3.996   6.213   0.212  1.2694 -1.6076 -0.7640
 2694TIP3    H229498   4.034   6.255   0.352 -1.3368 -0.0102 -0.4601
 2695TIP3   OH229499   1.905   1.065  16.968  0.0122 -0.6563  0.4028
 2695TIP3    H129500   1.978   1.002  16.973 -0.4334 -1.1723  0.4725
 2695TIP3    H229501   1.859   1.042  16.888 -0.8755 -1.2150  1.0654
 2696TIP3   OH229502   5.557   6.640   6.510 -0.0267  0.4117  0.1615
 2696TIP3    H129503   5.604   6.715   6.545  0.3952 -0.4178  1.4183
 2696TIP3    H229504   5.485   6.626   6.571  1.5398 -1.9230  1.6138
 2697TIP3   OH229505   3.167   0.674  14.914 -1.0214  0.3165 -0.1815
 2697TIP3    H129506   3.211   0.754  14.883 -0.1395 -0.1340 -0.1319
 2697TIP3    H229507   3.236   0.626  14.960 -0.9620 -1.4506 -1.9593
 2698TIP3   OH229508   1.918   2.738   5.420 -0.0789  0.5952  0.7051
 2698TIP3    H129509   1.854   2.745   5.349 -0.3257 -1.4258  0.6663
 2698TIP3    H229510   1.902   2.815   5.474 -2.4440  0.2628  0.5934
 2699TIP3   OH229511   0.616   5.502  16.721  0.3682  0.1356 -0.3195
 2699TIP3    H129512   0.590   5.411  16.736  2.6945 -0.3656  1.1079
 2699TIP3    H229513   0.561   5.553  16.782  0.7372 -0.5881  0.6386
 2700TIP3   OH229514   6.735   6.091  15.651  0.0183 -0.2941 -0.1009
 2700TIP3    H129515   6.758   6.138  15.731 -1.0771  0.4141 -0.1828
 2700TIP3    H229516   6.819   6.063  15.615  0.6678  1.2078  0.1859
 2701TIP3   OH229517   1.797   6.388   3.270 -0.2888 -0.6494 -0.1015
 2701TIP3    H129518   1.745   6.416   3.345 -1.1568 -1.9699 -0.1561
 2701TIP3    H229519   1.885   6.374   3.305  0.0103  1.3619  0.0531
 2702TIP3   OH229520   5.176   0.082   0.802 -0.4401  0.5991 -0.4181
 2702TIP3    H129521   5.173   0.130   0.885 -0.2638  0.7921 -0.5244
 2702TIP3    H229522   5.182   0.150   0.735  0.7748  0.4062 -0.5240
 2703TIP3   OH229523   4.932   3.131   1.421 -0.0821  0.1517 -0.0477
 2703TIP3    H129524   4.868   3.069   1.386  0.5624 -0.6359  0.1367
 2703TIP3    H229525   4.932   3.115   1.515  1.3567 -0.8212 -0.1828
 2704TIP3   OH229526   1.314   0.396   6.034 -0.7212  0.3092  0.2912
 2704TIP3    H129527   1.231   0.401   5.987 -0.5555 -1.7516 -0.3075
 2704TIP3    H229528   1.290   0.366   6.122 -0.5041 -3.1930 -0.6815
 2705TIP3   OH229529   1.217   1.196  14.836  0.0635  0.1885 -0.1212
 2705TIP3    H129530   1.266   1.271  14.803 -1.1485  0.2324 -1.9302
 2705TIP3    H229531   1.176   1.158  14.759 -3.2473  0.5157  1.3306
 2706TIP3   OH229532   4.460   2.850  12.343  0.4492 -0.5726  0.2508
 2706TIP3    H129533   4.396   2.884  12.406  2.5935 -0.5977  2.6008
 2706TIP3    H229534   4.407   2.821  12.269 -2.2033 -0.0974  1.8185
 2707TIP3   OH229535   5.740   3.435  17.131  1.1249 -0.2214 -0.4953
 2707TIP3    H129536   5.790   3.441  17.049  0.8387 -0.2078 -0.6713
 2707TIP3    H229537   5.744   3.343  17.155  2.9562  0.0854  0.5837
 2708TIP3   OH229538   6.578   4.297   5.247  0.4076 -0.1688  0.3345
 2708TIP3    H129539   6.519   4.275   5.174  0.8105 -0.1731  0.0052
 2708TIP3    H229540   6.617   4.381   5.221  3.7039 -2.0557 -1.4808
 2709TIP3   OH229541   0.678   2.857  10.497  0.6426 -0.1561  0.0237
 2709TIP3    H129542   0.600   2.878  10.549  0.2904  1.3993 -1.0554
 2709TIP3    H229543   0.746   2.841  10.562 -0.3576 -0.7611  0.9800
 2710TIP3   OH229544   6.594   2.942  16.208 -0.0193  0.2400 -0.7605
 2710TIP3    H129545   6.605   2.985  16.124 -0.1564  0.1643 -0.8161
 2710TIP3    H229546   6.569   2.852  16.187 -0.8457  0.4322 -0.6379
 2711TIP3   OH229547   2.060   1.482   1.970  0.4669 -0.3938  0.0828
 2711TIP3    H129548   2.071   1.577   1.965  1.1922 -0.2887  2.2994
 2711TIP3    H229549   2.149   1.447   1.969  0.1791 -1.3029 -2.9686
 2712TIP3   OH229550   4.989   5.327  13.723  0.1411 -0.4009 -1.0425
 2712TIP3    H129551   4.995   5.357  13.813  2.1482 -0.8909 -0.9826
 2712TIP3    H229552   4.914   5.267  13.723 -0.2907  0.1098  0.1190
 2713TIP3   OH229553   3.485   0.086   5.539 -0.5416  0.0809 -0.3510
 2713TIP3    H129554   3.510   0.098   5.448 -0.1527  0.0805 -0.2481
 2713TIP3    H229555   3.390   0.080   5.538 -0.5240 -0.1347 -0.7794
 2714TIP3   OH229556   3.100   0.148  13.356 -0.3639 -0.0273  0.1288
 2714TIP3    H129557   3.024   0.175  13.304  0.5955 -0.1699 -1.4119
 2714TIP3    H229558   3.172   0.142  13.292  1.1774  0.9686  1.6684
 2715TIP3   OH229559   3.614   0.588   2.854 -0.6778  0.0059  0.7221
 2715TIP3    H129560   3.606   0.547   2.940 -1.9210 -0.1642  0.5545
 2715TIP3    H229561   3.577   0.524   2.793  0.3898  0.0339  0.0152
 2716TIP3   OH229562   3.474   2.268  16.242  0.3393 -0.1558  0.0141
 2716TIP3    H129563   3.381   2.287  16.241  0.1328 -1.0471  0.8975
 2716TIP3    H229564   3.517   2.353  16.246 -0.3486  0.3904 -2.4045
 2717TIP3   OH229565   3.967   4.716  16.640  0.1344 -0.3274  0.1433
 2717TIP3    H129566   3.907   4.788  16.619  0.4120  0.1564  0.9614
 2717TIP3    H229567   4.048   4.739  16.596  0.7362  0.7190  1.6947
 2718TIP3   OH229568   2.302   0.835  11.008  0.1894  0.3668  0.9148
 2718TIP3    H129569   2.281   0.870  10.922  2.3356  0.5353  0.4084
 2718TIP3    H229570   2.228   0.778  11.030  0.4446 -1.2452 -1.9272
 2719TIP3   OH229571   0.213   5.052  12.058 -0.0847  0.1956 -0.0647
 2719TIP3    H129572   0.272   5.026  11.989  1.3042  0.2723  1.0487
 2719TIP3    H229573   0.162   5.124  12.021  1.2044  0.7804 -0.7488
 2720TIP3   OH229574   4.655   0.504  12.785 -1.1076  0.6557  0.0506
 2720TIP3    H129575   4.739   0.549  12.798  0.2200 -2.1328  2.3986
 2720TIP3    H229576   4.590   0.565  12.820  0.2352  1.9133  0.4747
 2721TIP3   OH229577   5.142   5.465   0.093  0.1994 -0.2729  0.0689
 2721TIP3    H129578   5.048   5.453   0.111 -0.6885  1.8444 -2.4473
 2721TIP3    H229579   5.168   5.537   0.150  0.0774 -0.3195  0.1840
 2722TIP3   OH229580   5.271   0.120  14.074 -0.1518  0.2302  0.0783
 2722TIP3    H129581   5.323   0.100  14.153 -0.6999  0.2483  0.4511
 2722TIP3    H229582   5.205   0.051  14.071  0.1739 -0.0505 -0.6498
 2723TIP3   OH229583   4.912   3.386   1.815 -0.0961  0.2048 -0.1341
 2723TIP3    H129584   4.864   3.443   1.876  0.8049  2.8193 -1.7083
 2723TIP3    H229585   4.845   3.357   1.753 -0.8788 -1.9079  1.5649
 2724TIP3   OH229586   1.386   0.875   3.980 -0.5166 -0.3160 -0.4117
 2724TIP3    H129587   1.357   0.797   3.932 -0.9413 -1.2796  1.3212
 2724TIP3    H229588   1.472   0.895   3.943 -1.2222 -0.4110 -2.2135
 2725TIP3   OH229589   5.089   6.436   4.229  0.1292 -0.3340 -0.1326
 2725TIP3    H129590   5.169   6.384   4.226  1.9392  2.2767 -0.6364
 2725TIP3    H229591   5.039   6.407   4.152  0.0587 -2.6948  0.7430
 2726TIP3   OH229592   2.620   3.327   1.153  0.3147  0.5643  0.0158
 2726TIP3    H129593   2.642   3.271   1.078  0.2235  1.1819 -0.4825
 2726TIP3    H229594   2.557   3.276   1.204  0.3531  0.1490 -0.3495
 2727TIP3   OH229595   4.854   4.678  17.119 -0.4254 -0.2256 -0.1688
 2727TIP3    H129596   4.916   4.693  17.047 -0.5850  0.3413 -0.1880
 2727TIP3    H229597   4.875   4.746  17.183  0.0063 -0.9885  0.5242
 2728TIP3   OH229598   1.235   6.762  10.645 -0.1003  0.0830 -0.0614
 2728TIP3    H129599   1.164   6.735  10.586 -0.4842 -1.1667  0.9006
 2728TIP3    H229600   1.310   6.778  10.588 -0.9327  0.6546 -1.0312
 2729TIP3   OH229601   4.919   1.476   3.579 -0.0620  0.1589  0.1800
 2729TIP3    H129602   4.921   1.388   3.540 -1.0927  0.3606 -0.3710
 2729TIP3    H229603   5.006   1.487   3.617  0.1037 -1.0816  0.2225
 2730TIP3   OH229604   0.779   1.996  14.430 -0.0304 -0.5909 -0.1318
 2730TIP3    H129605   0.725   1.939  14.375  1.4165 -3.1833  0.9306
 2730TIP3    H229606   0.732   2.000  14.514 -0.5311  0.5238 -0.4460
 2731TIP3   OH229607   0.487   0.244  16.719 -0.1222 -0.0439 -0.3848
 2731TIP3    H129608   0.577   0.213  16.732  0.8168  2.4291 -0.4396
 2731TIP3    H229609   0.483   0.327  16.765 -2.8668 -0.7062  0.7988
 2732TIP3   OH229610   6.204   1.090   3.382  0.4844 -0.5064 -0.3086
 2732TIP3    H129611   6.248   1.168   3.350 -0.8060 -0.0835 -1.1468
 2732TIP3    H229612   6.274   1.032   3.410  1.4777  1.3129  1.2445
 2733TIP3   OH229613   2.794   0.280  12.154  0.3340  0.2521  0.3495
 2733TIP3    H129614   2.847   0.275  12.234  2.2280  0.3559 -0.8546
 2733TIP3    H229615   2.781   0.188  12.128  3.1317  0.2201 -1.3207
 2734TIP3   OH229616   3.087   1.765   5.880 -0.1714  0.1439  0.2369
 2734TIP3    H129617   3.156   1.800   5.823  0.5092  1.2956  1.7226
 2734TIP3    H229618   3.125   1.767   5.968 -1.6838 -0.3159  0.9248
 2735TIP3   OH229619   1.197   4.537   1.183 -0.7356 -0.5567 -0.1213
 2735TIP3    H129620   1.181   4.545   1.089  0.4133 -0.2649 -0.3079
 2735TIP3    H229621   1.203   4.443   1.199 -3.0556 -0.7481  0.0765
 2736TIP3   OH229622   4.075   0.394   6.793  0.1423  0.0188  0.1806
 2736TIP3    H129623   4.111   0.348   6.718 -1.2883 -1.1036  0.1373
 2736TIP3    H229624   4.017   0.330   6.835 -1.9923  1.7564  0.0876
 2737TIP3   OH229625   4.354   1.819  16.810  0.4675 -0.2010  0.0297
 2737TIP3    H129626   4.450   1.812  16.813  0.3628 -2.0251  0.5334
 2737TIP3    H229627   4.328   1.758  16.740 -0.3675 -0.6061  0.6740
 2738TIP3   OH229628   1.756   3.050   3.944  0.1926  0.5359  0.2300
 2738TIP3    H129629   1.768   3.016   4.033 -0.9393  1.1173  0.6295
 2738TIP3    H229630   1.793   2.983   3.887  1.6720  0.5160  1.1600
 2739TIP3   OH229631   1.796   4.541  16.749 -0.2993  0.6607 -0.1323
 2739TIP3    H129632   1.857   4.601  16.792  0.2900  0.6416 -0.9272
 2739TIP3    H229633   1.713   4.588  16.748 -0.1692  0.9125  0.4606
 2740TIP3   OH229634   1.124   4.674  13.547 -0.1423 -0.1219 -1.0108
 2740TIP3    H129635   1.070   4.747  13.514  0.3490  1.4870  1.4992
 2740TIP3    H229636   1.065   4.624  13.604  0.5289  0.7281  0.4841
 2741TIP3   OH229637   5.717   1.944  13.732 -0.3009  0.2680  0.4700
 2741TIP3    H129638   5.764   1.970  13.653  0.4661 -1.6606  0.2384
 2741TIP3    H229639   5.664   2.020  13.755 -0.1802  1.0408 -1.6241
 2742TIP3   OH229640   3.834   4.720  16.268  0.6404  0.0663 -0.1827
 2742TIP3    H129641   3.915   4.671  16.253  0.6610  0.1829 -0.4427
 2742TIP3    H229642   3.862   4.800  16.313  0.3226 -1.5410  3.1667
 2743TIP3   OH229643   2.550   4.303   6.443 -0.1174 -0.1115 -0.1256
 2743TIP3    H129644   2.587   4.271   6.361  1.6948  1.5470 -0.0329
 2743TIP3    H229645   2.515   4.225   6.486 -0.8028 -1.0723 -2.2898
 2744TIP3   OH229646   1.865   5.869  16.227  0.3303  0.5760 -0.6214
 2744TIP3    H129647   1.902   5.794  16.273  0.1131 -0.8020 -2.5385
 2744TIP3    H229648   1.835   5.928  16.296  0.3065 -1.2062  0.9686
 2745TIP3   OH229649   4.366   5.547   6.874  0.6174 -0.0093  0.7970
 2745TIP3    H129650   4.292   5.489   6.895  0.3250  0.3870  0.8624
 2745TIP3    H229651   4.441   5.488   6.868  0.3558 -0.3733  1.0541
 2746TIP3   OH229652   5.110   1.701  13.303  0.8190 -0.1119 -0.5661
 2746TIP3    H129653   5.083   1.790  13.328 -0.3891 -0.5742 -0.1588
 2746TIP3    H229654   5.079   1.692  13.213  0.4887 -0.2892 -0.4368
 2747TIP3   OH229655   2.473   5.273   2.292 -0.2342 -0.9775 -0.3026
 2747TIP3    H129656   2.448   5.212   2.222 -0.7776  0.1496 -1.1142
 2747TIP3    H229657   2.532   5.335   2.249 -1.0738  0.1035  0.0676
 2748TIP3   OH229658   5.823   3.521  15.010  0.1046 -0.0792  0.3743
 2748TIP3    H129659   5.757   3.533  15.078  0.9046  0.5402  1.0548
 2748TIP3    H229660   5.818   3.428  14.988 -0.6378 -0.1384  0.7818
 2749TIP3   OH229661   0.647   2.707   2.243 -0.5040 -0.2600 -0.2018
 2749TIP3    H129662   0.673   2.628   2.291 -1.2993 -0.2920  0.1826
 2749TIP3    H229663   0.699   2.704   2.163 -0.9446 -1.4828 -0.4625
 2750TIP3   OH229664   4.347   1.857  15.328 -0.3040 -0.1914  0.2168
 2750TIP3    H129665   4.373   1.937  15.281  0.4876  0.0203  0.9928
 2750TIP3    H229666   4.394   1.787  15.282 -0.2305 -0.0908  0.1369
 2751TIP3   OH229667   1.920   3.352  12.369  0.6614  0.2219 -0.2166
 2751TIP3    H129668   1.997   3.403  12.392  0.5966  0.5698 -0.7540
 2751TIP3    H229669   1.894   3.385  12.282  0.9317 -1.0915 -0.8186
 2752TIP3   OH229670   0.999   0.823  12.004 -0.0715  0.2471  0.6499
 2752TIP3    H129671   0.920   0.864  11.968  0.4885  0.5109 -0.3038
 2752TIP3    H229672   0.994   0.840  12.098  0.2887  2.7800  0.2684
 2753TIP3   OH229673   3.615   3.007   5.527 -0.1451  0.1527 -0.3056
 2753TIP3    H129674   3.602   2.914   5.508 -0.7809  0.0545  0.5358
 2753TIP3    H229675   3.538   3.050   5.491 -0.1919  0.2588 -0.0830
 2754TIP3   OH229676   5.900   0.244  13.698 -0.0498 -0.0412 -0.5532
 2754TIP3    H129677   5.929   0.331  13.725 -0.4711 -0.3617  1.0034
 2754TIP3    H229678   5.942   0.230  13.613 -0.1955  1.7800 -0.9674
 2755TIP3   OH229679   0.819   4.778   3.825  0.0680  0.0024  0.0439
 2755TIP3    H129680   0.784   4.794   3.913  0.9671  3.2072 -0.0250
 2755TIP3    H229681   0.903   4.734   3.841  0.4482  0.9818  0.8702
 2756TIP3   OH229682   0.119   5.558   2.007  0.2908 -0.9260 -0.3291
 2756TIP3    H129683   0.099   5.531   2.097 -2.4042  3.1656  0.5914
 2756TIP3    H229684   0.056   5.510   1.953 -0.3313 -1.0001  0.4425
 2757TIP3   OH229685   2.397   5.950  12.707 -0.2708  0.0368 -0.5395
 2757TIP3    H129686   2.329   6.014  12.683  1.2621  0.8236 -3.1404
 2757TIP3    H229687   2.386   5.878  12.644  1.2769  0.2039 -1.0446
 2758TIP3   OH229688   0.667   5.428  11.290 -0.1591 -0.1310  0.1219
 2758TIP3    H129689   0.692   5.468  11.374 -0.7995  0.2292  0.1431
 2758TIP3    H229690   0.747   5.383  11.261 -0.1322 -0.8725  1.2834
 2759TIP3   OH229691   5.034   0.520   5.424 -0.3250  0.4312  0.4240
 2759TIP3    H129692   4.940   0.504   5.427 -0.2956  0.2801  0.5576
 2759TIP3    H229693   5.060   0.528   5.516 -0.0904 -0.2412  0.4283
 2760TIP3   OH229694   3.921   1.131   5.791 -0.1356 -0.0593 -0.2963
 2760TIP3    H129695   4.008   1.094   5.773 -0.6419 -1.0601 -0.8032
 2760TIP3    H229696   3.881   1.069   5.852  0.1737  1.3720  1.4550
 2761TIP3   OH229697   0.829   0.187  13.098 -0.5057  0.1849  0.1265
 2761TIP3    H129698   0.902   0.244  13.073 -0.1901  0.0035  0.6182
 2761TIP3    H229699   0.840   0.109  13.043 -0.5273  0.2974 -0.0392
 2762TIP3   OH229700   2.168   2.612   0.816  0.1884 -0.1995  0.5822
 2762TIP3    H129701   2.105   2.561   0.866  1.3151 -0.2581  2.0123
 2762TIP3    H229702   2.212   2.667   0.881  1.4481  0.0068 -0.3908
 2763TIP3   OH229703   1.876   0.063   2.549  0.4699 -0.4890  0.3028
 2763TIP3    H129704   1.964   0.050   2.515  0.0103  2.4191 -2.5857
 2763TIP3    H229705   1.821   0.006   2.494  0.2988 -0.2904  0.2679
 2764TIP3   OH229706   5.588   2.127   3.917  0.6947  0.0784 -0.2252
 2764TIP3    H129707   5.539   2.196   3.872 -0.4452 -0.4865  0.0932
 2764TIP3    H229708   5.560   2.046   3.874  1.1131 -0.2828  0.1788
 2765TIP3   OH229709   0.541   6.688   3.543  0.1279  0.3346 -0.2760
 2765TIP3    H129710   0.459   6.640   3.550 -0.3563  1.1727  0.0220
 2765TIP3    H229711   0.559   6.717   3.633  0.1426  1.1254 -0.5246
 2766TIP3   OH229712   6.000   5.534  12.199  0.0927  0.3536  0.1576
 2766TIP3    H129713   6.002   5.522  12.104 -1.2295  3.0393 -0.3278
 2766TIP3    H229714   5.956   5.456  12.233 -0.4651 -0.1145 -1.5553
 2767TIP3   OH229715   0.429   5.042  10.817 -0.4905 -0.5905 -0.0285
 2767TIP3    H129716   0.343   5.001  10.808 -0.7398  0.1470 -1.0860
 2767TIP3    H229717   0.411   5.135  10.831  0.1362 -0.4060 -0.3886
 2768TIP3   OH229718   5.731   5.078   0.974 -0.1962  0.4178 -0.3691
 2768TIP3    H129719   5.719   5.153   1.032 -0.5413  0.6623 -0.7483
 2768TIP3    H229720   5.818   5.045   0.994 -0.2961  0.5270  0.2552
 2769TIP3   OH229721   4.237   2.259   0.199 -0.3765 -0.1494  0.1102
 2769TIP3    H129722   4.261   2.230   0.110  0.0227  1.0380 -0.1936
 2769TIP3    H229723   4.305   2.222   0.255 -1.6920 -2.5312  0.2219
 2770TIP3   OH229724   2.098   5.829  13.592  0.1865  0.3374 -0.2509
 2770TIP3    H129725   2.149   5.760  13.552 -0.1656  1.2401 -2.3888
 2770TIP3    H229726   2.128   5.831  13.683  0.3906 -2.3865 -0.1781
 2771TIP3   OH229727   5.821   6.579   4.179 -0.2601  0.3777  0.2418
 2771TIP3    H129728   5.886   6.607   4.115  0.9309  0.7529  1.5632
 2771TIP3    H229729   5.780   6.501   4.140  0.6757  0.3881 -0.7981
 2772TIP3   OH229730   3.812   4.865   4.513 -0.2021  0.1914  0.3325
 2772TIP3    H129731   3.745   4.853   4.580  0.3137  0.9442  0.9935
 2772TIP3    H229732   3.894   4.838   4.556 -0.0420 -0.5367 -0.4039
 2773TIP3   OH229733   5.389   5.018   0.536 -0.0756 -0.0528 -0.7831
 2773TIP3    H129734   5.413   5.041   0.625 -1.5144 -1.4297  0.0178
 2773TIP3    H229735   5.332   4.941   0.546 -1.0800  0.3706 -2.8158
 2774TIP3   OH229736   3.434   2.975  15.686 -0.2813  0.1942  0.3673
 2774TIP3    H129737   3.387   3.058  15.697 -1.7595 -0.5755  0.1535
 2774TIP3    H229738   3.405   2.943  15.601  0.7072 -0.2854  0.2033
 2775TIP3   OH229739   0.606   3.282  14.910 -0.2387  0.4617  0.0931
 2775TIP3    H129740   0.651   3.350  14.961  2.2108  0.4825 -1.9142
 2775TIP3    H229741   0.538   3.330  14.862 -0.3929  1.0006  0.8324
 2776TIP3   OH229742   4.271   2.242   1.942 -0.1561 -0.3046  0.3697
 2776TIP3    H129743   4.244   2.158   1.979 -0.2608  0.7207  2.8342
 2776TIP3    H229744   4.366   2.243   1.951 -0.0571 -0.5596 -0.6036
 2777TIP3   OH229745   2.934   0.610   2.234 -0.6432  0.7032  0.0265
 2777TIP3    H129746   3.029   0.598   2.232 -0.6237  0.9024 -0.3435
 2777TIP3    H229747   2.923   0.700   2.264 -0.7678  0.0397  2.0838
 2778TIP3   OH229748   3.808   3.878  10.628  0.1360 -0.1958 -0.0006
 2778TIP3    H129749   3.882   3.835  10.585 -0.3826  0.6626 -1.8185
 2778TIP3    H229750   3.846   3.956  10.669  0.6651 -1.1205  1.3510
 2779TIP3   OH229751   0.408   1.482   4.847  0.2046 -0.4464 -0.5894
 2779TIP3    H129752   0.362   1.521   4.920  1.1624  0.9101 -0.6706
 2779TIP3    H229753   0.342   1.430   4.801 -1.0449  0.8386 -0.2897
 2780TIP3   OH229754   5.142   6.213   0.136  0.3833 -0.3538  0.3235
 2780TIP3    H129755   5.107   6.141   0.187 -0.9171 -1.4885 -2.0222
 2780TIP3    H229756   5.159   6.176   0.049  1.6034  1.6778 -0.3882
 2781TIP3   OH229757   1.704   6.198   1.098  0.3713  0.6096 -0.4634
 2781TIP3    H129758   1.756   6.128   1.058 -2.8907 -1.8749 -0.7917
 2781TIP3    H229759   1.653   6.234   1.026 -0.7413  0.6519  0.3178
 2782TIP3   OH229760   4.199   1.941   5.964 -0.8289 -0.2993 -0.1922
 2782TIP3    H129761   4.138   1.934   6.037 -0.6602  0.2068  0.0057
 2782TIP3    H229762   4.190   1.859   5.916 -1.6450 -0.2382 -0.1512
 2783TIP3   OH229763   1.826   3.667  13.503  0.0003 -0.4203  0.0007
 2783TIP3    H129764   1.865   3.745  13.542 -0.0092 -0.4844  0.1368
 2783TIP3    H229765   1.813   3.691  13.411  0.8697 -0.5852 -0.1752
 2784TIP3   OH229766   3.636   4.854  14.875  0.4881 -0.4842 -0.1408
 2784TIP3    H129767   3.612   4.947  14.883  0.5325 -0.3168 -1.6772
 2784TIP3    H229768   3.623   4.819  14.963 -0.5501  0.7387  0.2352
 2785TIP3   OH229769   4.939   5.534   0.335  0.2676 -0.1532  0.1984
 2785TIP3    H129770   5.025   5.497   0.357  0.4710  0.3853  0.3362
 2785TIP3    H229771   4.880   5.496   0.400  0.2283 -1.2032 -0.4224
 2786TIP3   OH229772   0.374   6.405  13.505  0.5987 -0.1895  0.3303
 2786TIP3    H129773   0.384   6.401  13.600 -1.5104  1.1958  0.6985
 2786TIP3    H229774   0.415   6.488  13.480 -0.4956  0.3887  0.3605
 2787TIP3   OH229775   3.071   3.710  14.331 -0.5356 -0.1984  0.2900
 2787TIP3    H129776   3.008   3.780  14.311 -0.8194 -0.0488  1.6121
 2787TIP3    H229777   3.126   3.747  14.400 -0.5475 -1.2161  0.8548
 2788TIP3   OH229778   6.239   2.340  14.585 -0.4658 -0.5694  0.1234
 2788TIP3    H129779   6.187   2.409  14.625 -1.3152 -0.8518 -0.4720
 2788TIP3    H229780   6.177   2.290  14.533  0.3776 -1.0021 -0.4915
 2789TIP3   OH229781   4.232   6.667   4.179 -0.8425  0.1782 -0.2329
 2789TIP3    H129782   4.217   6.761   4.170 -1.1926 -0.0498 -2.7297
 2789TIP3    H229783   4.327   6.658   4.171 -0.7466  0.3429  0.6063
 2790TIP3   OH229784   6.351   5.271  16.667  0.0956 -0.1086 -0.0203
 2790TIP3    H129785   6.336   5.350  16.617 -2.3573 -0.9275 -0.7106
 2790TIP3    H229786   6.361   5.202  16.601  1.6286 -0.4966  0.5729
 2791TIP3   OH229787   0.843   0.764   5.928 -0.0312  0.5757 -0.0552
 2791TIP3    H129788   0.798   0.706   5.867 -1.8479  1.5549  0.2876
 2791TIP3    H229789   0.841   0.850   5.886 -0.6802  1.1217  1.0327
 2792TIP3   OH229790   3.432   6.249   1.558  0.2337  0.2665 -0.8935
 2792TIP3    H129791   3.383   6.170   1.581 -0.7253  0.6995 -1.3878
 2792TIP3    H229792   3.465   6.282   1.642 -2.4135  1.2978 -0.1229
 2793TIP3   OH229793   6.479   0.442   2.378 -0.6650 -0.5057  0.2436
 2793TIP3    H129794   6.421   0.472   2.308 -0.5718 -0.9634 -0.0403
 2793TIP3    H229795   6.466   0.347   2.381  0.7639 -0.7654 -0.4893
 2794TIP3   OH229796   0.410   4.582  12.464  0.4806 -0.0271 -0.2006
 2794TIP3    H129797   0.398   4.565  12.371  2.4107 -0.4437 -0.4297
 2794TIP3    H229798   0.378   4.672  12.477 -0.7031 -0.3094 -1.0372
 2795TIP3   OH229799   4.230   4.458  14.250  0.2247 -0.1478 -0.5023
 2795TIP3    H129800   4.296   4.523  14.225  0.7762  0.2969  1.8528
 2795TIP3    H229801   4.262   4.423  14.333 -0.8153 -2.4038 -0.9900
 2796TIP3   OH229802   3.258   3.903   2.719 -0.5673 -0.1477 -0.4591
 2796TIP3    H129803   3.278   3.926   2.810 -1.1971 -0.0569 -0.3394
 2796TIP3    H229804   3.193   3.968   2.692  1.7329  1.7120 -1.9380
 2797TIP3   OH229805   1.322   2.733  12.650  0.3023 -0.2536  0.1392
 2797TIP3    H129806   1.248   2.734  12.590 -0.2528 -3.8997  0.5726
 2797TIP3    H229807   1.396   2.765  12.597 -0.8338 -0.0373 -1.3918
 2798TIP3   OH229808   2.858   4.312  15.190 -0.0978  0.4234  0.6158
 2798TIP3    H129809   2.793   4.367  15.234 -1.7752 -0.3578 -0.7571
 2798TIP3    H229810   2.942   4.354  15.209 -1.3629  4.9283 -2.2389
 2799TIP3   OH229811   1.520   1.671  12.722 -0.2358 -0.1310  0.3013
 2799TIP3    H129812   1.596   1.728  12.713  0.6236 -1.4964 -1.7951
 2799TIP3    H229813   1.470   1.683  12.641 -0.3244 -1.8921  0.0447
 2800TIP3   OH229814   5.225   0.780  12.041  0.5110 -0.6168  0.2117
 2800TIP3    H129815   5.275   0.699  12.027  0.5697 -0.1426 -3.2623
 2800TIP3    H229816   5.276   0.847  11.996 -1.2153  0.6960  0.1442
 2801TIP3   OH229817   0.016   4.018   1.352  0.4665 -0.0657 -0.6096
 2801TIP3    H129818  -0.062   4.015   1.296  1.8672  0.1394 -2.6846
 2801TIP3    H229819   0.030   3.927   1.377 -0.1468 -0.1753 -0.6383
 2802TIP3   OH229820   6.173   2.017  12.474  0.0038 -0.3343 -0.2602
 2802TIP3    H129821   6.224   1.946  12.435 -0.7183 -1.6436  1.0886
 2802TIP3    H229822   6.168   1.994  12.567 -0.8956  1.0971  0.0629
 2803TIP3   OH229823   4.604   6.377  16.396 -0.1183  0.3363 -0.8801
 2803TIP3    H129824   4.606   6.281  16.399  2.2012  0.2751 -1.8484
 2803TIP3    H229825   4.540   6.397  16.327 -0.7205 -0.4945 -0.5829
 2804TIP3   OH229826   0.399   3.352   1.021 -0.1580  0.4768  0.1088
 2804TIP3    H129827   0.321   3.305   1.051 -0.1775  1.3578  1.5301
 2804TIP3    H229828   0.364   3.424   0.968 -0.3553  1.1406  1.1224
 2805TIP3   OH229829   0.709   5.336  16.314  0.1912  0.3976 -0.5393
 2805TIP3    H129830   0.670   5.411  16.359  0.0412  0.5605 -0.9358
 2805TIP3    H229831   0.714   5.267  16.381 -0.8701  0.3405 -0.5002
 2806TIP3   OH229832   0.422   6.434   1.422  0.2253  0.1087 -0.2216
 2806TIP3    H129833   0.359   6.410   1.353  1.6310 -2.1714 -0.8332
 2806TIP3    H229834   0.436   6.352   1.470  2.0364  0.7741  0.4642
 2807TIP3   OH229835   0.482   4.771  15.277  0.2527 -0.2785  0.5934
 2807TIP3    H129836   0.436   4.737  15.354  1.1665  2.2993  2.4056
 2807TIP3    H229837   0.532   4.846  15.310 -0.7092  2.0969 -2.8387
 2808TIP3   OH229838   3.058   6.090   4.938  0.7826 -0.0138  1.0055
 2808TIP3    H129839   3.136   6.138   4.964  0.4478  1.2102 -0.1586
 2808TIP3    H229840   3.086   6.039   4.862  0.0454  1.8618 -0.6014
 2809TIP3   OH229841   3.528   5.542   3.326  0.6348 -0.2605 -0.4554
 2809TIP3    H129842   3.501   5.566   3.237  0.4047 -0.8462 -0.5463
 2809TIP3    H229843   3.583   5.615   3.354 -2.1206  1.6560  0.2679
 2810TIP3   OH229844   4.350   1.499  13.341  0.0116 -0.8711 -0.8401
 2810TIP3    H129845   4.269   1.539  13.309  1.0882  1.4987 -0.7489
 2810TIP3    H229846   4.386   1.563  13.402  0.3198 -3.3111  1.7535
 2811TIP3   OH229847   2.687   3.893   3.596  0.8448  0.1590  0.4887
 2811TIP3    H129848   2.685   3.914   3.690 -1.6496  1.3184  0.2493
 2811TIP3    H229849   2.607   3.932   3.561  1.2689 -1.0146 -1.9837
 2812TIP3   OH229850   0.449   3.590   6.974 -0.1765 -0.0191  0.0516
 2812TIP3    H129851   0.419   3.632   7.054 -3.0102 -1.1896 -0.2986
 2812TIP3    H229852   0.417   3.647   6.904  1.8929  0.7520 -0.3430
 2813TIP3   OH229853   0.760   3.271  14.325  0.2055  0.1002  0.0728
 2813TIP3    H129854   0.744   3.178  14.307 -1.2377  0.7823 -2.6008
 2813TIP3    H229855   0.674   3.306  14.348  0.9684  0.5833  2.4918
 2814TIP3   OH229856   2.141   2.026   1.193 -0.6400  0.3232  0.7882
 2814TIP3    H129857   2.119   1.975   1.271 -1.1582  0.1107  0.5093
 2814TIP3    H229858   2.071   2.090   1.186 -0.3266  0.6694  0.7767
 2815TIP3   OH229859   6.208   6.680   3.903 -0.0357 -0.6676  0.3926
 2815TIP3    H129860   6.133   6.734   3.927 -0.7169 -0.7909 -1.2933
 2815TIP3    H229861   6.171   6.612   3.846  1.4049 -0.4398 -0.8833
 2816TIP3   OH229862   1.915   1.491  12.657 -0.3539  0.5819  0.1233
 2816TIP3    H129863   1.953   1.539  12.731  1.9756 -0.1177 -0.5365
 2816TIP3    H229864   1.973   1.416  12.645 -3.5981 -2.2345  0.8064
 2817TIP3   OH229865   5.731   6.150  15.511  0.3094  0.2415 -0.7045
 2817TIP3    H129866   5.727   6.097  15.431  0.4894  1.2497 -1.3980
 2817TIP3    H229867   5.816   6.129  15.549  0.1844 -0.3125 -0.7205
 2818TIP3   OH229868   3.001   0.748  11.488 -0.2803  0.1465  0.1456
 2818TIP3    H129869   3.046   0.684  11.433  0.1247  0.1999  0.4098
 2818TIP3    H229870   3.032   0.730  11.577  0.8249  1.5076  0.0810
 2819TIP3   OH229871   0.422   5.445   3.741 -0.2138 -0.2951 -0.2997
 2819TIP3    H129872   0.364   5.447   3.664  0.7426  1.5270 -1.0240
 2819TIP3    H229873   0.504   5.482   3.710  0.3764 -0.0372  1.4901
 2820TIP3   OH229874   5.636   2.073   1.759  0.2560 -0.0650 -0.9368
 2820TIP3    H129875   5.602   2.052   1.672 -0.8233 -3.8270  0.2080
 2820TIP3    H229876   5.599   2.160   1.779 -3.1657 -0.9900 -2.5078
 2821TIP3   OH229877   5.728   6.719  14.846 -0.1017 -0.3511 -0.5908
 2821TIP3    H129878   5.781   6.640  14.855 -0.4203 -0.4553  0.5021
 2821TIP3    H229879   5.781   6.778  14.792  1.1666 -0.4195  0.5262
 2822TIP3   OH229880   3.179   6.300   3.562  0.4713 -0.3948 -0.2157
 2822TIP3    H129881   3.162   6.211   3.591  1.2679 -0.7509 -0.8263
 2822TIP3    H229882   3.164   6.299   3.468  1.1969 -0.0678 -0.3402
 2823TIP3   OH229883   0.006   2.719  16.744 -0.3401  0.0870 -0.0905
 2823TIP3    H129884   0.049   2.750  16.823 -1.2428 -1.1368  0.9152
 2823TIP3    H229885   0.077   2.699  16.683  0.3887  0.4351  0.6348
 2824TIP3   OH229886   3.551   4.487  12.103 -0.2963 -0.4691  0.1533
 2824TIP3    H129887   3.521   4.398  12.084 -1.4654 -0.0021 -0.2467
 2824TIP3    H229888   3.504   4.542  12.041  0.1366  0.4773  0.6476
 2825TIP3   OH229889   1.221   1.096   5.283 -0.0726  0.4043 -0.1293
 2825TIP3    H129890   1.155   1.032   5.256 -1.1303  1.2556  0.3566
 2825TIP3    H229891   1.181   1.142   5.356  1.3939  0.4158  0.7015
 2826TIP3   OH229892   5.923   5.692   0.362 -0.0139  0.6724  0.3522
 2826TIP3    H129893   5.934   5.666   0.271 -0.7180  0.6737  0.2645
 2826TIP3    H229894   5.969   5.776   0.368 -0.9067  1.2260 -0.2839
 2827TIP3   OH229895   4.800   0.197   5.778  0.1379  0.5160  0.0094
 2827TIP3    H129896   4.862   0.124   5.781 -1.8005 -1.2826 -1.2150
 2827TIP3    H229897   4.728   0.171   5.836 -0.2473  1.8297  0.1660
 2828TIP3   OH229898   5.831   1.149  11.762  0.5540  0.4235 -0.1455
 2828TIP3    H129899   5.803   1.147  11.671 -2.4161 -1.4453  0.6656
 2828TIP3    H229900   5.755   1.184  11.810  1.3716 -0.2569  1.7630
 2829TIP3   OH229901   3.320   2.340  13.774  0.2168  0.8678 -0.3107
 2829TIP3    H129902   3.242   2.292  13.747  1.2511 -0.8117 -0.5059
 2829TIP3    H229903   3.350   2.385  13.695  0.7101 -0.3660 -0.8476
 2830TIP3   OH229904   4.109   4.924   6.677  0.4139 -0.3188  0.0152
 2830TIP3    H129905   4.123   4.829   6.672  1.9983 -0.1607  0.7719
 2830TIP3    H229906   4.014   4.934   6.678  0.1701 -2.0561  2.0319
 2831TIP3   OH229907   6.115   4.416  12.252  0.1368 -0.2418 -0.4719
 2831TIP3    H129908   6.117   4.415  12.348 -2.1879  1.7719 -0.3128
 2831TIP3    H229909   6.178   4.484  12.227 -0.2033  0.1472 -0.2840
 2832TIP3   OH229910   3.391   1.897   4.057 -0.5432  0.6132  0.7670
 2832TIP3    H129911   3.323   1.829   4.061 -0.8353  0.8389 -0.0631
 2832TIP3    H229912   3.378   1.938   3.971  0.6705  0.6353  0.5822
 2833TIP3   OH229913   1.960   5.520  16.961 -0.0257 -0.3007 -0.2200
 2833TIP3    H129914   1.993   5.566  16.884 -0.9261 -0.5211 -0.7597
 2833TIP3    H229915   1.902   5.453  16.926 -0.0788 -0.7176  0.6366
 2834TIP3   OH229916   0.417   6.075   3.513  0.3485  0.4025  0.0123
 2834TIP3    H129917   0.494   6.036   3.472  0.7036  0.8576  0.2446
 2834TIP3    H229918   0.443   6.164   3.535  0.0766  0.2606  0.9693
 2835TIP3   OH229919   3.648   4.610  10.921 -0.3720  0.6437 -0.3472
 2835TIP3    H129920   3.720   4.554  10.948  1.1762  0.5589 -4.1084
 2835TIP3    H229921   3.571   4.553  10.926 -0.0962  0.3488  2.4216
 2836TIP3   OH229922   4.301   2.109  11.567  0.2894  0.6210 -0.7530
 2836TIP3    H129923   4.249   2.080  11.642 -1.6272  3.2511 -0.9291
 2836TIP3    H229924   4.355   2.180  11.601  1.0886  0.3214 -1.3785
 2837TIP3   OH229925   1.400   2.952  17.162 -0.0016 -0.1252 -0.1462
 2837TIP3    H129926   1.372   2.972  17.252 -2.0163 -0.1244 -0.7186
 2837TIP3    H229927   1.370   3.027  17.111  0.0107 -0.7007 -1.0080
 2838TIP3   OH229928   2.737   6.766  15.409 -0.5261 -0.4948 -0.8596
 2838TIP3    H129929   2.760   6.855  15.437  0.7898 -1.4253  1.2772
 2838TIP3    H229930   2.738   6.770  15.313 -0.1505  1.6985 -0.8174
 2839TIP3   OH229931   5.359   1.733  16.735 -0.0837 -0.0529  0.0874
 2839TIP3    H129932   5.427   1.733  16.668 -0.9558  1.5613 -0.8608
 2839TIP3    H229933   5.407   1.729  16.818  1.1665  0.7946 -0.5585
 2840TIP3   OH229934   0.642   3.961  10.918  0.6867  0.1576 -0.3481
 2840TIP3    H129935   0.637   4.019  10.994  2.3505 -0.5085  0.3295
 2840TIP3    H229936   0.709   4.002  10.862  1.3202 -0.6905 -0.2248
 2841TIP3   OH229937   1.424   3.943   2.565  0.3934  0.2962  0.4942
 2841TIP3    H129938   1.463   3.912   2.647  0.0059  0.2508  0.6609
 2841TIP3    H229939   1.489   4.003   2.529  2.0797 -2.1568 -0.8304
 2842TIP3   OH229940   3.951   0.457   4.875  0.2307 -0.1474 -0.0120
 2842TIP3    H129941   4.000   0.462   4.793 -0.9065 -0.7007 -0.7702
 2842TIP3    H229942   4.005   0.403   4.932  0.0994 -1.5739 -1.1580
 2843TIP3   OH229943   5.188   1.086  16.323 -1.0627 -0.3991  1.0039
 2843TIP3    H129944   5.125   1.077  16.252 -0.8282  0.2265  0.7102
 2843TIP3    H229945   5.161   1.165  16.369  1.7373  2.3071 -1.5099
 2844TIP3   OH229946   0.484   5.586   2.223  0.1009  0.1289 -0.0094
 2844TIP3    H129947   0.417   5.653   2.235 -0.6944 -0.3179 -1.6365
 2844TIP3    H229948   0.506   5.591   2.130  0.8064 -1.1539  0.0613
 2845TIP3   OH229949   0.316   1.666   2.908 -0.4087 -0.4585 -0.2598
 2845TIP3    H129950   0.377   1.729   2.946 -1.7359  0.5143  0.3596
 2845TIP3    H229951   0.301   1.698   2.818 -0.4266 -0.3733 -0.2267
 2846TIP3   OH229952   3.406   1.439  17.042 -0.1924 -0.3387 -0.0972
 2846TIP3    H129953   3.493   1.398  17.036 -0.3002 -0.4728 -0.8663
 2846TIP3    H229954   3.389   1.471  16.953  0.2462  2.1475  0.6373
 2847TIP3   OH229955   5.699   0.483   5.076 -0.3126  0.3417 -0.1034
 2847TIP3    H129956   5.727   0.569   5.044  0.6379  0.5253  1.1527
 2847TIP3    H229957   5.603   0.485   5.070 -0.2249  0.7077 -1.9692
 2848TIP3   OH229958   3.637   6.138   2.425 -0.0862  0.7665  0.1355
 2848TIP3    H129959   3.624   6.176   2.338  0.6952  0.7760  0.0143
 2848TIP3    H229960   3.576   6.064   2.429 -0.9828  1.4846  0.0388
 2849TIP3   OH229961   3.097   2.506   5.191 -0.2450 -0.3491 -0.1426
 2849TIP3    H129962   3.140   2.497   5.275  0.7626  0.4827 -0.5545
 2849TIP3    H229963   3.158   2.466   5.128 -0.1513  0.6413 -0.7036
 2850TIP3   OH229964   4.137   5.163  13.777 -0.1874  0.3957  0.2262
 2850TIP3    H129965   4.056   5.116  13.799 -0.4818  0.3082 -0.9809
 2850TIP3    H229966   4.106   5.242  13.732  0.3873  0.6225  0.2281
 2851TIP3   OH229967   6.558   4.737   3.792 -0.2554 -0.4918  0.2757
 2851TIP3    H129968   6.588   4.825   3.813 -1.5366  0.0953 -0.2627
 2851TIP3    H229969   6.529   4.742   3.701 -0.5301 -1.4255  0.2969
 2852TIP3   OH229970   6.284   0.521  11.147 -0.0027  0.8976  0.0439
 2852TIP3    H129971   6.292   0.467  11.068 -3.1453  1.6713 -0.9605
 2852TIP3    H229972   6.367   0.509  11.193  0.3500 -2.9786 -1.2156
 2853TIP3   OH229973   5.463   1.726   2.320  0.3274 -0.6379  0.5541
 2853TIP3    H129974   5.435   1.657   2.260  0.1839 -2.4632  2.5941
 2853TIP3    H229975   5.393   1.792   2.317 -0.7936 -1.8007  0.4127
 2854TIP3   OH229976   4.377   1.337   5.060 -0.1432  0.4211 -0.6529
 2854TIP3    H129977   4.337   1.374   4.981  0.3748  0.6423 -0.8168
 2854TIP3    H229978   4.306   1.336   5.124 -0.2592  1.4029 -0.7473
 2855TIP3   OH229979   1.923   5.024  11.088  0.7201  0.1175 -0.3282
 2855TIP3    H129980   1.843   5.071  11.111  0.5723 -0.5627  0.6197
 2855TIP3    H229981   1.994   5.086  11.105  0.4481  0.4513 -0.4054
 2856TIP3   OH229982   1.772   1.046  13.770  0.2877 -0.4919 -0.0252
 2856TIP3    H129983   1.732   1.132  13.779 -2.2679 -1.3478 -2.0420
 2856TIP3    H229984   1.723   0.989  13.829  1.6942 -0.7135  0.9922
 2857TIP3   OH229985   2.250   6.258   4.883 -0.1005 -0.1603 -0.2946
 2857TIP3    H129986   2.248   6.207   4.964  0.1735 -0.7962 -0.6862
 2857TIP3    H229987   2.277   6.346   4.911 -0.3986 -0.2648  0.3541
 2858TIP3   OH229988   2.084   4.960   0.118 -0.2101 -0.7646 -0.2647
 2858TIP3    H129989   2.047   5.025   0.177 -0.6279 -0.2106 -1.1054
 2858TIP3    H229990   2.155   5.007   0.073 -1.4435 -0.4045 -1.9280
 2859TIP3   OH229991   1.412   6.682  12.955  0.3363  0.1187 -0.2224
 2859TIP3    H129992   1.342   6.685  13.021 -0.0029 -1.2788 -0.4988
 2859TIP3    H229993   1.369   6.651  12.876  0.8042  1.5066 -1.0552
 2860TIP3   OH229994   1.833   4.189  15.390 -0.3907  0.0316 -0.1753
 2860TIP3    H129995   1.836   4.206  15.296 -1.4998 -0.7163 -0.3646
 2860TIP3    H229996   1.750   4.228  15.418 -0.9042 -1.2500  0.1581
 2861TIP3   OH229997   1.967   6.303   4.092  0.3951 -0.0859 -0.3854
 2861TIP3    H129998   1.934   6.383   4.051  1.0114  0.5098  0.2432
 2861TIP3    H229999   2.047   6.283   4.043  1.7453  1.2524  1.1494
 2862TIP3   OH230000   2.260   2.975  12.306  0.5676 -0.0503  0.0857
 2862TIP3    H130001   2.348   2.992  12.341  0.5895  1.3960 -0.6059
 2862TIP3    H230002   2.259   3.020  12.222 -0.1009 -1.9488 -0.9780
 2863TIP3   OH230003   1.527   6.285   5.820  0.7393  0.0182 -0.4287
 2863TIP3    H130004   1.510   6.343   5.746 -0.0912 -0.6955 -0.8113
 2863TIP3    H230005   1.594   6.330   5.871 -3.1270  3.8215  1.9959
 2864TIP3   OH230006   1.851   0.495  12.215 -0.1661 -0.2144 -0.4954
 2864TIP3    H130007   1.769   0.460  12.179  1.0755 -0.7890 -3.0126
 2864TIP3    H230008   1.907   0.507  12.139  2.4261 -0.6877  1.2086
 2865TIP3   OH230009   6.407   3.752   0.799 -0.1933 -0.5255  0.3274
 2865TIP3    H130010   6.474   3.697   0.841 -0.2996 -0.0564  1.1328
 2865TIP3    H230011   6.447   3.838   0.794 -0.8337 -0.1647  1.1014
 2866TIP3   OH230012   0.879   1.946   5.097 -0.0757  0.0993 -0.0698
 2866TIP3    H130013   0.882   1.997   5.178 -0.8327  0.2692 -0.1423
 2866TIP3    H230014   0.969   1.944   5.067  1.1580 -3.6521  3.0409
 2867TIP3   OH230015   2.367   2.765   3.382 -0.0363 -0.3370  0.1317
 2867TIP3    H130016   2.456   2.744   3.353 -0.3524 -1.6316  0.0610
 2867TIP3    H230017   2.379   2.828   3.453  0.9239 -0.2470 -0.1014
 2868TIP3   OH230018   5.073   3.740   2.923  0.0302 -0.6223 -0.0195
 2868TIP3    H130019   5.132   3.775   2.856 -0.8685 -0.7282 -0.8816
 2868TIP3    H230020   5.066   3.647   2.902  1.6680 -1.1931  1.7034
 2869TIP3   OH230021   5.702   2.667   3.999 -0.0048  0.1923  0.2542
 2869TIP3    H130022   5.788   2.638   3.968  0.4700  0.7664  1.0017
 2869TIP3    H230023   5.695   2.757   3.969  0.7161  0.9641  2.2568
 2870TIP3   OH230024   5.296   4.370  10.485  0.7664  0.5783  0.2609
 2870TIP3    H130025   5.341   4.304  10.433 -0.0853  1.0230 -1.0783
 2870TIP3    H230026   5.261   4.322  10.560  1.8102 -0.1042  0.3363
 2871TIP3   OH230027   5.874   3.261   2.196 -0.5380 -0.1314  0.1735
 2871TIP3    H130028   5.925   3.264   2.277  0.3203 -1.4546 -0.2803
 2871TIP3    H230029   5.798   3.317   2.213 -0.4685 -0.5176  1.9592
 2872TIP3   OH230030   1.266   5.678   0.842  0.2050  0.3201  0.0256
 2872TIP3    H130031   1.247   5.680   0.935 -2.1688 -1.5804 -0.3101
 2872TIP3    H230032   1.201   5.736   0.802  2.1362  2.3226 -0.4292
 2873TIP3   OH230033   1.272   3.739  16.223 -0.6484 -0.0741  0.6369
 2873TIP3    H130034   1.185   3.700  16.208 -1.0521  0.8212  0.5655
 2873TIP3    H230035   1.279   3.808  16.157 -0.6294  1.0301  1.7485
 2874TIP3   OH230036   1.195   0.732   4.628 -0.3379 -0.6799 -0.8059
 2874TIP3    H130037   1.219   0.821   4.600  1.4094 -0.5255  0.9143
 2874TIP3    H230038   1.248   0.718   4.707 -0.3560 -3.3787 -1.2103
 2875TIP3   OH230039   5.868   0.151   5.177 -0.0760 -0.2287  0.0549
 2875TIP3    H130040   5.776   0.146   5.148 -0.2618  2.3086  0.0338
 2875TIP3    H230041   5.863   0.186   5.266  0.8884  1.0685 -0.3711
 2876TIP3   OH230042   1.973   2.255  11.684 -0.3102 -0.0906  0.4243
 2876TIP3    H130043   2.058   2.297  11.688 -0.8741  1.1256  0.1113
 2876TIP3    H230044   1.987   2.168  11.720  1.2575 -0.2516 -0.5300
 2877TIP3   OH230045   0.077   3.510   5.532 -0.1363  0.0188 -0.3090
 2877TIP3    H130046   0.152   3.505   5.592 -0.6636 -0.5254  0.3241
 2877TIP3    H230047   0.016   3.443   5.564 -1.0081  0.6257 -0.6536
 2878TIP3   OH230048   0.492   3.813  13.977 -0.4222  0.7590  0.3898
 2878TIP3    H130049   0.463   3.796  13.887  0.5056 -0.9952  0.3624
 2878TIP3    H230050   0.586   3.829  13.969  0.4702 -2.9941  1.2703
 2879TIP3   OH230051   4.891   4.545   4.503  0.2877 -0.5401  0.1224
 2879TIP3    H130052   4.982   4.565   4.483  0.1039 -0.2528 -0.4461
 2879TIP3    H230053   4.887   4.544   4.599  0.4449  1.5863  0.1998
 2880TIP3   OH230054   2.303   4.708  14.787 -0.3879  0.1546  0.4446
 2880TIP3    H130055   2.320   4.787  14.735  0.8917 -1.8520 -2.4408
 2880TIP3    H230056   2.379   4.701  14.844 -0.1523  0.6151  0.1977
 2881TIP3   OH230057   1.598   3.252  12.509 -0.0464  0.0965 -0.3854
 2881TIP3    H130058   1.585   3.266  12.602 -1.3550  0.6012 -0.6193
 2881TIP3    H230059   1.670   3.189  12.503 -0.8267 -0.9695  0.9880
 2882TIP3   OH230060   1.767   3.310  16.989  0.4147  0.3035 -0.6024
 2882TIP3    H130061   1.711   3.257  16.932 -1.1683  1.6159 -0.3289
 2882TIP3    H230062   1.710   3.335  17.062  1.7061  0.7121  0.2949
 2883TIP3   OH230063   0.788   3.752   2.445 -0.2746  0.4794  0.0840
 2883TIP3    H130064   0.839   3.684   2.401 -2.0802 -0.6730 -0.3217
 2883TIP3    H230065   0.848   3.826   2.451  1.1652 -0.5199 -1.1510
 2884TIP3   OH230066   5.694   1.131   2.539  0.1690  0.6593  0.5668
 2884TIP3    H130067   5.678   1.111   2.447  1.1290 -0.4557  0.6141
 2884TIP3    H230068   5.757   1.203   2.537  2.7521 -1.4188  0.2252
 2885TIP3   OH230069   0.449   4.009   3.159  0.4578 -0.7877  0.2641
 2885TIP3    H130070   0.476   3.918   3.155  0.6596 -0.6931 -0.9791
 2885TIP3    H230071   0.527   4.059   3.134 -0.0704 -0.3686 -0.5954
 2886TIP3   OH230072   4.713   4.237  14.940 -0.3455  0.4158  0.0599
 2886TIP3    H130073   4.777   4.167  14.925  0.6507  1.4939 -0.8764
 2886TIP3    H230074   4.675   4.253  14.854 -0.8372  0.7832  0.3431
 2887TIP3   OH230075   1.801   1.374   3.885  0.3488  0.3481  0.1785
 2887TIP3    H130076   1.799   1.311   3.813 -1.9797 -0.4176  0.8415
 2887TIP3    H230077   1.764   1.454   3.848 -0.9099 -0.0650  0.4978
 2888TIP3   OH230078   4.646   1.302   2.304 -0.1665  0.1767  0.4863
 2888TIP3    H130079   4.686   1.235   2.248  2.3157  1.8074  0.1280
 2888TIP3    H230080   4.668   1.276   2.393  0.7070  0.3953  0.3523
 2889TIP3   OH230081   0.652   4.542   5.475  1.4788 -0.4938 -0.2489
 2889TIP3    H130082   0.717   4.510   5.413  1.0139 -0.6383 -0.6678
 2889TIP3    H230083   0.591   4.593   5.422  0.2646 -1.7995 -0.1622
 2890TIP3   OH230084   0.318   2.344   3.849  0.3044 -0.3617  0.2568
 2890TIP3    H130085   0.368   2.391   3.782 -1.0805 -0.3991 -0.8527
 2890TIP3    H230086   0.273   2.413   3.898 -0.3531 -0.4256 -0.2434
 2891TIP3   OH230087   3.785   5.154   3.092 -0.5447 -0.7796  0.9258
 2891TIP3    H130088   3.847   5.114   3.152  1.4700 -0.7117 -0.9722
 2891TIP3    H230089   3.784   5.247   3.116 -0.2949 -0.8677  1.2808
 2892TIP3   OH230090   5.809   3.184  11.738 -0.4435 -0.0228 -0.5932
 2892TIP3    H130091   5.869   3.189  11.663  2.6901  1.1747  1.7642
 2892TIP3    H230092   5.763   3.267  11.737 -0.0357  0.2077 -0.9007
 2893TIP3   OH230093   4.844   4.842  14.062 -0.0599  0.3833  0.0422
 2893TIP3    H130094   4.888   4.778  14.118  0.5236  0.4471 -0.3280
 2893TIP3    H230095   4.859   4.810  13.973  1.6565  1.8641 -0.2604
 2894TIP3   OH230096   5.394   1.280   4.255 -0.5641 -0.7873 -0.2994
 2894TIP3    H130097   5.386   1.185   4.250  1.4714 -0.9640 -0.9841
 2894TIP3    H230098   5.473   1.295   4.305 -0.8428  0.5634 -0.2270
 2895TIP3   OH230099   4.070   2.282   1.304 -0.3072 -0.1285  0.4342
 2895TIP3    H130100   4.095   2.374   1.304  1.9800 -0.6824  0.8927
 2895TIP3    H230101   3.997   2.276   1.365  0.6411  1.1211  1.7282
 2896TIP3   OH230102   2.029   0.840   1.358 -0.3840  0.5331 -0.0497
 2896TIP3    H130103   2.070   0.777   1.418 -0.0875  1.0976  0.3534
 2896TIP3    H230104   1.947   0.863   1.402 -0.7105  0.0920 -0.4172
 2897TIP3   OH230105   4.264   5.301   6.566 -0.2481 -0.5207  0.4084
 2897TIP3    H130106   4.349   5.272   6.531  0.6174  0.8100  1.2968
 2897TIP3    H230107   4.243   5.380   6.517 -1.5434 -1.4240 -0.5468
 2898TIP3   OH230108   2.701   2.822   5.148  0.3220 -0.2344 -0.5972
 2898TIP3    H130109   2.784   2.774   5.157  0.4084 -0.0774 -0.5483
 2898TIP3    H230110   2.713   2.901   5.202  0.1762 -0.1641 -0.6665
 2899TIP3   OH230111   5.813   5.586  11.373 -0.3037 -0.3083 -0.2571
 2899TIP3    H130112   5.906   5.579  11.393 -0.0564 -1.0078 -1.5476
 2899TIP3    H230113   5.809   5.593  11.278 -1.4777  1.7693 -0.1144
 2900TIP3   OH230114   3.845   6.201  11.598 -0.6335 -0.9218 -0.5450
 2900TIP3    H130115   3.913   6.267  11.586 -1.4617 -0.0263 -0.4191
 2900TIP3    H230116   3.780   6.220  11.531 -1.2428 -1.1343 -0.0314
 2901TIP3   OH230117   4.083   2.593  12.130 -0.4605  0.0899 -0.5062
 2901TIP3    H130118   4.067   2.603  12.036 -0.7013 -0.6141 -0.5439
 2901TIP3    H230119   4.090   2.498  12.143  0.5259  0.2278  0.0327
 2902TIP3   OH230120   5.500   1.198  12.172 -0.3629  0.1890 -0.1715
 2902TIP3    H130121   5.457   1.281  12.151  0.0984  0.3776 -0.3950
 2902TIP3    H230122   5.512   1.156  12.087 -0.7921 -0.2069 -0.0375
 2903TIP3   OH230123   2.277   0.011   4.469  0.4026  1.1748  0.4734
 2903TIP3    H130124   2.284   0.023   4.564 -1.0999  0.9716  0.6416
 2903TIP3    H230125   2.201  -0.046   4.458  1.4813 -0.0819 -0.7928
 2904TIP3   OH230126   0.398   5.993   1.503  0.0227 -0.0406  0.2456
 2904TIP3    H130127   0.319   6.045   1.513  0.1264  0.5553 -1.6224
 2904TIP3    H230128   0.465   6.057   1.477  1.1163 -0.5474  1.6845
 2905TIP3   OH230129   3.037   3.752  15.903 -0.1677 -0.5098 -0.4742
 2905TIP3    H130130   2.981   3.698  15.959 -1.9298  2.2090  0.5603
 2905TIP3    H230131   3.112   3.774  15.958  0.9318 -2.3534 -1.1380
 2906TIP3   OH230132   1.259   0.220   4.831  1.5831  0.0527 -0.6706
 2906TIP3    H130133   1.311   0.229   4.911  0.4883 -3.2020  0.5676
 2906TIP3    H230134   1.281   0.134   4.797 -0.9207 -0.3041 -1.6159
 2907TIP3   OH230135   2.488   1.717   2.835  0.3978 -0.6379  0.2851
 2907TIP3    H130136   2.562   1.769   2.803  0.4101 -1.2225 -0.6694
 2907TIP3    H230137   2.447   1.773   2.901  0.6041  0.4614 -0.4842
 2908TIP3   OH230138   5.629   1.597   6.082 -0.0795  0.3733 -0.0075
 2908TIP3    H130139   5.596   1.674   6.128 -0.6698  0.6479 -0.8645
 2908TIP3    H230140   5.607   1.613   5.990  1.1448 -0.1236 -0.4038
 2909TIP3   OH230141   6.636   4.713  12.735 -0.7367 -0.5419  0.1388
 2909TIP3    H130142   6.674   4.730  12.649 -0.8388  0.0784  0.2097
 2909TIP3    H230143   6.576   4.640  12.721 -0.6955 -0.4932 -0.3002
 2910TIP3   OH230144   6.628   6.480   6.184  0.1303 -0.0682  0.3259
 2910TIP3    H130145   6.559   6.539   6.214  0.6899  0.2688  0.9683
 2910TIP3    H230146   6.637   6.416   6.255  0.8821  0.2359  0.5131
 2911TIP3   OH230147   4.305   6.191   5.110 -0.6302  0.4320 -0.2004
 2911TIP3    H130148   4.318   6.191   5.015  0.8409  0.3268 -0.0332
 2911TIP3    H230149   4.278   6.280   5.131  1.5634  1.2283 -0.4621
 2912TIP3   OH230150   3.607   4.098  15.280  0.0791  0.1872  0.2372
 2912TIP3    H130151   3.550   4.174  15.294  0.6101  0.6549 -0.0715
 2912TIP3    H230152   3.694   4.136  15.268  0.0358 -0.2714 -2.2140
 2913TIP3   OH230153   5.355   4.494   0.916 -0.0712  0.0476  0.4451
 2913TIP3    H130154   5.367   4.588   0.903 -1.1694  0.4291  1.9386
 2913TIP3    H230155   5.440   4.463   0.948 -0.2049  0.8881  1.6862
 2914TIP3   OH230156   5.097   6.521   3.174  0.1250 -0.1855  0.3181
 2914TIP3    H130157   5.107   6.587   3.242 -1.1275  0.6061 -0.2390
 2914TIP3    H230158   5.097   6.570   3.092 -2.5959 -0.6030 -0.0222
 2915TIP3   OH230159   5.549   0.554  11.639 -0.7385 -0.0182  0.5083
 2915TIP3    H130160   5.583   0.633  11.596 -0.9620 -0.2070 -0.0289
 2915TIP3    H230161   5.580   0.482  11.584 -0.2839 -0.3317  1.1622
 2916TIP3   OH230162   2.408   3.136   5.040 -0.5353 -0.2506  0.1810
 2916TIP3    H130163   2.504   3.137   5.041 -0.5079 -1.0534 -0.4800
 2916TIP3    H230164   2.383   3.224   5.011 -0.0068 -0.0193  0.4169
 2917TIP3   OH230165   4.349   2.089  15.506  0.5778 -0.2484  0.2838
 2917TIP3    H130166   4.304   2.026  15.450  0.3366  0.4138 -0.2879
 2917TIP3    H230167   4.411   2.133  15.447 -0.2415  1.0162  0.3246
 2918TIP3   OH230168   5.020   3.453   3.518  0.2252 -0.1727 -0.0781
 2918TIP3    H130169   5.101   3.409   3.491  0.8102  0.1822  1.0244
 2918TIP3    H230170   4.993   3.407   3.597 -1.4589 -1.1991 -1.1844
 2919TIP3   OH230171   1.942   0.134  17.129  1.1430  0.6446  0.2294
 2919TIP3    H130172   1.989   0.105  17.206  0.3867  0.7622  0.7455
 2919TIP3    H230173   1.850   0.120  17.150  0.9391  0.3199 -0.7968
 2920TIP3   OH230174   5.634   2.139  11.322 -0.4460 -0.1267  0.5747
 2920TIP3    H130175   5.550   2.163  11.284 -0.2545  0.3445  0.4367
 2920TIP3    H230176   5.628   2.166  11.414 -1.0145 -1.5324  0.9641
 2921TIP3   OH230177   0.404   5.361   5.100 -0.0147  0.3398  0.2958
 2921TIP3    H130178   0.342   5.374   5.172  0.0610  1.9241  0.1106
 2921TIP3    H230179   0.387   5.272   5.070 -1.4468  0.3606  0.9514
 2922TIP3   OH230180   3.988   2.892  15.643  0.6014  0.1834  0.1196
 2922TIP3    H130181   4.000   2.804  15.678  1.3405  0.1096 -0.3046
 2922TIP3    H230182   3.898   2.893  15.611  0.3001 -0.1288  0.9127
 2923TIP3   OH230183   0.846   1.215   0.403  0.5356  0.0346  0.4536
 2923TIP3    H130184   0.769   1.184   0.451  0.3569 -0.4039 -0.1081
 2923TIP3    H230185   0.904   1.251   0.470  0.5935 -1.2025  1.0896
 2924TIP3   OH230186   5.889   4.895   1.061  0.0988  0.5316  0.1309
 2924TIP3    H130187   5.807   4.849   1.081  0.9378 -0.7610  0.6671
 2924TIP3    H230188   5.944   4.881   1.138  1.9301 -1.2003 -1.3797
 2925TIP3   OH230189   5.645   3.434   0.944 -0.1460 -0.3623 -0.0689
 2925TIP3    H130190   5.725   3.479   0.971  0.2832  0.3399 -2.3185
 2925TIP3    H230191   5.665   3.341   0.957  0.6110 -0.1402  0.4252
 2926TIP3   OH230192   0.792   2.064   3.264 -0.7234  0.5948  0.5768
 2926TIP3    H130193   0.798   1.977   3.303  1.1182  0.9858  1.2528
 2926TIP3    H230194   0.854   2.062   3.191 -0.2742  1.5082  0.9282
 2927TIP3   OH230195   2.332   6.447  13.034  0.6285 -0.0780  1.1617
 2927TIP3    H130196   2.249   6.432  13.079  0.2931  1.3283  1.0712
 2927TIP3    H230197   2.383   6.367  13.049 -1.0170 -1.2784  0.5779
 2928TIP3   OH230198   4.185   3.941  11.205 -0.0673 -0.3169 -0.0726
 2928TIP3    H130199   4.118   3.910  11.144 -0.1646  0.6435 -0.4791
 2928TIP3    H230200   4.253   3.978  11.149 -0.4798  1.2187  0.4008
 2929TIP3   OH230201   0.495   6.480   4.797 -0.0247 -0.1506 -0.5586
 2929TIP3    H130202   0.439   6.466   4.873  0.4033  1.1196  0.0366
 2929TIP3    H230203   0.565   6.416   4.805 -0.5845 -0.7565 -0.4966
 2930TIP3   OH230204   2.552   0.544   2.793 -0.3489  0.3543 -0.0896
 2930TIP3    H130205   2.528   0.574   2.880 -0.7219  1.8578 -0.6802
 2930TIP3    H230206   2.479   0.487   2.766  0.3575 -1.1517  1.0324
 2931TIP3   OH230207   6.202   3.800  10.558 -0.0868  0.4020 -0.1901
 2931TIP3    H130208   6.130   3.789  10.620  0.7713  1.3455  1.0326
 2931TIP3    H230209   6.162   3.788  10.472 -1.2165 -1.4952  0.5328
 2932TIP3   OH230210   0.188   2.758  10.501  0.2724  0.7744 -0.0435
 2932TIP3    H130211   0.159   2.798  10.419  2.7769  0.8321 -0.9656
 2932TIP3    H230212   0.162   2.666  10.492 -0.7685  1.0631 -0.2214
 2933TIP3   OH230213   2.860   1.715  12.963  0.9533 -0.3492 -0.0167
 2933TIP3    H130214   2.805   1.691  12.888  0.6559 -0.3624  0.2021
 2933TIP3    H230215   2.895   1.801  12.941  1.2655 -0.5679 -0.3890
 2934TIP3   OH230216   4.586   5.506  12.575  0.0944 -0.0286 -0.0656
 2934TIP3    H130217   4.543   5.579  12.532 -0.1688 -0.6513 -0.8783
 2934TIP3    H230218   4.653   5.546  12.630  1.1597  0.7401 -1.8615
 2935TIP3   OH230219   1.591   5.290  15.134 -0.4631 -0.4238 -0.3196
 2935TIP3    H130220   1.506   5.307  15.093 -0.5980 -0.3621 -0.0149
 2935TIP3    H230221   1.653   5.345  15.086 -0.7972  0.4846  0.2615
 2936TIP3   OH230222   3.975   0.236   2.894 -0.2882  0.1999 -0.4690
 2936TIP3    H130223   3.928   0.320   2.890 -0.1023  0.4344  1.3827
 2936TIP3    H230224   3.966   0.208   2.985  0.4330 -1.3570 -0.8477
 2937TIP3   OH230225   4.046   2.230   2.167  0.2062  0.1392 -0.4627
 2937TIP3    H130226   4.014   2.270   2.086  2.8666  0.7369 -1.3087
 2937TIP3    H230227   4.098   2.155   2.139 -0.7056 -1.0622  0.8753
 2938TIP3   OH230228   1.132   5.150   1.804 -0.0272 -0.1766 -0.1469
 2938TIP3    H130229   1.183   5.074   1.833 -0.9248 -0.5587  0.4741
 2938TIP3    H230230   1.120   5.203   1.883  2.1027  1.5684 -0.8994
 2939TIP3   OH230231   4.499   1.471  13.065 -0.5132 -0.1794 -0.2923
 2939TIP3    H130232   4.444   1.540  13.104 -1.2365 -0.9246  0.0236
 2939TIP3    H230233   4.584   1.482  13.107 -0.8281  0.0579  0.3001
 2940TIP3   OH230234   0.827   3.461   3.109  0.0522  0.0759  0.3284
 2940TIP3    H130235   0.733   3.461   3.126  0.3468 -0.0232  2.1965
 2940TIP3    H230236   0.860   3.534   3.161  0.9769  0.3748 -0.6361
 2941TIP3   OH230237   4.189   2.187   3.054  0.3878 -0.3280 -0.1729
 2941TIP3    H130238   4.240   2.250   3.004 -2.6789 -0.1265 -3.4311
 2941TIP3    H230239   4.218   2.101   3.022  1.9359 -0.5059  1.5430
 2942TIP3   OH230240   4.031   4.743   0.044 -0.3800  0.2105 -0.1646
 2942TIP3    H130241   3.951   4.755   0.095 -1.9055  0.0011 -2.3853
 2942TIP3    H230242   4.072   4.830   0.044  0.4740 -0.1065  2.5756
 2943TIP3   OH230243   2.925   2.530   4.814  0.4816 -0.1859  0.1586
 2943TIP3    H130244   2.939   2.619   4.848 -2.0986  0.7582 -0.9614
 2943TIP3    H230245   2.879   2.484   4.884 -0.7903  0.3270 -0.3128
 2944TIP3   OH230246   2.877   3.609   3.673 -0.6881 -0.1690 -0.2159
 2944TIP3    H130247   2.903   3.671   3.605 -1.1021 -0.3456 -0.5455
 2944TIP3    H230248   2.831   3.539   3.625  0.2519 -1.0053  0.0808
 2945TIP3   OH230249   5.136   2.889  12.329  0.1314 -0.3026 -0.5862
 2945TIP3    H130250   5.150   2.808  12.280  0.9047 -0.3270 -0.3351
 2945TIP3    H230251   5.224   2.925  12.341 -0.0206 -0.3678  0.9130
 2946TIP3   OH230252   0.953   5.926   5.758 -0.6387 -0.4766  0.0635
 2946TIP3    H130253   0.871   5.966   5.787  0.3725  0.0025  2.4704
 2946TIP3    H230254   1.021   5.972   5.807  0.8876 -2.5374  0.0103
 2947TIP3   OH230255   1.575   3.127  14.371 -0.0161  0.3022 -0.5797
 2947TIP3    H130256   1.537   3.193  14.312 -3.2552  0.3676  1.3089
 2947TIP3    H230257   1.567   3.165  14.458  0.0699 -1.6958  0.3565
 2948TIP3   OH230258   2.868   5.224   3.965 -0.1124 -0.4500  0.1885
 2948TIP3    H130259   2.815   5.273   3.903 -0.3791  0.3578  1.0251
 2948TIP3    H230260   2.863   5.275   4.046  0.5742 -1.2471  0.7514
 2949TIP3   OH230261   2.212   4.817   1.222 -0.7676 -0.0630  0.9202
 2949TIP3    H130262   2.207   4.912   1.212 -1.2950 -0.2520 -1.1992
 2949TIP3    H230263   2.303   4.800   1.244 -0.8361  0.9703  2.0988
 2950TIP3   OH230264   1.318   1.555   3.473  0.0672  0.4961  0.1189
 2950TIP3    H130265   1.347   1.468   3.448  1.4871  0.9711  0.0033
 2950TIP3    H230266   1.314   1.604   3.391 -0.6141  0.5706  0.1945
 2951TIP3   OH230267   4.351   1.942  13.981  0.4755  0.1004 -0.2192
 2951TIP3    H130268   4.308   2.022  14.011  0.8753  1.1199 -2.2098
 2951TIP3    H230269   4.335   1.939  13.887  2.7123 -0.7376 -0.6407
 2952TIP3   OH230270   1.225   1.502  14.716 -0.0506 -0.4738  0.2792
 2952TIP3    H130271   1.270   1.576  14.674 -0.0060 -0.4819  0.3114
 2952TIP3    H230272   1.143   1.493  14.669  0.3594 -1.0180 -0.3641
 2953TIP3   OH230273   1.917   2.185   0.975 -0.2825  0.6328 -0.1444
 2953TIP3    H130274   1.906   2.143   0.889  2.3783  0.3345 -0.4171
 2953TIP3    H230275   1.890   2.118   1.038  1.8852 -0.8670 -0.6569
 2954TIP3   OH230276   6.002   1.909   4.870 -0.4990  0.4026  0.3121
 2954TIP3    H130277   5.923   1.957   4.894 -1.7105 -1.4798  0.2834
 2954TIP3    H230278   5.973   1.818   4.860  1.9609 -0.6633  1.9228
 2955TIP3   OH230279   3.946   5.827   0.190 -0.2707 -0.2728  0.0685
 2955TIP3    H130280   3.890   5.888   0.237 -1.0469  0.6974 -1.9726
 2955TIP3    H230281   3.909   5.824   0.101  1.6928 -1.1820 -0.7839
 2956TIP3   OH230282   4.340   3.030  14.747 -0.1035  0.4652 -0.5975
 2956TIP3    H130283   4.278   3.015  14.819  1.8152 -2.5273  0.6395
 2956TIP3    H230284   4.400   3.096  14.782 -0.6853  0.9549 -0.5058
 2957TIP3   OH230285   3.623   1.319  11.610  0.3890  0.1377  0.0304
 2957TIP3    H130286   3.581   1.251  11.662 -0.3414 -0.5940 -1.4716
 2957TIP3    H230287   3.691   1.274  11.560 -0.1001  0.4786 -0.9798
 2958TIP3   OH230288   2.711   3.328   0.570 -0.0641 -0.1833  0.1471
 2958TIP3    H130289   2.672   3.331   0.657  0.9640 -1.1360  0.6758
 2958TIP3    H230290   2.659   3.263   0.523 -0.4968  0.1881  0.1014
 2959TIP3   OH230291   6.772   3.121  17.105  0.4417  0.1752 -0.1791
 2959TIP3    H130292   6.848   3.071  17.137 -0.1247  0.1067  1.1459
 2959TIP3    H230293   6.808   3.181  17.041  1.5402 -0.2251  0.0380
 2960TIP3   OH230294   5.656   4.255   4.888 -0.1151  0.2010  0.0890
 2960TIP3    H130295   5.658   4.159   4.881 -0.0386  0.3223 -2.6877
 2960TIP3    H230296   5.744   4.278   4.919 -0.4631 -0.6281  1.8148
 2961TIP3   OH230297   3.222   6.666   3.523  0.1425 -0.0068 -0.1790
 2961TIP3    H130298   3.242   6.598   3.588 -0.3670 -1.2553 -1.2990
 2961TIP3    H230299   3.255   6.631   3.440  1.2839  1.8010 -0.5494
 2962TIP3   OH230300   3.619   4.669   1.022  0.3785  0.3223  0.8642
 2962TIP3    H130301   3.524   4.661   1.014  0.5272 -1.1778  0.3747
 2962TIP3    H230302   3.649   4.695   0.935  0.5261 -0.4639  0.6744
 2963TIP3   OH230303   0.735   5.920   2.503  0.1696  0.1782 -0.4360
 2963TIP3    H130304   0.722   5.935   2.597  0.6019 -0.3482 -0.2853
 2963TIP3    H230305   0.735   5.825   2.494  1.5830  0.1863 -0.7568
 2964TIP3   OH230306   4.278   3.423   1.031  0.0589  0.8140  0.4403
 2964TIP3    H130307   4.230   3.401   1.112  0.2923  0.4186  0.4718
 2964TIP3    H230308   4.362   3.457   1.062  0.1417  0.6783  0.3633
 2965TIP3   OH230309   6.297   6.730  12.152  0.0733 -0.0558  0.0782
 2965TIP3    H130310   6.224   6.779  12.190 -1.2384 -0.3200 -1.9380
 2965TIP3    H230311   6.347   6.698  12.227 -1.3401  0.9374  1.4998
 2966TIP3   OH230312   1.245   2.931  15.370 -0.0015  0.4012 -0.0037
 2966TIP3    H130313   1.330   2.963  15.400 -0.2292  1.8011 -0.8174
 2966TIP3    H230314   1.265   2.873  15.297  0.3335 -0.5659  0.8205
 2967TIP3   OH230315   5.657   2.434  16.917  0.2040  0.2488 -0.6984
 2967TIP3    H130316   5.731   2.490  16.892 -0.4174  1.5386  0.2125
 2967TIP3    H230317   5.586   2.461  16.860 -0.0489  0.2659 -0.3805
 2968TIP3   OH230318   4.352   3.462   5.232 -0.3899  0.6173 -0.0673
 2968TIP3    H130319   4.429   3.464   5.289 -0.5690  0.4095  0.1857
 2968TIP3    H230320   4.379   3.408   5.157 -0.1326  0.9463 -0.2118
 2969TIP3   OH230321   4.958   0.097  14.394 -0.9175  0.1426  0.4790
 2969TIP3    H130322   4.954   0.168  14.459 -0.0217  0.6295  0.0240
 2969TIP3    H230323   5.044   0.058  14.406 -1.1990 -0.5305  0.3601
 2970TIP3   OH230324   1.748   0.003  14.827 -0.2151  0.2771  0.4809
 2970TIP3    H130325   1.743   0.094  14.857 -1.3218  0.1107  0.8325
 2970TIP3    H230326   1.828   0.000  14.774  0.4563  1.1817  1.3891
 2971TIP3   OH230327   6.448   5.970  16.778 -0.3228 -0.1050 -0.1483
 2971TIP3    H130328   6.490   5.962  16.692 -0.1355  0.2574 -0.0962
 2971TIP3    H230329   6.356   5.950  16.762 -0.1464 -0.8242 -0.2821
 2972TIP3   OH230330   6.210   3.580   6.108 -0.6713 -0.0367  0.5372
 2972TIP3    H130331   6.141   3.588   6.174 -0.5720  0.5247  0.5771
 2972TIP3    H230332   6.238   3.670   6.091 -1.6672 -0.0472 -1.3146
 2973TIP3   OH230333   0.276   4.999  14.337 -0.3581 -0.5282  0.5029
 2973TIP3    H130334   0.275   5.089  14.304  0.4719 -1.1844 -1.4198
 2973TIP3    H230335   0.184   4.972  14.333 -0.3981 -0.2909 -0.4907
 2974TIP3   OH230336   3.935   1.420   0.367 -0.0432  0.0451 -0.2747
 2974TIP3    H130337   3.876   1.495   0.370 -1.4711 -1.0628  0.9076
 2974TIP3    H230338   3.995   1.434   0.440  0.5136  0.6281 -0.8219
 2975TIP3   OH230339   5.400   2.250  15.834 -0.5702 -0.2397 -0.0720
 2975TIP3    H130340   5.380   2.165  15.793 -2.2989  0.1661 -0.1109
 2975TIP3    H230341   5.339   2.311  15.794 -0.2389  0.7787  0.9403
 2976TIP3   OH230342   4.442   3.429  13.260  0.2704 -0.3700 -0.0156
 2976TIP3    H130343   4.516   3.370  13.279 -0.2767 -0.6293  1.4378
 2976TIP3    H230344   4.465   3.511  13.305  0.2947  0.0035 -0.7011
 2977TIP3   OH230345   0.514   0.384   0.324 -0.4829 -0.2140 -0.2500
 2977TIP3    H130346   0.439   0.370   0.381 -0.6629  1.7527  0.0807
 2977TIP3    H230347   0.528   0.479   0.325  0.7683 -0.3238 -1.8870
 2978TIP3   OH230348   4.735   1.104   3.069  0.0624 -0.2493 -0.2473
 2978TIP3    H130349   4.802   1.109   3.137  0.8626  1.0325 -1.0870
 2978TIP3    H230350   4.711   1.012   3.066  0.2508 -0.3894  1.5193
 2979TIP3   OH230351   0.447   2.351  16.797 -0.1500 -0.0578  0.1419
 2979TIP3    H130352   0.352   2.346  16.786  0.0113 -1.8985 -0.8882
 2979TIP3    H230353   0.462   2.337  16.890 -0.8357 -1.8970  0.0181
 2980TIP3   OH230354   6.250   6.207   3.399 -0.3018  0.2180  0.4665
 2980TIP3    H130355   6.294   6.267   3.338 -1.8092 -1.0648 -2.0650
 2980TIP3    H230356   6.313   6.194   3.470  1.9768  1.1069 -1.2712
 2981TIP3   OH230357   6.187   3.800  14.628 -0.0031 -0.4190  0.8859
 2981TIP3    H130358   6.148   3.887  14.632  2.0556  0.6515 -0.4024
 2981TIP3    H230359   6.229   3.797  14.543  0.7826 -2.3339  1.2953
 2982TIP3   OH230360   4.108   3.916  12.914  0.1355 -0.4952  0.1220
 2982TIP3    H130361   4.174   3.852  12.887 -0.6603 -0.3982 -2.1757
 2982TIP3    H230362   4.042   3.915  12.845 -0.3962  2.1121  0.4809
 2983TIP3   OH230363   5.189   5.352   2.090  0.1149  0.1190  0.1302
 2983TIP3    H130364   5.201   5.393   2.176 -2.3793  0.8101  0.2226
 2983TIP3    H230365   5.099   5.373   2.065  0.2216 -1.4851 -1.9257
 2984TIP3   OH230366   4.431   5.130  14.144  0.1180  0.4474  0.9480
 2984TIP3    H130367   4.509   5.123  14.088 -1.4927 -2.9150 -1.2506
 2984TIP3    H230368   4.463   5.110  14.232  1.6895 -2.3806 -0.1093
 2985TIP3   OH230369   2.162   6.418   5.408  0.1830  0.2118  0.5489
 2985TIP3    H130370   2.150   6.324   5.391  0.6687  0.2282  0.0503
 2985TIP3    H230371   2.176   6.456   5.321  1.9511  0.4406  0.9003
 2986TIP3   OH230372   6.645   1.711   2.443 -0.2512  0.0978  0.3563
 2986TIP3    H130373   6.561   1.752   2.423 -0.4258 -0.1997  0.4721
 2986TIP3    H230374   6.623   1.619   2.461  0.1807 -0.1342 -0.2819
 2987TIP3   OH230375   4.881   4.260   4.529  0.1474 -0.1503  0.0952
 2987TIP3    H130376   4.808   4.260   4.591 -0.4378 -0.6246 -0.5834
 2987TIP3    H230377   4.896   4.353   4.510 -0.2619 -0.0490  0.2620
 2988TIP3   OH230378   0.019   3.692  13.832  0.2991  0.3160 -0.8870
 2988TIP3    H130379   0.066   3.695  13.748 -0.0650  0.2553 -1.0946
 2988TIP3    H230380   0.082   3.725  13.896  0.5628  0.4082 -1.1931
 2989TIP3   OH230381   1.179   5.070   2.131 -0.2331  0.3461 -0.1445
 2989TIP3    H130382   1.265   5.033   2.110  0.3827  0.8676  1.3454
 2989TIP3    H230383   1.182   5.088   2.225 -2.3510 -0.5900  0.1705
 2990TIP3   OH230384   3.348   1.533  15.956  0.3551 -0.3079 -0.0465
 2990TIP3    H130385   3.284   1.496  15.896 -0.4656  0.3629  0.3959
 2990TIP3    H230386   3.311   1.617  15.982  1.0157 -0.2843  0.8699
 2991TIP3   OH230387   1.752   6.118   3.926  1.2631  0.0755 -0.2834
 2991TIP3    H130388   1.686   6.143   3.991  2.5535  1.6225  0.5188
 2991TIP3    H230389   1.836   6.128   3.972  2.2643  1.6905 -2.2690
 2992TIP3   OH230390   2.667   0.025   0.555  0.5519 -0.2745  0.6237
 2992TIP3    H130391   2.614   0.098   0.586  1.5202  1.9828 -2.4795
 2992TIP3    H230392   2.738   0.017   0.619  0.3991  1.5610  1.0755
 2993TIP3   OH230393   6.275   3.263   1.077  0.0893  0.5850  0.2208
 2993TIP3    H130394   6.291   3.197   1.144 -1.5139 -0.6177 -0.5214
 2993TIP3    H230395   6.335   3.240   1.006 -0.4429 -0.0463 -0.0232
 2994TIP3   OH230396   6.015   1.319  15.347 -0.2803  0.2047  0.2610
 2994TIP3    H130397   5.954   1.250  15.372  0.0352  0.5386  2.1133
 2994TIP3    H230398   6.065   1.337  15.427  2.8588 -0.6290 -1.3212
 2995TIP3   OH230399   1.016   5.635  11.186 -0.5594  0.3348  0.1206
 2995TIP3    H130400   1.092   5.691  11.201  0.0703 -0.2456 -0.7860
 2995TIP3    H230401   0.945   5.677  11.234  0.3277  0.8967  0.9753
 2996TIP3   OH230402   4.589   6.576   4.635 -0.5013 -0.0218  0.8940
 2996TIP3    H130403   4.625   6.578   4.547 -0.2008 -0.3792  1.0071
 2996TIP3    H230404   4.538   6.656   4.642 -0.4225  0.0692  0.4391
 2997TIP3   OH230405   6.404   6.355  13.634 -0.1964 -1.0030 -0.0020
 2997TIP3    H130406   6.330   6.339  13.575 -0.7151 -1.7431  0.8362
 2997TIP3    H230407   6.475   6.301  13.598 -0.3725 -1.0900 -0.2222
 2998TIP3   OH230408   0.373   2.493   2.900  0.4397 -0.4318  0.0904
 2998TIP3    H130409   0.310   2.524   2.834 -0.4905 -0.9576  0.7062
 2998TIP3    H230410   0.434   2.438   2.851  1.6212  1.6370 -0.8755
 2999TIP3   OH230411   2.953   2.229  15.430 -0.7182  0.2792 -0.3111
 2999TIP3    H130412   2.870   2.195  15.463  0.8951 -0.3750  3.6645
 2999TIP3    H230413   3.013   2.154  15.434  0.9124  1.5595  0.6057
 3000TIP3   OH230414   3.818   4.410  11.478  0.8159  0.0362  0.0068
 3000TIP3    H130415   3.856   4.379  11.560  1.4252 -2.9905 -1.2845
 3000TIP3    H230416   3.893   4.418  11.419  0.0251 -2.3129 -1.4746
 3001TIP3   OH230417   5.545   0.576  12.707  0.0744  0.4088 -0.0201
 3001TIP3    H130418   5.591   0.508  12.755  0.4605  0.2413 -0.6137
 3001TIP3    H230419   5.614   0.625  12.662 -0.2109  1.0893  0.2628
 3002TIP3   OH230420   5.128   2.314   1.363  0.1931  0.2330  0.1233
 3002TIP3    H130421   5.184   2.296   1.288  0.3256  0.2833  0.2090
 3002TIP3    H230422   5.080   2.232   1.378 -0.0548  0.3158 -0.2004
 3003TIP3   OH230423   5.913   2.752  14.697  0.0139  0.2960 -0.1678
 3003TIP3    H130424   5.848   2.716  14.637  1.0606  0.5387 -1.4826
 3003TIP3    H230425   5.921   2.844  14.671  2.1679 -0.1390 -1.2497
 3004TIP3   OH230426   3.164   1.431   2.827 -0.2769  0.1812  0.2487
 3004TIP3    H130427   3.194   1.345   2.855  0.6831  0.7316  0.9756
 3004TIP3    H230428   3.094   1.453   2.889  2.2242  1.6477  2.8080
 3005TIP3   OH230429   5.137   3.725  13.384  0.4496  0.8073 -0.2889
 3005TIP3    H130430   5.181   3.775  13.315  0.0824 -1.4394 -2.2781
 3005TIP3    H230431   5.208   3.696  13.442  1.4066 -0.7934 -2.1451
 3006TIP3   OH230432   6.366   6.362   1.191  0.9761 -0.0457 -0.7460
 3006TIP3    H130433   6.290   6.404   1.231  1.2570  1.3680 -1.6159
 3006TIP3    H230434   6.440   6.418   1.214  1.7248 -1.2111 -0.2138
 3007TIP3   OH230435   4.151   4.431  14.753 -0.4263 -0.3682 -0.3265
 3007TIP3    H130436   4.093   4.437  14.677 -0.9130 -0.7203  0.0064
 3007TIP3    H230437   4.204   4.510  14.749  0.0057 -0.6959 -1.3952
 3008TIP3   OH230438   0.050   0.214  11.094 -0.3454  0.7470 -0.5455
 3008TIP3    H130439  -0.014   0.206  11.024 -0.8261 -0.4615  0.0040
 3008TIP3    H230440   0.092   0.128  11.099 -0.8849  0.5322  1.1472
 3009TIP3   OH230441   1.246   0.326  17.099 -0.2750 -0.2195 -0.1044
 3009TIP3    H130442   1.217   0.409  17.061  0.3387  0.4218  0.7932
 3009TIP3    H230443   1.216   0.260  17.037 -0.7176  0.6749 -0.8717
 3010TIP3   OH230444   3.792   3.947   4.950  0.6404 -0.6007  0.6446
 3010TIP3    H130445   3.768   3.952   4.858  1.1296 -2.3355  0.3876
 3010TIP3    H230446   3.886   3.929   4.950  0.6020 -0.8623  1.4701
 3011TIP3   OH230447   4.192   6.376   2.751 -0.0205  0.1776 -0.1649
 3011TIP3    H130448   4.155   6.444   2.695 -0.2211 -0.9084 -1.3979
 3011TIP3    H230449   4.280   6.408   2.773  0.1686  0.5246 -1.3446
 3012TIP3   OH230450   3.625   3.429   4.608 -0.1828 -0.2966 -0.5109
 3012TIP3    H130451   3.635   3.448   4.515 -0.6818 -0.7753 -0.6712
 3012TIP3    H230452   3.652   3.509   4.652  0.1460 -0.0990 -1.0659
 3013TIP3   OH230453   3.266   4.275  12.358  0.1002  0.4442 -0.4347
 3013TIP3    H130454   3.231   4.189  12.383 -1.5430  1.1939 -0.0508
 3013TIP3    H230455   3.353   4.278  12.399  0.8026 -1.5679 -1.6015
 3014TIP3   OH230456   1.193   5.465   3.301 -0.3133  0.1721  0.4658
 3014TIP3    H130457   1.221   5.456   3.210 -0.4516 -2.0494  0.6040
 3014TIP3    H230458   1.263   5.515   3.343 -0.1975  1.1266 -0.8027
 3015TIP3   OH230459   4.533   4.270  11.256  0.0953  0.2588 -0.1565
 3015TIP3    H130460   4.562   4.344  11.310  0.7241 -0.9784  1.2728
 3015TIP3    H230461   4.614   4.225  11.233 -0.3022 -0.1394 -0.7751
 3016TIP3   OH230462   3.555   3.551  11.504 -0.1062  0.0629  0.0734
 3016TIP3    H130463   3.626   3.491  11.525 -0.8389  0.1083  3.1202
 3016TIP3    H230464   3.589   3.637  11.527 -0.1937  0.4468 -1.1828
 3017TIP3   OH230465   2.135   5.071  14.122  0.2796 -0.2432 -0.2108
 3017TIP3    H130466   2.225   5.048  14.144 -0.3024 -1.3041  1.2239
 3017TIP3    H230467   2.137   5.166  14.113  1.4853 -0.2209  0.0413
 3018TIP3   OH230468   2.044   3.546   3.537 -0.4780  0.5671  0.6712
 3018TIP3    H130469   2.124   3.493   3.540 -0.7482 -0.0268 -1.2031
 3018TIP3    H230470   1.977   3.486   3.504 -0.5463  2.2676 -2.6922
 3019TIP3   OH230471   2.131   5.451  16.434 -0.0385 -0.1596  0.0523
 3019TIP3    H130472   2.215   5.462  16.389 -0.3020  0.7606 -0.2406
 3019TIP3    H230473   2.075   5.519  16.397 -0.7536 -0.4178  0.6330
 3020TIP3   OH230474   2.121   6.583   3.715  0.5429 -0.1330  0.1709
 3020TIP3    H130475   2.124   6.497   3.758 -1.5143 -0.2638  0.1556
 3020TIP3    H230476   2.028   6.596   3.693  1.3337  0.1063 -3.8782
 3021TIP3   OH230477   4.159   4.434   0.643  0.4007  0.4593 -0.5243
 3021TIP3    H130478   4.157   4.449   0.737  2.0176  2.4850 -0.7315
 3021TIP3    H230479   4.067   4.428   0.617 -0.0729 -0.1409  1.1496
 3022TIP3   OH230480   6.236   3.198   2.408 -0.2786  0.0413 -0.2931
 3022TIP3    H130481   6.143   3.219   2.412 -0.1925  0.3533  0.0987
 3022TIP3    H230482   6.246   3.149   2.326 -0.6223  0.8403 -0.8206
 3023TIP3   OH230483   4.365   4.207  13.686  0.1459 -0.3729 -0.2046
 3023TIP3    H130484   4.293   4.210  13.749  1.1528 -0.5235  0.9877
 3023TIP3    H230485   4.346   4.277  13.624 -0.2382  0.6083  0.9849
 3024TIP3   OH230486   5.965   3.382   4.933 -0.1800  0.0056  0.3249
 3024TIP3    H130487   5.871   3.379   4.951  0.1589 -0.5453  2.3273
 3024TIP3    H230488   5.990   3.290   4.923  0.1372  0.1590 -0.3094
 3025TIP3   OH230489   3.823   5.910  11.605 -0.0557 -0.0414  0.3889
 3025TIP3    H130490   3.833   6.005  11.598  1.4760 -0.2836 -1.2467
 3025TIP3    H230491   3.901   5.881  11.652 -0.6394 -0.5080  1.1050
 3026TIP3   OH230492   1.755   5.292   5.459  0.1330  0.2286  0.0130
 3026TIP3    H130493   1.765   5.258   5.548  0.0023  1.1116  0.3654
 3026TIP3    H230494   1.844   5.317   5.432  0.3328 -0.9350 -0.4820
 3027TIP3   OH230495   5.230   3.716   1.906  0.6246 -0.3020 -0.0133
 3027TIP3    H130496   5.280   3.689   1.828 -0.5876 -0.0602 -0.8921
 3027TIP3    H230497   5.142   3.684   1.890  0.2605  0.1284  1.0815
 3028TIP3   OH230498   3.627   3.609  17.181  0.5346  0.5685  0.4988
 3028TIP3    H130499   3.552   3.563  17.217  0.6765 -0.5746 -0.5969
 3028TIP3    H230500   3.593   3.696  17.158 -0.3336  0.2349  0.4818
 3029TIP3   OH230501   5.903   6.716   2.207  0.2806 -0.3014 -0.0493
 3029TIP3    H130502   5.858   6.721   2.123  0.0537 -2.2194 -0.0880
 3029TIP3    H230503   5.967   6.646   2.196 -0.3173 -1.1594  1.6156
 3030TIP3   OH230504   4.354   5.973  14.235 -0.0425  0.2716 -0.2492
 3030TIP3    H130505   4.435   6.021  14.219  0.2804  0.1262  0.8678
 3030TIP3    H230506   4.355   5.955  14.329 -1.5832  0.6623 -0.1364
 3031TIP3   OH230507   4.542   1.262   0.822 -0.2830  0.2946  0.0283
 3031TIP3    H130508   4.568   1.191   0.764  1.1129  2.2778 -1.9428
 3031TIP3    H230509   4.456   1.235   0.856 -0.3709 -1.7382 -1.6306
 3032TIP3   OH230510   5.623   5.562   1.296 -0.2397  0.1474  0.0929
 3032TIP3    H130511   5.627   5.606   1.382 -0.3374  1.2065 -0.4215
 3032TIP3    H230512   5.534   5.578   1.266 -0.1384 -0.0356 -0.3040
 3033TIP3   OH230513   2.123   3.529  14.210 -0.1663  1.0661 -0.1162
 3033TIP3    H130514   2.153   3.443  14.179  0.4149  0.9890  0.6138
 3033TIP3    H230515   2.134   3.524  14.305 -2.7507  0.9567  0.2396
 3034TIP3   OH230516   6.701   2.587   4.686  1.0847  0.0874 -0.3234
 3034TIP3    H130517   6.643   2.516   4.712  1.1954 -0.2848 -1.0652
 3034TIP3    H230518   6.681   2.603   4.594  0.6886  1.3939 -0.0391
 3035TIP3   OH230519   3.311   4.846   5.396 -0.0217  0.2707  0.0796
 3035TIP3    H130520   3.297   4.934   5.431 -0.5385  0.0219  0.5126
 3035TIP3    H230521   3.406   4.840   5.384  0.1351  0.4935  1.1153
 3036TIP3   OH230522   3.586   2.870   3.708  0.0960  0.1532 -0.2730
 3036TIP3    H130523   3.640   2.794   3.689  1.7003  1.0576  0.4258
 3036TIP3    H230524   3.522   2.839   3.772 -0.9431 -1.1881 -1.8818
 3037TIP3   OH230525   5.286   0.017   6.025  0.0623 -0.1455 -0.2653
 3037TIP3    H130526   5.307  -0.039   6.100  0.1390 -2.8549 -2.1760
 3037TIP3    H230527   5.217   0.074   6.057 -2.1534 -3.2799  1.1251
 3038TIP3   OH230528   6.353   5.080  15.478  0.2436 -0.2240 -0.3343
 3038TIP3    H130529   6.261   5.100  15.498  1.4605  3.9589  2.2862
 3038TIP3    H230530   6.376   5.139  15.407  1.4695  0.4839  0.6196
 3039TIP3   OH230531   2.062   0.039  14.774  0.1176  0.3792  0.0602
 3039TIP3    H130532   2.136  -0.022  14.780  0.1841  0.2067 -1.7616
 3039TIP3    H230533   2.017   0.013  14.693 -0.9517  1.5628  0.2430
 3040TIP3   OH230534   5.817   3.705  12.543 -0.4890 -0.3748 -0.0637
 3040TIP3    H130535   5.903   3.723  12.581 -0.2747 -2.1414  0.3892
 3040TIP3    H230536   5.820   3.745  12.456  1.1474 -1.1730 -0.4155
 3041TIP3   OH230537   4.703   1.931   2.660 -0.0509 -0.0601 -0.0226
 3041TIP3    H130538   4.698   1.846   2.616 -1.0198  0.5284 -1.0976
 3041TIP3    H230539   4.665   1.993   2.598  1.8159  1.4015  0.1988
 3042TIP3   OH230540   2.954   1.433  13.350  0.7245  0.2601 -0.1699
 3042TIP3    H130541   2.932   1.341  13.358  0.1380  0.3021 -1.1470
 3042TIP3    H230542   2.919   1.474  13.430 -0.6752 -0.0640 -0.5956
 3043TIP3   OH230543   4.324   6.780  15.528  0.1789 -0.4115  0.2974
 3043TIP3    H130544   4.405   6.831  15.529 -0.9529  1.5288 -0.3635
 3043TIP3    H230545   4.262   6.834  15.478 -1.9690 -1.0772  2.0382
 3044TIP3   OH230546   2.743   2.045   6.240 -0.0762 -0.0836  0.0485
 3044TIP3    H130547   2.790   2.047   6.156  0.8311 -0.0130  0.5486
 3044TIP3    H230548   2.747   2.135   6.271  1.8725 -0.5681  1.3856
 3045TIP3   OH230549   2.127   3.865  13.047  0.0588 -0.2139 -0.3874
 3045TIP3    H130550   2.200   3.893  13.101  1.3420 -1.7213 -1.2417
 3045TIP3    H230551   2.122   3.931  12.978  0.3430  0.1246 -0.0878
 3046TIP3   OH230552   0.073   4.632  12.515  0.5771 -0.1471  0.0641
 3046TIP3    H130553   0.018   4.709  12.503  2.2207  1.4740  2.1715
 3046TIP3    H230554   0.097   4.605  12.426  0.2844  2.0082 -0.7125
 3047TIP3   OH230555   2.203   2.959   2.531  0.3834  0.0364 -0.4639
 3047TIP3    H130556   2.142   2.964   2.605 -1.0963  0.5610 -1.6660
 3047TIP3    H230557   2.272   3.022   2.552  0.2387 -0.1717  0.6797
 3048TIP3   OH230558   6.633   0.886   2.502  0.6804 -0.3396  0.0586
 3048TIP3    H130559   6.652   0.979   2.497 -0.4953 -0.1198 -0.9860
 3048TIP3    H230560   6.691   0.846   2.437 -0.9015  0.0865 -1.7162
 3049TIP3   OH230561   6.096   5.118  15.563 -0.0792 -0.0616 -0.0134
 3049TIP3    H130562   6.065   5.175  15.634  0.1920  1.0791 -0.7824
 3049TIP3    H230563   6.073   5.029  15.592  0.2506  0.3413  1.6119
 3050TIP3   OH230564   2.429   1.472   0.627 -0.8577  0.2432 -0.3617
 3050TIP3    H130565   2.428   1.558   0.585  1.2288  0.6373  0.2984
 3050TIP3    H230566   2.479   1.416   0.566  0.3184  0.2724  0.5453
 3051TIP3   OH230567   4.063   5.528  11.906 -0.1840 -0.1340 -0.1155
 3051TIP3    H130568   3.984   5.518  11.854 -0.5829  0.1430  0.4274
 3051TIP3    H230569   4.054   5.464  11.976 -0.6785  0.9630  0.8496
 3052TIP3   OH230570   2.287   5.997  15.106  0.1329  0.6165  0.2301
 3052TIP3    H130571   2.235   6.041  15.173 -0.5373  0.8188 -0.4111
 3052TIP3    H230572   2.346   5.940  15.155 -0.4488  0.6457  0.9851
 3053TIP3   OH230573   1.494   2.166   1.664 -0.0738 -0.3987 -0.4190
 3053TIP3    H130574   1.541   2.177   1.746 -2.8334 -0.4527  1.2948
 3053TIP3    H230575   1.456   2.252   1.646  0.8271 -0.2763 -1.9069
 3054TIP3   OH230576   5.449   5.959   4.233 -0.4233 -0.3926 -1.1281
 3054TIP3    H130577   5.492   6.021   4.291 -1.6205  0.4883 -1.1334
 3054TIP3    H230578   5.400   5.901   4.292  0.3866 -1.0955 -1.1417
 3055TIP3   OH230579   3.521   4.112  14.326 -0.3892  0.5225 -0.0922
 3055TIP3    H130580   3.534   4.066  14.409  1.3500  0.2073 -0.4952
 3055TIP3    H230581   3.444   4.070  14.287  0.1773 -0.9678  0.3072
 3056TIP3   OH230582   1.817   2.152  11.447  0.0488  0.2805  0.0768
 3056TIP3    H130583   1.863   2.165  11.530 -1.6427 -0.2039  1.1456
 3056TIP3    H230584   1.852   2.070  11.413  0.9079  0.5891  0.1964
 3057TIP3   OH230585   2.464   4.135  16.265 -0.9978  0.0153 -0.2592
 3057TIP3    H130586   2.473   4.216  16.216 -0.9577  0.3189  0.2524
 3057TIP3    H230587   2.552   4.097  16.265 -1.3447 -0.9092 -1.9948
 3058TIP3   OH230588   6.628   6.365   0.051  0.3285 -0.2894  0.2066
 3058TIP3    H130589   6.590   6.304   0.115  0.7122  1.2206  1.9452
 3058TIP3    H230590   6.552   6.407   0.011  0.0863 -1.0949 -0.2076
 3059TIP3   OH230591   0.496   6.689  12.711 -0.5883 -1.0034  0.7236
 3059TIP3    H130592   0.582   6.730  12.702 -0.0306 -2.1941  0.4939
 3059TIP3    H230593   0.434   6.756  12.679  0.5285 -1.3852 -2.5824
 3060TIP3   OH230594   0.558   1.575  15.685  0.5387  0.2558  0.1030
 3060TIP3    H130595   0.610   1.655  15.673 -0.7096  0.8590 -1.7804
 3060TIP3    H230596   0.485   1.603  15.740  0.7069  0.1122  0.4020
 3061TIP3   OH230597   5.783   3.645  16.017  0.3962  0.1357 -0.1012
 3061TIP3    H130598   5.834   3.565  16.008  0.5532 -0.0788  2.0580
 3061TIP3    H230599   5.838   3.714  15.980  1.0243 -0.5037 -0.3683
 3062TIP3   OH230600   1.259   6.190   3.352  0.1369  0.0057 -0.0986
 3062TIP3    H130601   1.251   6.117   3.414  0.4122  0.7813  0.8777
 3062TIP3    H230602   1.176   6.190   3.305 -0.0640 -0.6274  0.2363
 3063TIP3   OH230603   0.899   5.459  14.197  0.4367  0.1697 -0.4532
 3063TIP3    H130604   0.851   5.478  14.278  1.7465 -1.0715  0.6737
 3063TIP3    H230605   0.834   5.415  14.141  0.1193 -1.2836  0.9508
 3064TIP3   OH230606   6.403   2.969  11.170 -0.0547  0.8395 -0.6112
 3064TIP3    H130607   6.421   2.964  11.264 -1.2564 -1.0137 -0.4353
 3064TIP3    H230608   6.473   3.024  11.136  1.4872  0.0465  1.0937
 3065TIP3   OH230609   0.512   1.663   0.649  0.1068  0.3958  0.0156
 3065TIP3    H130610   0.561   1.682   0.729  0.9728 -0.0091 -0.4107
 3065TIP3    H230611   0.421   1.681   0.672  0.5679  2.5550  0.4118
 3066TIP3   OH230612   1.434   3.203  11.203  0.1500 -0.2024  0.3062
 3066TIP3    H130613   1.446   3.276  11.263  1.4110  0.2556 -0.4642
 3066TIP3    H230614   1.410   3.243  11.119  1.4588 -0.5861 -0.2883
 3067TIP3   OH230615   1.496   5.391  17.097  0.0465  0.0901 -0.2532
 3067TIP3    H130616   1.506   5.439  17.179 -1.3960  0.0999 -0.0513
 3067TIP3    H230617   1.449   5.453  17.040  1.8941  0.4675 -1.4565
 3068TIP3   OH230618   4.503   1.158   2.854 -0.4903  0.0431 -0.0200
 3068TIP3    H130619   4.564   1.090   2.882  1.1944  1.0136 -1.1286
 3068TIP3    H230620   4.500   1.219   2.928 -0.5798 -0.3054  0.2664
 3069TIP3   OH230621   1.262   4.749  15.619  0.0818  0.0588 -0.2759
 3069TIP3    H130622   1.166   4.755  15.621  0.1274  1.1858 -0.4890
 3069TIP3    H230623   1.285   4.702  15.699 -0.6279  0.2914  0.0732
 3070TIP3   OH230624   3.222   4.240  15.954 -0.3749  0.2632  0.0347
 3070TIP3    H130625   3.308   4.255  15.994 -0.5015  0.9789  0.0503
 3070TIP3    H230626   3.209   4.316  15.896 -0.8383 -0.0240 -0.2437
 3071TIP3   OH230627   2.374   5.184   4.946 -0.1784  0.2339  0.3082
 3071TIP3    H130628   2.315   5.223   4.881  0.0171  1.2767  0.7275
 3071TIP3    H230629   2.346   5.222   5.029  1.0132  0.6871  0.5250
 3072TIP3   OH230630   0.635   6.198  13.537 -0.2851  0.5701  0.6975
 3072TIP3    H130631   0.699   6.265  13.560 -2.3761  2.9897 -0.0083
 3072TIP3    H230632   0.576   6.194  13.612 -1.1252  0.8189  0.0771
 3073TIP3   OH230633   6.481   0.024   3.362 -0.3730 -0.2682  0.2060
 3073TIP3    H130634   6.396   0.029   3.404 -0.9119 -1.0173 -0.7612
 3073TIP3    H230635   6.493  -0.069   3.342  1.2021 -0.3678  1.3792
 3074TIP3   OH230636   4.385   4.089  11.104 -0.5298  0.4699 -0.4516
 3074TIP3    H130637   4.432   4.145  11.166  1.1262 -3.2933  2.0835
 3074TIP3    H230638   4.442   4.084  11.028  0.7505 -0.0624  0.5173
 3075TIP3   OH230639   3.129   5.787   2.133  0.1807 -0.2970  0.3773
 3075TIP3    H130640   3.174   5.769   2.216 -0.2946  0.3228  0.7820
 3075TIP3    H230641   3.067   5.715   2.123  0.9684 -0.9369  0.0217
 3076TIP3   OH230642   4.009   0.033  15.314  0.5370  0.5612  0.2764
 3076TIP3    H130643   4.047  -0.012  15.239  1.1403  1.6154 -0.0713
 3076TIP3    H230644   3.942  -0.027  15.347  2.0955 -1.0994  0.5601
 3077TIP3   OH230645   5.491   4.027   5.455 -0.0458 -0.6625 -0.3978
 3077TIP3    H130646   5.424   4.007   5.521 -0.1894  0.5078 -0.1588
 3077TIP3    H230647   5.473   4.118   5.430  2.2377  0.1708  0.6630
 3078TIP3   OH230648   5.200   6.637  17.198 -0.0743 -0.4045 -0.3282
 3078TIP3    H130649   5.139   6.679  17.258 -0.7199 -1.1859 -0.4235
 3078TIP3    H230650   5.149   6.621  17.119  0.4054 -0.5752 -0.6091
 3079TIP3   OH230651   2.067   0.371   3.495 -0.2658 -0.2857  0.0455
 3079TIP3    H130652   2.031   0.434   3.557 -2.6527  0.2966 -1.7753
 3079TIP3    H230653   2.119   0.425   3.434  0.7811 -0.6431  0.5934
 3080TIP3   OH230654   4.114   5.983   2.290  0.2448  0.1203  0.1327
 3080TIP3    H130655   4.079   6.030   2.214 -0.0255  0.6376  0.5772
 3080TIP3    H230656   4.076   6.027   2.366 -0.3582 -1.0879  0.5571
 3081TIP3   OH230657   3.517   2.734  15.995 -0.0061 -0.0289  0.2728
 3081TIP3    H130658   3.441   2.792  15.985  0.1419  0.2703  0.8272
 3081TIP3    H230659   3.481   2.650  16.020 -0.2704 -0.3626 -1.1235
 3082TIP3   OH230660   3.007   4.315   4.765  0.4621  0.5853 -0.7746
 3082TIP3    H130661   3.061   4.374   4.818 -1.3737  1.0870  0.6337
 3082TIP3    H230662   2.937   4.287   4.824  0.2014 -1.5235 -1.9741
 3083TIP3   OH230663   1.689   0.219  13.508 -0.5730  0.4564  0.1382
 3083TIP3    H130664   1.608   0.229  13.458 -1.4818  0.2725  1.5205
 3083TIP3    H230665   1.744   0.162  13.454 -1.5543  0.1851 -0.5931
 3084TIP3   OH230666   5.137   6.057   3.527  0.1898 -0.3635 -0.9491
 3084TIP3    H130667   5.181   6.069   3.611  0.7791 -1.3453 -1.1067
 3084TIP3    H230668   5.161   6.136   3.477  1.2200 -0.5588 -0.7856
 3085TIP3   OH230669   5.065   5.436   5.498 -0.3866 -0.4623  0.4577
 3085TIP3    H130670   5.140   5.493   5.514 -1.1247  0.7465 -0.2162
 3085TIP3    H230671   5.063   5.423   5.404  0.9094 -3.2961  0.7031
 3086TIP3   OH230672   4.653   4.609   1.475  0.3879 -0.5904  0.3467
 3086TIP3    H130673   4.709   4.595   1.551 -0.2125  0.1469  0.9310
 3086TIP3    H230674   4.700   4.674   1.423  0.9610 -1.3377 -0.1035
 3087TIP3   OH230675   1.119   1.733   1.234 -0.3538  0.1946  0.6316
 3087TIP3    H130676   1.192   1.778   1.276  0.4876  0.3735 -0.9677
 3087TIP3    H230677   1.101   1.658   1.291  0.3697  0.7315  1.5927
 3088TIP3   OH230678   6.734   3.394  13.065 -0.1346 -1.0374  0.2795
 3088TIP3    H130679   6.654   3.342  13.062 -0.2884 -0.7839 -1.9561
 3088TIP3    H230680   6.710   3.477  13.022  1.0539 -0.5524  0.5110
 3089TIP3   OH230681   2.041   3.217   5.245 -0.3330 -0.2618 -0.1310
 3089TIP3    H130682   2.070   3.128   5.227 -1.1513 -1.3832  3.2775
 3089TIP3    H230683   2.097   3.246   5.317 -1.6461  1.0266  0.4239
 3090TIP3   OH230684   1.925   2.908  14.316  0.2802  0.6460 -0.1841
 3090TIP3    H130685   1.926   2.962  14.396  2.5063  1.6423 -0.7895
 3090TIP3    H230686   1.869   2.956  14.255  0.1778  0.9267  0.1240
 3091TIP3   OH230687   0.280   4.759  16.794  0.2502 -0.6440 -0.9483
 3091TIP3    H130688   0.346   4.815  16.834 -0.9669  1.5695 -1.8071
 3091TIP3    H230689   0.307   4.670  16.815  2.9450  0.1930 -0.4688
 3092TIP3   OH230690   0.257   3.266   1.307  0.7735 -0.1636 -0.4112
 3092TIP3    H130691   0.181   3.242   1.255  0.4502  1.5396 -0.7740
 3092TIP3    H230692   0.275   3.188   1.360 -1.4253 -0.4824 -0.0437
 3093TIP3   OH230693   0.645   3.893  14.225 -0.3936 -0.0590  0.0231
 3093TIP3    H130694   0.587   3.837  14.174 -0.6638  1.2083 -1.1189
 3093TIP3    H230695   0.589   3.929  14.294 -0.8659  0.7825 -0.7844
 3094TIP3   OH230696   5.952   0.314   5.689 -0.0356 -0.3128 -0.0396
 3094TIP3    H130697   6.011   0.326   5.763  0.9251 -0.9575 -0.6874
 3094TIP3    H230698   5.864   0.320   5.727  0.4230  0.9087  0.8928
 3095TIP3   OH230699   2.419   0.670   6.224 -0.1938 -0.2145 -0.6190
 3095TIP3    H130700   2.347   0.610   6.241  0.9792 -1.6166 -0.4491
 3095TIP3    H230701   2.462   0.682   6.309  0.6109 -0.5273 -0.9673
 3096TIP3   OH230702   1.709   6.184   0.752  0.0470  0.0882  0.0943
 3096TIP3    H130703   1.737   6.108   0.803  0.9358 -0.3229 -0.9551
 3096TIP3    H230704   1.639   6.151   0.695 -0.8701  0.5204  0.9289
 3097TIP3   OH230705   4.891   1.219   0.115 -0.4856 -0.3379  0.1247
 3097TIP3    H130706   4.916   1.130   0.142 -1.4175 -0.4247  0.7220
 3097TIP3    H230707   4.820   1.206   0.052  0.7861 -0.0831 -1.4245
 3098TIP3   OH230708   0.290   3.163   6.388 -0.8723  0.1197  0.4735
 3098TIP3    H130709   0.350   3.219   6.437 -0.1625 -0.1197 -0.1014
 3098TIP3    H230710   0.203   3.184   6.423 -0.4579  0.4973  1.2888
 3099TIP3   OH230711   5.444   4.971   4.616 -0.9138  0.1070 -0.6545
 3099TIP3    H130712   5.473   5.049   4.570 -2.2807  1.1473  0.1640
 3099TIP3    H230713   5.524   4.922   4.634  0.2560  2.3744  0.6883
 3100TIP3   OH230714   3.962   3.479  11.900 -0.1599  0.1944  0.1367
 3100TIP3    H130715   3.969   3.496  11.994  0.0331  0.6297  0.0477
 3100TIP3    H230716   4.046   3.438  11.877  1.0341  2.6634 -0.3569
 3101TIP3   OH230717   0.542   2.962  17.028 -0.2272  0.2408 -0.1640
 3101TIP3    H130718   0.527   2.868  17.030  2.8431 -0.3576  1.8497
 3101TIP3    H230719   0.579   2.978  16.941 -1.9187 -0.1312 -0.9851
 3102TIP3   OH230720   4.125   4.668   3.003  0.3213  0.9815  0.3024
 3102TIP3    H130721   4.068   4.633   3.071 -0.0032  1.2644  0.1838
 3102TIP3    H230722   4.176   4.736   3.047  1.4170 -0.0725  0.6844
 3103TIP3   OH230723   2.109   6.284  16.652 -0.5141  0.2336  0.0480
 3103TIP3    H130724   2.097   6.347  16.723 -1.1324 -0.0391  0.1928
 3103TIP3    H230725   2.025   6.285  16.605 -0.2308  0.1577 -0.4735
 3104TIP3   OH230726   0.740   1.752  15.603 -0.4246  0.2335 -0.5690
 3104TIP3    H130727   0.782   1.728  15.521  3.5266  0.7945  1.0845
 3104TIP3    H230728   0.721   1.845  15.595  2.4043  0.9354 -0.0294
 3105TIP3   OH230729   2.566   4.109   0.710  0.6509 -0.1567 -0.1307
 3105TIP3    H130730   2.527   4.036   0.760  2.4478 -2.0548 -1.3293
 3105TIP3    H230731   2.561   4.081   0.619  0.0339  1.9610 -0.8002
 3106TIP3   OH230732   0.908   0.504  14.154  0.3433  0.5104  0.1818
 3106TIP3    H130733   0.885   0.498  14.061 -1.1645 -0.7796  0.5990
 3106TIP3    H230734   0.933   0.415  14.178 -0.7141  0.5124  1.3633
 3107TIP3   OH230735   5.818   2.451  11.278  0.3191 -0.0165  0.1135
 3107TIP3    H130736   5.901   2.490  11.306 -0.1625  1.4735 -0.4163
 3107TIP3    H230737   5.841   2.392  11.207  1.1146 -0.9677  1.1334
 3108TIP3   OH230738   1.319   0.541  15.687  0.0638  0.4060  0.7489
 3108TIP3    H130739   1.285   0.547  15.777 -0.4441 -1.0306  0.6747
 3108TIP3    H230740   1.243   0.516  15.634  0.3278  1.3851 -0.1233
 3109TIP3   OH230741   1.718   2.727   3.233 -0.0060 -0.0829 -0.0411
 3109TIP3    H130742   1.639   2.689   3.271  0.2415 -0.6962 -0.1275
 3109TIP3    H230743   1.713   2.820   3.255  0.2798 -0.4556  1.7707
 3110TIP3   OH230744   5.049   0.547  13.946  0.3853  0.1611  0.3475
 3110TIP3    H130745   5.061   0.640  13.964 -0.7909  0.3415  0.2473
 3110TIP3    H230746   5.133   0.507  13.970  0.6381  1.1310  1.1315
 3111TIP3   OH230747   2.238   0.393   4.928 -0.0982 -0.1730  0.0011
 3111TIP3    H130748   2.317   0.436   4.894 -0.4112 -0.2409 -0.8377
 3111TIP3    H230749   2.269   0.309   4.963  0.2762  0.0331  0.1657
 3112TIP3   OH230750   0.645   4.284  15.784  0.6809 -0.2284  0.7189
 3112TIP3    H130751   0.555   4.254  15.787  0.0848  1.3788  0.0673
 3112TIP3    H230752   0.664   4.317  15.872 -0.1666  1.5203  0.2874
 3113TIP3   OH230753   1.638   6.211  11.806 -0.0152  0.5726 -0.4247
 3113TIP3    H130754   1.543   6.222  11.806  0.1206  2.2112 -1.3724
 3113TIP3    H230755   1.656   6.151  11.878 -1.6468  1.5000  0.8242
 3114TIP3   OH230756   1.135   5.481  13.829 -0.4495 -0.3005  0.0186
 3114TIP3    H130757   1.173   5.566  13.808 -1.1096  0.0072  0.0394
 3114TIP3    H230758   1.115   5.485  13.923  0.9467 -1.0580  0.3720
 3115TIP3   OH230759   6.521   1.285  15.373 -0.1849 -0.5039 -0.3683
 3115TIP3    H130760   6.522   1.261  15.466 -0.4342 -1.4261 -0.5890
 3115TIP3    H230761   6.609   1.315  15.355 -0.7128  1.8823  0.7006
 3116TIP3   OH230762   2.527   0.506  12.301 -0.1905  0.1957 -0.1509
 3116TIP3    H130763   2.521   0.601  12.303  1.7019  0.3658 -0.7276
 3116TIP3    H230764   2.561   0.482  12.387  2.0052  0.3284 -0.9238
 3117TIP3   OH230765   1.949   5.054   5.652  0.1115 -0.0304 -0.1259
 3117TIP3    H130766   2.005   5.011   5.717  0.9152 -0.6279 -1.1919
 3117TIP3    H230767   1.952   5.147   5.675  1.9176  0.0104 -0.4415
 3118TIP3   OH230768   2.658   1.405  11.727  0.6624 -0.0897  0.3665
 3118TIP3    H130769   2.678   1.322  11.683  1.0851  1.5735 -2.8653
 3118TIP3    H230770   2.723   1.466  11.693 -0.8334  2.0437  1.1502
 3119TIP3   OH230771   2.585   2.367   0.094  0.3055 -0.3265 -0.2246
 3119TIP3    H130772   2.543   2.424   0.159  0.5253  0.8811 -1.1064
 3119TIP3    H230773   2.521   2.360   0.023  1.1046  0.5491 -1.0504
 3120TIP3   OH230774   5.820   5.111   0.656 -0.2691 -0.2196 -0.5279
 3120TIP3    H130775   5.774   5.033   0.623 -2.8679  0.2935  1.4956
 3120TIP3    H230776   5.789   5.119   0.746  1.3269  2.1725 -0.1246
 3121TIP3   OH230777   4.518   1.924  14.515 -1.0582  0.0114 -0.2078
 3121TIP3    H130778   4.599   1.975  14.513  0.3732 -2.1034 -2.1441
 3121TIP3    H230779   4.478   1.940  14.429 -1.4943 -0.7353 -0.1475
 3122TIP3   OH230780   4.367   5.680   6.265  0.2032  0.6312  0.0686
 3122TIP3    H130781   4.326   5.640   6.341 -2.4445  0.2396 -1.4595
 3122TIP3    H230782   4.451   5.634   6.256  1.1735  1.4670  3.3115
 3123TIP3   OH230783   5.959   5.753  15.449  0.5306 -0.1287 -0.1641
 3123TIP3    H130784   6.028   5.803  15.404  1.5380 -0.2967  1.1242
 3123TIP3    H230785   5.965   5.665  15.413  1.6987 -0.4014  0.6215
 3124TIP3   OH230786   2.374   5.923  11.986  0.7457 -0.0643 -0.2246
 3124TIP3    H130787   2.373   6.018  11.976 -0.2526 -0.0128  0.1847
 3124TIP3    H230788   2.459   5.903  12.025  0.6072  0.7626  0.5337
 3125TIP3   OH230789   0.308   1.228  14.217  0.0452 -0.5450 -0.2833
 3125TIP3    H130790   0.362   1.243  14.295  0.8396 -0.9078 -0.7474
 3125TIP3    H230791   0.357   1.270  14.146  0.2597 -1.7864 -0.8970
 3126TIP3   OH230792   4.300   5.399  16.885 -0.0304 -0.6155  0.4541
 3126TIP3    H130793   4.273   5.307  16.878  1.2701 -0.9844 -0.1866
 3126TIP3    H230794   4.330   5.421  16.796 -0.9025  0.6226  0.4567
 3127TIP3   OH230795   1.900   4.250  17.146  0.3069 -0.4452 -1.1299
 3127TIP3    H130796   1.816   4.256  17.191  0.5567  1.3037 -0.8273
 3127TIP3    H230797   1.922   4.157  17.150  0.0927 -0.4888  2.0090
 3128TIP3   OH230798   1.030   6.676  10.469 -0.2141  0.3020 -0.3574
 3128TIP3    H130799   1.057   6.724  10.390 -1.2794  0.9072 -0.3779
 3128TIP3    H230800   0.935   6.669  10.461 -0.1281 -1.5488 -0.1799
 3129TIP3   OH230801   4.487   1.292   4.761 -0.8103  0.0606 -0.3879
 3129TIP3    H130802   4.505   1.200   4.739  0.3610  0.4998 -1.3696
 3129TIP3    H230803   4.399   1.290   4.799 -0.3143 -1.6387  0.8198
 3130TIP3   OH230804   4.365   2.416  14.236  0.2198  1.0688 -0.2300
 3130TIP3    H130805   4.408   2.353  14.294  0.7911  0.1614 -1.5904
 3130TIP3    H230806   4.285   2.372  14.208  0.0152  1.4439 -0.2411
 3131TIP3   OH230807   3.797   4.634   3.465  0.9105  0.3876  0.0291
 3131TIP3    H130808   3.779   4.580   3.388 -1.3436 -1.5612  1.7621
 3131TIP3    H230809   3.867   4.589   3.511  0.0960 -0.2484  0.6791
 3132TIP3   OH230810   4.463   3.498  14.713 -0.2384  0.1879 -0.1343
 3132TIP3    H130811   4.475   3.480  14.620  2.2479 -3.3874  0.6695
 3132TIP3    H230812   4.525   3.568  14.732 -0.6814  0.8641 -1.0901
 3133TIP3   OH230813   5.772   6.287   3.784  0.1531 -0.5620 -0.3779
 3133TIP3    H130814   5.866   6.304   3.792  0.0206 -0.2801  0.8682
 3133TIP3    H230815   5.757   6.277   3.690  1.2223  0.5925 -0.7000
 3134TIP3   OH230816   0.981   1.199   4.707  0.0341  0.5763  0.1674
 3134TIP3    H130817   0.956   1.288   4.733 -0.2570  0.7292 -0.6216
 3134TIP3    H230818   1.077   1.201   4.705  0.0089  1.4496 -1.7530
 3135TIP3   OH230819   5.875   2.456   0.044 -0.3427 -0.0839  0.3440
 3135TIP3    H130820   5.957   2.472  -0.002 -0.8507 -0.3621 -0.7019
 3135TIP3    H230821   5.841   2.376   0.004 -1.1345  0.0518  0.7347
 3136TIP3   OH230822   2.930   1.754   0.006 -0.2460 -0.2043 -0.4412
 3136TIP3    H130823   2.958   1.765  -0.085  0.4985 -1.1398 -0.3329
 3136TIP3    H230824   2.888   1.668   0.008 -1.8292  0.5417 -0.2629
 3137TIP3   OH230825   4.394   1.623   5.643  0.0264 -0.3291 -0.0282
 3137TIP3    H130826   4.413   1.704   5.690 -0.6523 -1.2422  1.9171
 3137TIP3    H230827   4.471   1.610   5.587  1.1143  0.5391  1.2079
 3138TIP3   OH230828   4.176   4.185  12.875  0.2343 -0.0697 -0.1645
 3138TIP3    H130829   4.271   4.193  12.870  0.2083  0.7883  0.5532
 3138TIP3    H230830   4.161   4.092  12.894  0.8625 -0.4533 -1.4326
 3139TIP3   OH230831   4.616   2.928  16.880  0.4880  0.3923 -0.5132
 3139TIP3    H130832   4.640   2.913  16.788  0.6210  0.8895 -0.5614
 3139TIP3    H230833   4.699   2.922  16.928  0.3339 -0.4861 -0.3413
 3140TIP3   OH230834   3.830   6.371   3.372  0.0048  0.0208  0.2084
 3140TIP3    H130835   3.861   6.460   3.387  1.6775 -0.7396  1.5852
 3140TIP3    H230836   3.776   6.377   3.293  1.8294  1.8648 -0.9912
 3141TIP3   OH230837   2.065   4.853   2.690  0.6387  0.5073  0.0490
 3141TIP3    H130838   2.143   4.908   2.687  0.6626  0.4634 -0.2352
 3141TIP3    H230839   2.080   4.793   2.762  0.0552  1.6929  1.1983
 3142TIP3   OH230840   5.740   0.421  12.823 -0.6610  0.4230 -0.0922
 3142TIP3    H130841   5.813   0.404  12.764  1.2841  1.9119  1.7349
 3142TIP3    H230842   5.737   0.344  12.881  0.1995  0.8357  0.5154
 3143TIP3   OH230843   1.340   2.423  10.671  0.0525  0.3871 -0.0372
 3143TIP3    H130844   1.405   2.373  10.623 -0.0648 -1.0862  1.2710
 3143TIP3    H230845   1.313   2.492  10.610  1.7837  0.1732 -1.1067
 3144TIP3   OH230846   5.925   6.539   5.795  0.3182 -0.1852 -0.4135
 3144TIP3    H130847   5.893   6.628   5.781  0.3863 -0.0512  0.2675
 3144TIP3    H230848   5.868   6.503   5.862  1.7053  0.1508  1.0196
 3145TIP3   OH230849   5.539   4.811  13.176  0.5552 -0.2160 -0.5456
 3145TIP3    H130850   5.544   4.897  13.134  1.0153 -0.1288 -0.3133
 3145TIP3    H230851   5.620   4.804  13.226  0.0947 -0.3888  0.1978
 3146TIP3   OH230852   6.357   4.901  11.737  0.4708  0.4409 -0.0770
 3146TIP3    H130853   6.358   4.896  11.833 -0.4832  0.4614 -0.0579
 3146TIP3    H230854   6.299   4.830  11.710 -1.7794  2.3307 -0.4805
 3147TIP3   OH230855   0.176   2.326  14.936  0.0973  0.0884 -0.0065
 3147TIP3    H130856   0.269   2.337  14.957  0.0246 -1.5258  1.4614
 3147TIP3    H230857   0.137   2.410  14.957  1.1110  0.5427  0.1258
 3148TIP3   OH230858   4.983   5.303   2.802 -0.1320  0.0396  0.1974
 3148TIP3    H130859   4.936   5.224   2.828 -0.3090  0.3599  0.8648
 3148TIP3    H230860   5.041   5.274   2.732 -0.6067 -0.5626  0.0446
 3149TIP3   OH230861   4.572   5.483  16.169 -0.4436  0.5062  0.2206
 3149TIP3    H130862   4.513   5.481  16.094 -0.0127 -1.3264 -0.1112
 3149TIP3    H230863   4.528   5.430  16.236  0.9203 -1.1655 -0.1458
 3150TIP3   OH230864   5.402   1.353   3.084  0.2401  0.0013  0.2294
 3150TIP3    H130865   5.445   1.308   3.157  1.1587  0.9040  0.2682
 3150TIP3    H230866   5.435   1.308   3.006  0.8471  0.3275  0.2863
 3151TIP3   OH230867   4.413   2.859   2.154  0.7315 -0.2666 -0.5191
 3151TIP3    H130868   4.394   2.917   2.080 -1.3929 -0.4526 -0.1943
 3151TIP3    H230869   4.327   2.838   2.190  1.6638 -0.8909  1.4760
 3152TIP3   OH230870   5.406   4.211  11.343 -0.1188  0.0936  0.0512
 3152TIP3    H130871   5.481   4.194  11.286 -0.5220  0.4079 -0.5971
 3152TIP3    H230872   5.422   4.159  11.421  0.9326  0.4098  0.0616
 3153TIP3   OH230873   3.755   1.366   6.401 -0.7633 -0.2461  0.4223
 3153TIP3    H130874   3.800   1.376   6.317 -0.9762 -2.0019  0.0748
 3153TIP3    H230875   3.823   1.336   6.461 -1.1170 -1.3839  0.2710
 3154TIP3   OH230876   3.081   4.375  11.803 -0.5855  0.1008  0.0625
 3154TIP3    H130877   3.022   4.392  11.876  0.1012  0.3885  0.5669
 3154TIP3    H230878   3.119   4.289  11.821 -1.0190 -0.1887 -0.3818
 3155TIP3   OH230879   6.768   0.953  14.906 -0.2986  0.0669  0.3432
 3155TIP3    H130880   6.689   1.005  14.888  0.3158  0.8179 -0.2166
 3155TIP3    H230881   6.839   1.017  14.907  0.4962 -0.7826 -0.5317
 3156TIP3   OH230882   5.068   1.542  17.035 -0.0435  0.1589 -0.0078
 3156TIP3    H130883   4.975   1.552  17.051  0.2393  0.9527  1.3190
 3156TIP3    H230884   5.098   1.630  17.014  0.5539  0.0956  0.5305
 3157TIP3   OH230885   2.343   2.334   1.725 -0.3287  0.3296  0.2094
 3157TIP3    H130886   2.286   2.281   1.670 -0.8213 -1.8301  2.6511
 3157TIP3    H230887   2.430   2.298   1.711 -0.0170  1.4904 -1.0421
 3158TIP3   OH230888   0.583   2.220   4.479 -0.3181  0.6047  0.3840
 3158TIP3    H130889   0.611   2.151   4.420 -2.1048  0.7988 -0.7507
 3158TIP3    H230890   0.632   2.203   4.560  1.3095 -0.3407 -0.7471
 3159TIP3   OH230891   1.444   1.890   1.626 -0.5432 -0.1385 -0.0053
 3159TIP3    H130892   1.537   1.875   1.639  0.5327  2.7045 -2.9153
 3159TIP3    H230893   1.432   1.983   1.646 -2.9147 -0.5656  0.8396
 3160TIP3   OH230894   0.763   0.543   3.881 -0.0658 -0.0479  0.3097
 3160TIP3    H130895   0.830   0.517   3.817 -0.3645  0.0998 -0.0670
 3160TIP3    H230896   0.723   0.621   3.843  0.4356  0.6534  1.1649
 3161TIP3   OH230897   3.363   2.530   4.488 -0.1769  0.3722  0.0217
 3161TIP3    H130898   3.316   2.589   4.547  1.6466  2.2224 -0.2539
 3161TIP3    H230899   3.338   2.559   4.400  0.6450  0.6924 -0.1160
 3162TIP3   OH230900   0.257   2.901   6.292  0.0804  0.4553 -0.2464
 3162TIP3    H130901   0.338   2.892   6.342  0.3360 -1.1163 -0.8594
 3162TIP3    H230902   0.245   2.995   6.280 -0.5133  0.9981  3.5312
 3163TIP3   OH230903   4.234   0.816  16.275  0.3840 -0.1203 -0.0761
 3163TIP3    H130904   4.203   0.895  16.232 -2.9727 -1.4759 -0.4601
 3163TIP3    H230905   4.262   0.846  16.362 -0.3525  1.5664 -0.3735
 3164TIP3   OH230906   3.211   2.751   4.935  0.4328  0.3046 -0.4396
 3164TIP3    H130907   3.235   2.811   5.006  1.4041 -0.8151  0.2167
 3164TIP3    H230908   3.132   2.790   4.896  0.8278  1.8065  0.1819
 3165TIP3   OH230909   1.755   2.123   3.334 -0.3360  1.1200 -0.0022
 3165TIP3    H130910   1.840   2.146   3.297  0.8650  0.5405  2.2572
 3165TIP3    H230911   1.694   2.132   3.261  1.6295  1.6575 -1.6532
 3166TIP3   OH230912   2.951   2.223  13.246 -0.9377  0.5707 -0.3428
 3166TIP3    H130913   2.981   2.313  13.260 -1.1896  0.2735  2.7625
 3166TIP3    H230914   2.868   2.232  13.199 -0.5445  1.8819 -0.8265
 3167TIP3   OH230915   6.254   2.861   2.503  0.5732 -0.0586  0.3455
 3167TIP3    H130916   6.233   2.845   2.595  0.1021  1.1048  0.4585
 3167TIP3    H230917   6.168   2.867   2.461  0.7853 -0.3538 -0.1357
 3168TIP3   OH230918   2.227   3.968   3.888  0.0257  0.3086 -0.0808
 3168TIP3    H130919   2.140   3.982   3.927 -0.7378 -0.2088 -1.4993
 3168TIP3    H230920   2.263   3.893   3.936 -1.0225 -0.5155 -0.5268
 3169TIP3   OH230921   2.451   5.918   5.034 -0.1125 -0.4331  0.7507
 3169TIP3    H130922   2.493   5.888   5.115 -1.0682 -0.2004  1.3397
 3169TIP3    H230923   2.358   5.917   5.054 -0.3743 -0.6676 -0.4575
 3170TIP3   OH230924   1.822   3.552   0.122  0.9287 -0.3293 -0.6432
 3170TIP3    H130925   1.834   3.580   0.031  1.6758  0.2234 -0.3885
 3170TIP3    H230926   1.893   3.490   0.137  0.6944 -0.5604 -0.4908
 3171TIP3   OH230927   0.163   6.389  11.691 -0.2868 -0.7162  0.8493
 3171TIP3    H130928   0.204   6.305  11.672  0.8541 -0.3930  1.7409
 3171TIP3    H230929   0.074   6.381  11.657  0.3828 -1.5847 -0.8598
 3172TIP3   OH230930   1.338   1.712  15.483 -0.0184  0.1645  0.9452
 3172TIP3    H130931   1.387   1.631  15.496  2.0379  0.9856 -0.9057
 3172TIP3    H230932   1.404   1.781  15.489 -0.4827  1.2394 -3.1890
 3173TIP3   OH230933   5.359   5.202   6.950  0.2571  0.2247  0.3214
 3173TIP3    H130934   5.326   5.290   6.938 -0.9982 -0.2482  0.2311
 3173TIP3    H230935   5.311   5.167   7.025  0.5646 -0.4725  0.2083
 3174TIP3   OH230936   0.618   5.701  13.995  0.1077 -0.3380 -0.8877
 3174TIP3    H130937   0.537   5.660  13.965 -0.3675 -0.0465 -0.0326
 3174TIP3    H230938   0.594   5.791  14.014  0.6440 -0.2333 -0.6931
 3175TIP3   OH230939   2.026   0.921   0.909  0.4834  0.3765  0.5562
 3175TIP3    H130940   2.021   0.875   0.993  0.2461 -0.1637  0.2551
 3175TIP3    H230941   1.983   0.862   0.848  3.2517 -0.6427 -0.5558
 3176TIP3   OH230942   5.098   1.293   2.230 -0.2802  0.1589 -0.2177
 3176TIP3    H130943   5.164   1.245   2.180  1.0245 -0.0988  1.6349
 3176TIP3    H230944   5.014   1.262   2.195  0.5245  0.2172 -2.3907
 3177TIP3   OH230945   4.474   5.987   4.520  0.5182 -0.3264  0.2223
 3177TIP3    H130946   4.561   5.947   4.507  0.8462  0.6266 -0.6238
 3177TIP3    H230947   4.457   6.034   4.439 -0.9090 -0.6771  0.2891
 3178TIP3   OH230948   0.123   5.878  12.722  0.3173 -0.1680  0.4118
 3178TIP3    H130949   0.159   5.943  12.662 -0.8451  2.1084  1.9981
 3178TIP3    H230950   0.029   5.895  12.723  0.1709 -0.8380  2.0351
 3179TIP3   OH230951   0.526   1.812   0.256  0.2881 -0.0806 -0.1580
 3179TIP3    H130952   0.581   1.825   0.333 -1.2902 -0.6443  1.1055
 3179TIP3    H230953   0.581   1.761   0.196  1.0770 -0.8343  1.1563
 3180TIP3   OH230954   5.354   1.445   5.491  0.0802  0.2682  0.1725
 3180TIP3    H130955   5.289   1.514   5.505 -1.8216 -1.3647 -0.2088
 3180TIP3    H230956   5.424   1.489   5.443 -1.4476  1.7866 -0.8155
 3181TIP3   OH230957   1.026   5.330  14.635 -0.4631 -0.9879 -0.2341
 3181TIP3    H130958   0.973   5.331  14.715  1.2625  0.6219  0.9704
 3181TIP3    H230959   1.108   5.374  14.659  0.6769 -1.6769 -2.5304
 3182TIP3   OH230960   4.805   0.894  14.438  0.2593  0.1450 -0.0646
 3182TIP3    H130961   4.762   0.860  14.360  0.4117 -1.1673  0.3970
 3182TIP3    H230962   4.734   0.913  14.499  0.2441 -2.6306  0.9426
 3183TIP3   OH230963   4.162   5.647   0.080  0.2628  0.4108 -0.2684
 3183TIP3    H130964   4.237   5.701   0.058 -0.1052  0.5669 -1.2165
 3183TIP3    H230965   4.087   5.707   0.079  0.2034  0.4252  1.4819
 3184TIP3   OH230966   6.775   0.408  11.950 -0.2010  0.6816  0.0549
 3184TIP3    H130967   6.810   0.430  12.036  2.6158 -0.4128 -0.7127
 3184TIP3    H230968   6.818   0.326  11.927 -0.2006  1.3794 -2.7482
 3185TIP3   OH230969   1.689   3.453  13.602 -0.1657 -0.7967  0.1168
 3185TIP3    H130970   1.737   3.509  13.541 -0.6924  0.6252  0.9619
 3185TIP3    H230971   1.757   3.399  13.644  0.3369 -0.8487 -0.7489
 3186TIP3   OH230972   4.654   0.212  12.137 -0.1239 -0.2161 -0.1043
 3186TIP3    H130973   4.568   0.253  12.144  0.7309  2.3001 -2.4869
 3186TIP3    H230974   4.715   0.284  12.148  1.6464 -1.6180 -0.2775
 3187TIP3   OH230975   3.075   0.382   0.862  0.4142 -0.4518  0.4005
 3187TIP3    H130976   3.009   0.351   0.799 -0.4029 -0.9479  1.4659
 3187TIP3    H230977   3.108   0.463   0.825 -0.3591 -0.5184 -0.4618
 3188TIP3   OH230978   5.716   1.939  13.089  0.0191 -0.0735  0.4667
 3188TIP3    H130979   5.625   1.936  13.062  0.0981  0.6128  0.1143
 3188TIP3    H230980   5.734   2.031  13.105  0.9293 -0.0695 -0.4600
 3189TIP3   OH230981   6.035   5.737  13.143  0.0025 -0.0276 -0.4540
 3189TIP3    H130982   6.036   5.785  13.060  1.7621  1.6063  0.4062
 3189TIP3    H230983   5.948   5.698  13.147 -0.1115 -0.2388 -3.0806
 3190TIP3   OH230984   4.589   1.252  10.937 -0.3153  0.4093 -0.0407
 3190TIP3    H130985   4.678   1.241  10.970 -0.8230 -0.5314  1.0811
 3190TIP3    H230986   4.578   1.182  10.872 -0.0732  0.8515 -0.5663
 3191TIP3   OH230987   2.558   1.927   1.306 -0.2213 -0.8334  0.2979
 3191TIP3    H130988   2.635   1.956   1.257 -0.6294 -1.3960 -0.7151
 3191TIP3    H230989   2.566   1.832   1.309 -0.7324 -0.8734  0.4278
 3192TIP3   OH230990   4.885   2.957   5.823 -0.0769 -0.9121 -0.4253
 3192TIP3    H130991   4.927   2.878   5.858  0.3033 -0.4154  0.2602
 3192TIP3    H230992   4.954   2.999   5.771  0.2983 -0.0864  0.7138
 3193TIP3   OH230993   3.397   6.547  11.752  0.8204  0.8700  0.7051
 3193TIP3    H130994   3.343   6.623  11.726 -1.2632 -0.3017  1.3649
 3193TIP3    H230995   3.459   6.536  11.680 -3.5470 -1.1649 -3.2562
 3194TIP3   OH230996   1.725   5.363  16.900  0.6726 -0.1933 -0.1201
 3194TIP3    H130997   1.760   5.326  16.819 -1.3322 -0.3914 -0.9703
 3194TIP3    H230998   1.680   5.290  16.943 -1.3568  0.6369 -0.6761
 3195TIP3   OH230999   0.007   3.240  12.453  0.4985  0.0289 -0.2447
 3195TIP3    H131000   0.008   3.304  12.525  0.5341  0.6690 -0.8095
 3195TIP3    H231001   0.021   3.156  12.496 -0.2916  0.3071  0.6043
 3196TIP3   OH231002   6.001   0.388  14.446 -0.6403 -0.8909  0.1721
 3196TIP3    H131003   6.006   0.354  14.357  0.7440  0.7141 -0.4242
 3196TIP3    H231004   6.067   0.340  14.494  1.5084  0.9661 -0.7333
 3197TIP3   OH231005   0.971   1.183  15.946 -0.1019 -0.2700  0.3870
 3197TIP3    H131006   1.025   1.241  16.001  0.5640 -0.9204  0.4258
 3197TIP3    H231007   0.977   1.221  15.859 -1.5669  1.0623  0.8128
 3198TIP3   OH231008   5.223   5.591  14.383  0.7617  0.0078 -0.6759
 3198TIP3    H131009   5.160   5.534  14.426 -0.2696  0.7989 -1.0692
 3198TIP3    H231010   5.304   5.541  14.379  0.5685 -0.4889  1.1606
 3199TIP3   OH231011   6.259   1.670  16.443  0.1790  0.5374  0.2807
 3199TIP3    H131012   6.355   1.662  16.441  0.0107 -2.5663 -0.0254
 3199TIP3    H231013   6.240   1.699  16.532  1.3727  0.6929  0.5098
 3200TIP3   OH231014   3.027   5.244  13.331 -0.2297  0.2486  0.3539
 3200TIP3    H131015   3.083   5.198  13.393 -0.3033 -0.4530 -0.0966
 3200TIP3    H231016   3.087   5.275  13.263 -0.3091  0.0261  0.1839
 3201TIP3   OH231017   5.359   2.969   2.346  0.1332 -0.5872  0.3304
 3201TIP3    H131018   5.317   3.017   2.274 -1.4261 -1.1175  0.8510
 3201TIP3    H231019   5.446   3.010   2.355 -0.3744  0.7504 -0.5891
 3202TIP3   OH231020   1.545   2.566   2.756 -0.6716 -0.3693 -0.1889
 3202TIP3    H131021   1.498   2.516   2.689 -0.7606 -1.4683  0.6469
 3202TIP3    H231022   1.629   2.522   2.764 -0.2363  0.4270 -0.3455
 3203TIP3   OH231023   6.543   2.359   0.401  0.2964  0.2659  0.2323
 3203TIP3    H131024   6.533   2.264   0.408  0.3020  0.2692  0.2868
 3203TIP3    H231025   6.595   2.371   0.322  1.4411  0.1510  0.9437
 3204TIP3   OH231026   3.893   3.143  14.949  0.5876 -0.2816  0.5083
 3204TIP3    H131027   3.922   3.230  14.923 -2.1884  0.5017 -0.2957
 3204TIP3    H231028   3.845   3.158  15.031 -1.4659 -0.6869 -0.5565
 3205TIP3   OH231029   0.152   4.969  12.898  0.1624  0.4733 -0.4404
 3205TIP3    H131030   0.209   4.912  12.847 -0.7293  0.1668 -1.1125
 3205TIP3    H231031   0.064   4.954  12.862 -0.2241  1.5490  0.0202
 3206TIP3   OH231032   5.698   5.450   4.657  0.5168  0.4465 -0.5594
 3206TIP3    H131033   5.612   5.435   4.695 -0.0990  1.5168 -1.4335
 3206TIP3    H231034   5.760   5.405   4.715 -0.6609 -0.6896 -0.1520
 3207TIP3   OH231035   0.046   5.349   0.079  0.6655 -0.6838  0.2094
 3207TIP3    H131036   0.044   5.264   0.034 -0.2882 -0.4897 -0.1423
 3207TIP3    H231037  -0.044   5.361   0.110  1.4151 -1.1721  2.8904
 3208TIP3   OH231038   1.160   2.895   4.163  0.0814  0.2842 -0.0206
 3208TIP3    H131039   1.231   2.832   4.153  0.5606  0.8022  0.1142
 3208TIP3    H231040   1.182   2.945   4.241  0.0439  1.0614 -0.5041
 3209TIP3   OH231041   2.150   6.710   5.648  0.1923 -0.1083 -0.2593
 3209TIP3    H131042   2.154   6.710   5.552 -2.7865 -1.6187 -0.5089
 3209TIP3    H231043   2.081   6.773   5.669 -0.2203 -0.8903  0.7924
 3210TIP3   OH231044   3.425   1.342  16.207  0.7710  0.2190 -0.0178
 3210TIP3    H131045   3.384   1.269  16.160  1.5724  0.0689 -0.5164
 3210TIP3    H231046   3.486   1.379  16.143  1.5104  0.3423  0.7381
 3211TIP3   OH231047   4.114   5.392   6.902  0.5931  0.4961 -0.7116
 3211TIP3    H131048   4.032   5.360   6.941  1.4486  0.2469  0.9435
 3211TIP3    H231049   4.173   5.317   6.905  0.9731  0.7429 -1.6766
 3212TIP3   OH231050   0.213   5.681   1.080 -0.0556  0.7706 -0.8777
 3212TIP3    H131051   0.175   5.674   1.168  0.9589 -0.4786 -0.5105
 3212TIP3    H231052   0.138   5.702   1.023 -1.1533 -0.6623 -0.0456
 3213TIP3   OH231053   6.332   6.182  11.649  0.0466  0.4636 -0.3271
 3213TIP3    H131054   6.397   6.136  11.598 -0.6921  1.2368 -2.0460
 3213TIP3    H231055   6.373   6.266  11.670  0.8741 -0.3728  1.6241
 3214TIP3   OH231056   1.007   1.254   3.847 -0.6435  0.3013  0.6875
 3214TIP3    H131057   1.026   1.190   3.916 -2.1272  0.3011  1.1378
 3214TIP3    H231058   1.085   1.254   3.792  0.4269  0.0112  2.1431
 3215TIP3   OH231059   4.338   0.391  11.755 -0.1076  0.7279  0.4806
 3215TIP3    H131060   4.354   0.485  11.751  1.1498  0.4949 -0.6311
 3215TIP3    H231061   4.423   0.353  11.780 -0.7039 -0.0960  1.3355
 3216TIP3   OH231062   0.921   2.865  11.405  0.3403 -0.0023 -0.0357
 3216TIP3    H131063   0.896   2.794  11.465  0.6816 -0.2518 -0.1819
 3216TIP3    H231064   1.001   2.901  11.443  1.1651 -0.8547 -0.8788
 3217TIP3   OH231065   0.769   2.031  15.520  0.6588 -0.5204  0.1142
 3217TIP3    H131066   0.729   2.117  15.532  0.9953 -0.5396  1.5591
 3217TIP3    H231067   0.836   2.045  15.453  0.3743  0.2420 -0.0221
 3218TIP3   OH231068   4.645   3.647  17.029 -0.0648  0.6566 -0.1433
 3218TIP3    H131069   4.734   3.612  17.027 -0.3490 -0.0663 -0.6812
 3218TIP3    H231070   4.638   3.692  17.113  0.6147  0.1951  0.1652
 3219TIP3   OH231071   1.440   1.119   5.609 -0.2000  0.2341  0.0352
 3219TIP3    H131072   1.529   1.108   5.575  0.4685  0.2597  1.6585
 3219TIP3    H231073   1.390   1.046   5.571  0.3289  0.6130 -1.4311
 3220TIP3   OH231074   3.642   2.828   4.300  0.2557 -0.0104  0.7790
 3220TIP3    H131075   3.625   2.791   4.386 -0.2824  2.5460  1.8616
 3220TIP3    H231076   3.709   2.895   4.315 -0.3884  1.0138 -0.6195
 3221TIP3   OH231077   6.620   0.034   5.263  0.1879 -0.0545  0.2860
 3221TIP3    H131078   6.579   0.055   5.180  1.0039  0.1660 -0.0710
 3221TIP3    H231079   6.705   0.079   5.260  0.5047 -0.5938  0.9501
 3222TIP3   OH231080   4.084   0.300  11.798  0.4540 -0.1013  0.0381
 3222TIP3    H131081   4.176   0.326  11.797  0.0792  1.3055  0.1043
 3222TIP3    H231082   4.059   0.303  11.891  0.1026  0.4149 -0.0709
 3223TIP3   OH231083   1.756   1.433  15.065 -0.2548  0.6775  0.4377
 3223TIP3    H131084   1.686   1.481  15.020 -0.3147 -0.0755 -0.2829
 3223TIP3    H231085   1.710   1.374  15.125 -0.3490 -1.1885 -1.3889
 3224TIP3   OH231086   2.212   6.195   5.631  0.0833 -0.1806  0.0639
 3224TIP3    H131087   2.135   6.201   5.687 -0.8174 -2.0729 -0.8611
 3224TIP3    H231088   2.177   6.171   5.545  1.6734 -0.5748 -0.5132
 3225TIP3   OH231089   6.680   1.537   4.759 -0.6402 -0.6290 -0.5657
 3225TIP3    H131090   6.694   1.445   4.781 -0.1325 -0.2590  0.7516
 3225TIP3    H231091   6.638   1.574   4.836 -0.5685  0.3119 -0.9656
 3226TIP3   OH231092   1.790   2.036   5.269 -0.6560 -0.1408 -0.2620
 3226TIP3    H131093   1.881   2.033   5.242 -0.9502  0.5137 -1.3790
 3226TIP3    H231094   1.756   2.117   5.232 -1.8791 -0.7163 -0.4784
 3227TIP3   OH231095   3.636   5.208   4.076 -0.5693  0.2642 -0.3696
 3227TIP3    H131096   3.646   5.192   4.170 -1.4122 -0.7424 -0.4282
 3227TIP3    H231097   3.564   5.151   4.050 -0.3255  0.5075 -1.6389
 3228TIP3   OH231098   6.721   3.789   4.848 -0.0959  0.1109  0.0888
 3228TIP3    H131099   6.785   3.750   4.907  0.2871  0.3930 -0.1296
 3228TIP3    H231100   6.774   3.840   4.786 -0.4790 -0.2568 -0.5510
 3229TIP3   OH231101   2.320   1.373   2.068  0.1395 -0.2036 -0.3470
 3229TIP3    H131102   2.362   1.432   2.130 -1.1510  1.1346 -0.6996
 3229TIP3    H231103   2.342   1.285   2.100  0.0483  0.4480  1.6370
 3230TIP3   OH231104   6.550   2.562   0.015 -0.1149 -0.2701  0.4876
 3230TIP3    H131105   6.643   2.565  -0.008 -0.2319  0.5122  0.1128
 3230TIP3    H231106   6.545   2.606   0.100 -0.1693 -0.2132  0.4535
 3231TIP3   OH231107   4.714   0.874  11.036  0.2576 -0.4864 -0.2024
 3231TIP3    H131108   4.742   0.792  10.995 -0.4404  0.9432 -4.0247
 3231TIP3    H231109   4.629   0.893  10.995  0.6032  2.3210  0.1857
 3232TIP3   OH231110   3.495   0.061  12.066 -0.2173  0.0545 -0.0200
 3232TIP3    H131111   3.510   0.076  11.973  0.4892 -0.4498  0.0031
 3232TIP3    H231112   3.424  -0.004  12.068  1.1700 -1.5313 -0.2792
 3233TIP3   OH231113   5.043   0.794  14.572 -0.1341  0.1482 -0.2219
 3233TIP3    H131114   5.107   0.860  14.544 -0.0715 -0.3313 -1.2558
 3233TIP3    H231115   4.958   0.832  14.550 -0.1915  0.5512  0.6506
 3234TIP3   OH231116   3.691   4.207  14.085 -0.5302 -0.0750  0.2877
 3234TIP3    H131117   3.710   4.113  14.080  0.5580  0.1845 -0.9529
 3234TIP3    H231118   3.596   4.213  14.073 -0.7547 -1.0669  1.3853
 3235TIP3   OH231119   1.217   1.483   5.382  0.5388  0.0147 -0.0124
 3235TIP3    H131120   1.158   1.419   5.421 -1.5073  0.3152 -2.3450
 3235TIP3    H231121   1.230   1.548   5.450 -0.5125 -0.8911  1.1088
 3236TIP3   OH231122   5.086   1.882  15.058  0.1578 -0.2184 -0.6676
 3236TIP3    H131123   4.998   1.910  15.086  0.2459  0.4976 -1.0834
 3236TIP3    H231124   5.094   1.792  15.090 -0.5078 -0.0921 -0.1287
 3237TIP3   OH231125   1.047   0.129   5.421  0.1175 -0.4471  0.1422
 3237TIP3    H131126   1.004   0.044   5.431 -0.4872 -0.0092  1.4943
 3237TIP3    H231127   0.975   0.190   5.402  0.5424 -0.2151 -0.7950
 3238TIP3   OH231128   1.295   4.927   5.674 -0.0589  0.6161  0.2745
 3238TIP3    H131129   1.273   5.005   5.623 -3.3324  0.5241  1.3410
 3238TIP3    H231130   1.248   4.856   5.630  0.9445 -0.3467  0.7157
 3239TIP3   OH231131   5.428   1.814   3.105  0.3442 -0.2674 -0.1260
 3239TIP3    H131132   5.428   1.831   3.011 -0.3745  2.8578  0.3459
 3239TIP3    H231133   5.339   1.784   3.124 -0.5028  2.0729 -0.0792
 3240TIP3   OH231134   0.543   5.566   4.968  0.1527  0.7443 -0.0016
 3240TIP3    H131135   0.569   5.629   5.035 -1.2705  1.2452  0.1013
 3240TIP3    H231136   0.494   5.498   5.015 -0.2108  0.7073 -0.4267
 3241TIP3   OH231137   2.786   2.008   1.927  0.5048 -0.4677  0.1444
 3241TIP3    H131138   2.816   2.097   1.906 -0.7400 -0.0861 -0.1335
 3241TIP3    H231139   2.786   2.005   2.023  1.8317 -0.6410  0.1508
 3242TIP3   OH231140   6.388   5.046  13.118  0.4627 -0.6319  0.3979
 3242TIP3    H131141   6.432   5.081  13.040  1.4042 -0.2048  1.0953
 3242TIP3    H231142   6.443   5.075  13.191 -1.9260  1.5155  1.4993
 3243TIP3   OH231143   2.296   5.988   4.693 -0.0109 -0.3012 -0.0160
 3243TIP3    H131144   2.276   6.079   4.714 -1.5653 -0.6309  0.0336
 3243TIP3    H231145   2.278   5.940   4.775 -1.2545 -0.9107 -0.6136
 3244TIP3   OH231146   5.192   2.352  15.699 -0.3961  0.0217  0.3097
 3244TIP3    H131147   5.176   2.280  15.638  2.7890 -0.1239 -0.5430
 3244TIP3    H231148   5.217   2.426  15.643  3.7584 -0.4308  1.2682
 3245TIP3   OH231149   2.537   6.458  14.261  0.3345 -0.5065 -0.0979
 3245TIP3    H131150   2.630   6.475  14.277  0.4690 -1.4849  0.1990
 3245TIP3    H231151   2.511   6.400  14.332 -0.6376  0.1518  0.1058
 3246TIP3   OH231152   2.209   6.085  16.167 -0.0993  0.5344 -0.5394
 3246TIP3    H131153   2.261   6.043  16.099 -1.1064  1.8004 -2.1836
 3246TIP3    H231154   2.242   6.049  16.249 -0.9672 -3.5377 -1.7844
 3247TIP3   OH231155   3.818   5.071   2.055 -0.3039  0.0074 -0.2134
 3247TIP3    H131156   3.747   5.013   2.082  0.1894 -0.4557  0.0987
 3247TIP3    H231157   3.798   5.093   1.964  0.3544 -1.9742 -0.8994
 3248TIP3   OH231158   0.412   0.759  15.399  0.0776 -0.3751 -0.6414
 3248TIP3    H131159   0.358   0.683  15.419 -0.2771  0.0115 -0.1113
 3248TIP3    H231160   0.372   0.798  15.322 -0.4541 -0.0457 -0.2063
 3249TIP3   OH231161   4.079   5.477  16.677 -0.3315 -0.3738  0.0591
 3249TIP3    H131162   4.000   5.459  16.728 -2.3186  2.7528 -1.5694
 3249TIP3    H231163   4.047   5.491  16.588  2.3871 -0.9851 -1.0990
 3250TIP3   OH231164   6.261   1.092   0.813  0.3732 -0.2359  0.0038
 3250TIP3    H131165   6.249   1.176   0.770  0.2488  1.2491  2.7665
 3250TIP3    H231166   6.334   1.051   0.766  1.0408  1.8049 -0.8165
 3251TIP3   OH231167   6.010   2.747   3.381 -0.2074 -0.2898  0.2050
 3251TIP3    H131168   5.934   2.772   3.433  0.1508 -1.4263  1.3227
 3251TIP3    H231169   6.031   2.659   3.410  0.4475 -0.6898 -1.3860
 3252TIP3   OH231170   0.883   4.543  13.609  0.7829  0.1615 -0.3456
 3252TIP3    H131171   0.877   4.600  13.686 -0.9897 -0.9626  0.3930
 3252TIP3    H231172   0.808   4.567  13.556 -0.6939 -2.2128  0.5426
 3253TIP3   OH231173   2.673   4.816   3.595 -0.2754 -0.0426  0.3013
 3253TIP3    H131174   2.709   4.800   3.682 -0.7885  1.4537  0.8278
 3253TIP3    H231175   2.691   4.736   3.546  0.4482 -0.7297  1.6372
 3254TIP3   OH231176   3.548   1.790  16.879 -0.1260 -0.5365 -0.0870
 3254TIP3    H131177   3.502   1.795  16.963 -0.0500 -2.4494  0.0972
 3254TIP3    H231178   3.640   1.797  16.903 -0.1691  2.3584 -0.3771
 3255TIP3   OH231179   0.369   6.204  11.866  0.9905 -0.7005 -0.7694
 3255TIP3    H131180   0.345   6.201  11.773 -0.9860  0.4590 -0.3441
 3255TIP3    H231181   0.294   6.167  11.912  1.9109 -1.1872  0.3951
 3256TIP3   OH231182   3.944   6.360   6.945 -0.2075  0.0710  0.2316
 3256TIP3    H131183   3.862   6.332   6.984 -1.5146  1.8659 -1.0625
 3256TIP3    H231184   3.960   6.297   6.874 -0.4673 -0.2738  0.4765
 3257TIP3   OH231185   0.556   3.880   2.553  0.0074  0.4367  0.6070
 3257TIP3    H131186   0.540   3.936   2.629  0.6980  2.2899 -0.5677
 3257TIP3    H231187   0.632   3.827   2.578  0.8791  1.7549  0.8567
 3258TIP3   OH231188   1.428   4.591  14.701  0.5248  0.1395 -0.3265
 3258TIP3    H131189   1.502   4.531  14.704  0.4589 -0.0685 -1.9799
 3258TIP3    H231190   1.450   4.654  14.631 -0.4329  0.6278 -0.2147
 3259TIP3   OH231191   6.195   4.109  16.961 -0.1148  0.2778 -0.1276
 3259TIP3    H131192   6.109   4.069  16.975 -0.1256 -0.1368 -1.2700
 3259TIP3    H231193   6.249   4.077  17.034  0.1178 -2.5450 -1.3986
 3260TIP3   OH231194   4.954   1.032   1.719  0.2248 -0.2351  0.1071
 3260TIP3    H131195   4.916   0.981   1.648  0.2662  0.0771 -0.1413
 3260TIP3    H231196   5.049   1.020   1.709  0.3249  1.1008 -0.8889
 3261TIP3   OH231197   4.597   0.886   2.272 -0.3479 -0.2581 -0.0983
 3261TIP3    H131198   4.686   0.858   2.295 -0.7323 -0.1778  1.5826
 3261TIP3    H231199   4.543   0.809   2.286 -0.6940 -0.0269 -0.1422
 3262TIP3   OH231200   5.319   4.817   4.834  0.2362 -0.5260 -0.1170
 3262TIP3    H131201   5.351   4.877   4.766  0.5846 -0.9811 -0.3566
 3262TIP3    H231202   5.227   4.805   4.814 -0.1098  0.7549  0.5474
 3263TIP3   OH231203   5.660   1.461  15.847  0.8386  0.5075 -0.3565
 3263TIP3    H131204   5.567   1.447  15.828  0.9609 -0.1847 -0.4899
 3263TIP3    H231205   5.704   1.448  15.763  1.0677  0.7517 -0.2776
 3264TIP3   OH231206   1.822   0.014   4.039 -0.4669  0.4188  0.1104
 3264TIP3    H131207   1.833   0.107   4.059  0.4987  0.1141  1.0941
 3264TIP3    H231208   1.728  -0.001   4.046 -0.7304  1.4679 -0.7994
 3265TIP3   OH231209   2.447   4.062  15.315  0.0961  0.1730  0.1861
 3265TIP3    H131210   2.530   4.074  15.268  0.5592  0.0949  0.9639
 3265TIP3    H231211   2.457   4.115  15.394  0.0588 -1.1289  1.0864
 3266TIP3   OH231212   4.039   5.600   0.664 -0.2907  0.1465  0.0440
 3266TIP3    H131213   4.085   5.670   0.618 -0.2329  0.3190  0.3597
 3266TIP3    H231214   3.975   5.568   0.601  0.4592 -0.2980 -0.5039
 3267TIP3   OH231215   6.169   1.521   0.802  0.3894 -0.2792 -0.1905
 3267TIP3    H131216   6.209   1.532   0.889  0.7342 -0.6788 -0.2953
 3267TIP3    H231217   6.076   1.512   0.820  0.2029  1.5850 -0.0090
 3268TIP3   OH231218   0.094   0.351   0.113 -0.0734 -0.1821  0.2110
 3268TIP3    H131219   0.099   0.260   0.084 -0.7749  0.2363 -1.3343
 3268TIP3    H231220   0.043   0.347   0.194  1.3462 -1.3139  1.1012
 3269TIP3   OH231221   3.335   6.664   1.507 -0.5885  0.2263  0.0228
 3269TIP3    H131222   3.307   6.585   1.461  0.6516  0.2490 -0.8387
 3269TIP3    H231223   3.429   6.672   1.486 -0.2873  0.9675  1.5041
 3270TIP3   OH231224   5.524   0.630  14.694 -0.1843  0.1369  0.9880
 3270TIP3    H131225   5.564   0.568  14.755  0.4799 -0.6651 -0.2187
 3270TIP3    H231226   5.575   0.620  14.613 -1.4496  0.6793  0.0877
 3271TIP3   OH231227   1.807   4.522  15.372 -0.4559  0.3858  0.3307
 3271TIP3    H131228   1.886   4.521  15.425  0.2815  0.8277 -0.7282
 3271TIP3    H231229   1.825   4.461  15.300 -2.2819 -1.9422  1.7038
 3272TIP3   OH231230   4.923   2.246  15.197 -0.8570  0.1605 -0.4744
 3272TIP3    H131231   4.852   2.305  15.170 -2.8345 -1.3173  1.1474
 3272TIP3    H231232   4.920   2.249  15.292  0.1039 -1.2977 -0.3846
 3273TIP3   OH231233   2.407   5.424  15.572 -0.4574 -0.0182  0.2133
 3273TIP3    H131234   2.348   5.353  15.547 -2.2008  2.0438 -1.9884
 3273TIP3    H231235   2.350   5.492  15.608  1.1599  0.3642  2.2523
 3274TIP3   OH231236   2.545   4.335  12.291 -0.7755 -0.0630  0.0881
 3274TIP3    H131237   2.573   4.247  12.319  2.1429  0.3216 -1.2558
 3274TIP3    H231238   2.497   4.320  12.210 -2.1297 -0.5308  0.9432
 3275TIP3   OH231239   0.557   6.136  14.696  0.4944  0.0705  0.2718
 3275TIP3    H131240   0.605   6.131  14.613  0.3025  0.4663  0.1366
 3275TIP3    H231241   0.475   6.181  14.674 -1.0139 -2.6212  0.0155
 3276TIP3   OH231242   2.621   5.339   5.685  0.0888 -0.1332 -0.3178
 3276TIP3    H131243   2.681   5.384   5.745 -0.0224 -0.7704  0.2811
 3276TIP3    H231244   2.567   5.409   5.648 -0.3259  0.1993  0.8818
 3277TIP3   OH231245   1.887   1.468  16.507 -0.2716 -0.6569 -0.7882
 3277TIP3    H131246   1.933   1.446  16.588 -1.2036  0.1414 -0.0181
 3277TIP3    H231247   1.955   1.502  16.449  0.2211 -0.0379  0.1275
 3278TIP3   OH231248   4.185   5.627  12.478  0.0583 -0.1222  0.1090
 3278TIP3    H131249   4.278   5.639  12.495  0.3483 -3.2427  1.5167
 3278TIP3    H231250   4.146   5.618  12.565 -1.1251 -1.2554 -0.5069
 3279TIP3   OH231251   0.075   5.449  13.997  0.6940  0.1916  0.2690
 3279TIP3    H131252   0.020   5.462  13.921 -0.1830  1.9202  1.1510
 3279TIP3    H231253   0.160   5.423  13.961  0.4329  1.4086 -1.3165
 3280TIP3   OH231254   4.601   4.779  13.050  0.4733 -0.1528  0.0147
 3280TIP3    H131255   4.574   4.690  13.026  0.4161 -0.1379  0.0234
 3280TIP3    H231256   4.597   4.781  13.145 -1.8465  0.5635 -0.0369
 3281TIP3   OH231257   4.245   0.658   3.465 -0.5543 -0.0317  0.5353
 3281TIP3    H131258   4.290   0.576   3.444  1.2162  0.6681  1.3854
 3281TIP3    H231259   4.316   0.721   3.480 -1.8320  1.2310  1.5804
 3282TIP3   OH231260   2.046   0.498  12.938 -0.4500 -0.4074 -0.1973
 3282TIP3    H131261   2.113   0.470  12.876  1.5278  1.1600  1.1164
 3282TIP3    H231262   2.003   0.572  12.895 -0.4222 -0.5671 -0.5007
 3283TIP3   OH231263   0.673   3.496   0.909  0.0673 -0.2189 -0.2553
 3283TIP3    H131264   0.616   3.529   0.839 -1.1096 -1.4535  0.0935
 3283TIP3    H231265   0.726   3.572   0.933 -1.9290  1.2062 -0.0872
 3284TIP3   OH231266   3.705   6.313  15.848  0.4368  0.4482 -0.1460
 3284TIP3    H131267   3.653   6.347  15.921 -1.0302  0.8163 -1.3059
 3284TIP3    H231268   3.766   6.384  15.828 -2.2394  2.4301 -2.2007
 3285TIP3   OH231269   0.402   3.460  11.366 -0.5006 -0.0419  0.7046
 3285TIP3    H131270   0.334   3.441  11.302 -0.3365 -2.0725  1.0580
 3285TIP3    H231271   0.365   3.431  11.450 -1.0108  3.2371  1.7628
 3286TIP3   OH231272   3.832   2.502   0.889 -0.3524  0.4440  0.1897
 3286TIP3    H131273   3.856   2.474   0.977  2.7083  0.0682 -0.6259
 3286TIP3    H231274   3.914   2.537   0.852 -0.5208 -2.4469 -3.5801
 3287TIP3   OH231275   2.255   0.806   0.445  0.4022  0.5259 -0.2913
 3287TIP3    H131276   2.187   0.771   0.502  1.0351  0.5075  0.4810
 3287TIP3    H231277   2.272   0.894   0.479 -0.4973  1.2470 -1.6154
 3288TIP3   OH231278   2.765   0.822   5.306  0.3244  0.2126 -0.4297
 3288TIP3    H131279   2.717   0.778   5.236  0.9682 -1.9920  0.4502
 3288TIP3    H231280   2.741   0.775   5.386  1.4107  1.1623  0.5023
 3289TIP3   OH231281   6.505   4.944   0.720 -0.0310 -0.4324 -0.1461
 3289TIP3    H131282   6.593   4.968   0.693 -0.3188 -0.7992 -1.4971
 3289TIP3    H231283   6.459   5.027   0.731 -0.4199 -0.2313 -2.6940
 3290TIP3   OH231284   2.216   2.948  10.871 -0.1620 -0.1557 -0.0688
 3290TIP3    H131285   2.295   2.969  10.823 -0.5623 -0.6426 -0.9730
 3290TIP3    H231286   2.166   3.029  10.873  0.1943  0.0598  0.1947
 3291TIP3   OH231287   4.615   3.698  15.174  0.1384  0.0357  0.4097
 3291TIP3    H131288   4.635   3.650  15.254  1.1514  0.1100  0.2087
 3291TIP3    H231289   4.672   3.775  15.176 -0.6244  0.6318  0.1512
 3292TIP3   OH231290   1.016   6.449  15.074 -0.0594 -0.1765  0.1671
 3292TIP3    H131291   1.024   6.520  15.137 -1.2495 -1.3319  1.6995
 3292TIP3    H231292   0.922   6.436  15.064  0.1291 -1.0257 -0.7081
 3293TIP3   OH231293   4.697   3.177  15.149 -0.0304 -0.1335 -0.0428
 3293TIP3    H131294   4.622   3.120  15.167 -0.4647  0.0143 -1.2794
 3293TIP3    H231295   4.692   3.194  15.055  1.9327 -0.6282 -0.2785
 3294TIP3   OH231296   6.476   4.209  11.185  0.3617 -0.9546 -0.5933
 3294TIP3    H131297   6.482   4.233  11.093 -1.8653 -1.2897 -0.8901
 3294TIP3    H231298   6.530   4.274  11.231 -1.9364  2.0095 -1.7604
 3295TIP3   OH231299   3.120   4.820   1.502 -0.2940 -0.1984  0.1246
 3295TIP3    H131300   3.045   4.783   1.548 -0.4397 -0.3272 -0.2146
 3295TIP3    H231301   3.086   4.844   1.416  0.3702 -1.5060 -0.5262
 3296TIP3   OH231302   6.169   4.695  11.614 -0.0658  0.1808  0.2280
 3296TIP3    H131303   6.139   4.605  11.626  1.7765 -0.4252  0.5753
 3296TIP3    H231304   6.090   4.744  11.593 -1.5787 -0.9690  2.8230
 3297TIP3   OH231305   2.324   0.368   5.618 -0.0544  0.0032  0.1391
 3297TIP3    H131306   2.340   0.448   5.568 -0.9665  0.0080 -0.1627
 3297TIP3    H231307   2.404   0.316   5.606 -0.3215 -0.0830 -1.4798
 3298TIP3   OH231308   2.316   4.406   4.572 -0.6661  0.1694  0.2743
 3298TIP3    H131309   2.337   4.397   4.665 -0.4128  2.2000  0.4514
 3298TIP3    H231310   2.385   4.462   4.538 -1.5629  0.6301 -0.8245
 3299TIP3   OH231311   0.845   3.694   0.980  0.4572  0.0505 -0.4737
 3299TIP3    H131312   0.899   3.676   1.057 -0.3652  0.6151  0.2631
 3299TIP3    H231313   0.906   3.725   0.914  1.1324 -0.0975  0.0709
 3300TIP3   OH231314   3.283   5.586  14.438  0.6245 -0.1083  0.0222
 3300TIP3    H131315   3.346   5.549  14.376  0.9804  1.7999 -0.8404
 3300TIP3    H231316   3.239   5.656  14.388 -0.3513  0.2986  1.3997
 3301TIP3   OH231317   2.544   1.346   1.688 -0.0799  0.2434 -0.9190
 3301TIP3    H131318   2.533   1.264   1.640 -0.4335  0.0066 -0.4532
 3301TIP3    H231319   2.624   1.334   1.739  0.2738  0.4795 -1.4090
 3302TIP3   OH231320   2.990   5.983   5.841  0.3267  0.9846  0.4760
 3302TIP3    H131321   2.924   5.935   5.790 -0.5737  1.5272  1.1056
 3302TIP3    H231322   3.074   5.946   5.812 -0.2968 -0.4759  0.4351
 3303TIP3   OH231323   3.287   6.194   2.488 -0.2121  0.0176  0.3736
 3303TIP3    H131324   3.265   6.270   2.542  1.0136 -0.0535  0.9912
 3303TIP3    H231325   3.247   6.214   2.403 -0.4086  1.0789  0.6916
 3304TIP3   OH231326   2.134   2.102  14.549 -0.2926 -0.2845 -0.3611
 3304TIP3    H131327   2.167   2.156  14.621  0.2071  2.1687 -2.2776
 3304TIP3    H231328   2.039   2.108  14.555 -0.2485  0.1588 -0.0730
 3305TIP3   OH231329   0.290   6.534   1.833  0.3645 -0.0964  0.2804
 3305TIP3    H131330   0.351   6.470   1.796  1.8682  0.1941  2.0717
 3305TIP3    H231331   0.334   6.619   1.820 -0.9209  0.4563 -0.7466
 3306TIP3   OH231332   2.962   0.839  13.007 -0.1860  1.1553 -0.2202
 3306TIP3    H131333   2.887   0.811  12.955 -0.6158  0.1842  0.8642
 3306TIP3    H231334   2.945   0.803  13.094  3.1258 -2.0216 -0.6926
 3307TIP3   OH231335   4.327   6.385  12.920  0.1410 -0.1861 -0.1627
 3307TIP3    H131336   4.263   6.455  12.903 -0.5003 -0.8681 -0.6370
 3307TIP3    H231337   4.350   6.352  12.833  0.2715 -0.7062  0.0676
 3308TIP3   OH231338   6.538   3.949   4.504  0.0105  0.3200 -0.3635
 3308TIP3    H131339   6.455   3.902   4.493 -0.1794  0.3375  0.8824
 3308TIP3    H231340   6.604   3.888   4.472 -0.4831  0.4190 -1.6523
 3309TIP3   OH231341   2.766   0.518  14.319  0.2586  0.1222  0.3994
 3309TIP3    H131342   2.821   0.593  14.343  0.6956 -0.5298  1.4708
 3309TIP3    H231343   2.688   0.527  14.374  0.8705 -0.8875  1.4601
 3310TIP3   OH231344   2.732   0.512   4.812  0.4785  0.4267 -0.8296
 3310TIP3    H131345   2.659   0.568   4.783 -0.7535  1.4883  3.6455
 3310TIP3    H231346   2.795   0.573   4.850  1.2979 -0.8873 -0.0287
 3311TIP3   OH231347   2.063   5.533   4.691  0.4478  0.0421 -0.2350
 3311TIP3    H131348   2.092   5.611   4.739  1.8036 -0.5106 -0.0898
 3311TIP3    H231349   1.968   5.530   4.704  0.5254  1.0386  0.7124
 3312TIP3   OH231350   3.208   1.310  13.079 -0.1235 -0.5320  0.0937
 3312TIP3    H131351   3.144   1.372  13.043  0.2192  0.4078  1.0525
 3312TIP3    H231352   3.212   1.331  13.172  1.9714 -0.1755 -0.0317
 3313TIP3   OH231353   4.224   5.895   3.923 -0.2322 -0.2506 -0.0730
 3313TIP3    H131354   4.215   5.902   4.018 -0.5277 -1.4486  0.0074
 3313TIP3    H231355   4.263   5.808   3.909 -0.5892 -0.2633 -1.0600
 3314TIP3   OH231356   0.083   6.161   0.271  0.0260  0.2970  0.0687
 3314TIP3    H131357   0.143   6.234   0.254  2.3262 -1.1436  1.4184
 3314TIP3    H231358   0.004   6.202   0.305  0.2846  2.2760 -1.4873
 3315TIP3   OH231359   1.283   3.437   2.224  0.8943 -0.6289  0.1755
 3315TIP3    H131360   1.279   3.515   2.169  0.2387 -1.9804 -1.8005
 3315TIP3    H231361   1.193   3.424   2.254  1.0882 -0.3806  0.8719
 3316TIP3   OH231362   3.113   4.911  13.532  0.0532  0.2556 -0.4351
 3316TIP3    H131363   3.128   4.840  13.595  1.5645  0.0837 -0.9387
 3316TIP3    H231364   3.041   4.880  13.478 -0.0790 -0.3776  0.0852
 3317TIP3   OH231365   1.584   4.207   1.815  0.4074  0.5240 -0.3747
 3317TIP3    H131366   1.600   4.262   1.892  0.2007  0.3663 -0.2177
 3317TIP3    H231367   1.670   4.172   1.793  0.3075 -0.2464  0.4109
 3318TIP3   OH231368   2.763   6.497  11.266  0.4492 -0.0031  0.4010
 3318TIP3    H131369   2.750   6.444  11.345 -0.3405  1.1702  1.0752
 3318TIP3    H231370   2.675   6.523  11.240  0.8431  1.2971  0.3166
 3319TIP3   OH231371   5.386   0.300   3.378 -0.3507 -0.2877  0.3533
 3319TIP3    H131372   5.438   0.348   3.313 -0.2102  1.8536  1.9336
 3319TIP3    H231373   5.354   0.223   3.331  0.3465  0.7747 -2.0248
 3320TIP3   OH231374   1.989   6.259  15.149  0.6869  0.6185  0.9098
 3320TIP3    H131375   1.906   6.305  15.140  0.3839  0.1954  1.4575
 3320TIP3    H231376   1.993   6.202  15.072  1.6914  2.4758 -0.4968
 3321TIP3   OH231377   2.987   4.162  10.935 -0.3846  0.6261  0.0748
 3321TIP3    H131378   3.011   4.241  10.888  2.6482 -0.6555 -0.7703
 3321TIP3    H231379   2.943   4.107  10.870  0.9000  0.1660 -0.4437
 3322TIP3   OH231380   5.060   6.156  10.753 -0.0778 -0.1613 -0.4319
 3322TIP3    H131381   5.133   6.161  10.815  1.0932  2.0414 -1.8544
 3322TIP3    H231382   5.053   6.063  10.731  1.0296 -0.6691  1.1741
 3323TIP3   OH231383   0.500   2.060   2.010 -0.6403 -0.5848  0.5523
 3323TIP3    H131384   0.537   1.973   2.019 -0.6608 -0.5733  0.7556
 3323TIP3    H231385   0.517   2.102   2.094  0.3642 -0.0091  0.0812
 3324TIP3   OH231386   3.900   3.584   4.651 -0.0304 -0.7874  0.2680
 3324TIP3    H131387   3.893   3.631   4.734 -1.0550 -0.5923  0.0790
 3324TIP3    H231388   3.983   3.536   4.657  1.6201  1.8473  0.0636
 3325TIP3   OH231389   1.012   6.346   4.176 -0.4863 -0.8687 -0.0459
 3325TIP3    H131390   0.965   6.265   4.159  3.3031 -2.9773 -1.8788
 3325TIP3    H231391   1.094   6.318   4.218  1.2575  1.8813 -1.3237
 3326TIP3   OH231392   6.745   6.584   5.353 -0.4513  0.3081  0.0770
 3326TIP3    H131393   6.807   6.643   5.394 -0.9608  0.0237  1.3093
 3326TIP3    H231394   6.667   6.637   5.339 -0.5461  0.2067  0.2114
 3327TIP3   OH231395   1.548   3.588  15.390  0.1877 -0.3655  0.1719
 3327TIP3    H131396   1.550   3.619  15.481 -1.9308  0.7284 -0.0773
 3327TIP3    H231397   1.592   3.657  15.341  0.2821 -0.3861  0.2262
 3328TIP3   OH231398   3.444   0.454  14.597 -0.0582  0.1330 -0.0658
 3328TIP3    H131399   3.497   0.533  14.587  1.2997 -0.5832  1.1151
 3328TIP3    H231400   3.500   0.383  14.566  0.6570 -0.9269  3.2575
 3329TIP3   OH231401   3.256   2.552  13.552  0.3114 -0.5535  0.1215
 3329TIP3    H131402   3.261   2.617  13.622  1.0755 -0.5128  0.0382
 3329TIP3    H231403   3.316   2.585  13.485  1.0367 -1.5696  0.2630
 3330TIP3   OH231404   5.115   3.553   2.239  0.2811  0.2332  0.3981
 3330TIP3    H131405   5.114   3.533   2.145  0.3704  1.0556  0.2133
 3330TIP3    H231406   5.140   3.470   2.280  0.2743 -0.1315 -0.3015
 3331TIP3   OH231407   2.840   4.514  11.693  0.0941 -0.0957  0.2842
 3331TIP3    H131408   2.928   4.505  11.657  0.4097 -0.1338  1.0336
 3331TIP3    H231409   2.854   4.528  11.787 -0.6606  0.9623  0.2535
 3332TIP3   OH231410   4.925   5.106   3.301  0.3091 -0.0297 -0.8379
 3332TIP3    H131411   5.005   5.159   3.293  0.9056 -0.9361 -1.0705
 3332TIP3    H231412   4.887   5.132   3.384 -0.4135  2.0857 -1.7536
 3333TIP3   OH231413   2.021   2.481  12.464  0.0393  0.0451  0.6022
 3333TIP3    H131414   1.971   2.402  12.484 -0.2984  0.1615  0.2344
 3333TIP3    H231415   2.093   2.451  12.409 -1.7611  0.3483 -2.1498
 3334TIP3   OH231416   3.836   2.839  12.117 -0.7782 -0.2620 -0.5645
 3334TIP3    H131417   3.875   2.754  12.140 -0.3058  0.0517 -0.1699
 3334TIP3    H231418   3.911   2.895  12.099 -1.0728  0.1930 -0.3858
 3335TIP3   OH231419   2.767   0.781  13.946  0.1104 -0.3525 -0.3358
 3335TIP3    H131420   2.698   0.721  13.973 -0.4285  1.0556  1.7215
 3335TIP3    H231421   2.831   0.726  13.902 -0.7055 -2.3002  0.7741
 3336TIP3   OH231422   2.540   1.422  13.254 -0.3508  0.2071  0.6551
 3336TIP3    H131423   2.618   1.414  13.199  1.8289 -0.0819  3.5310
 3336TIP3    H231424   2.534   1.516  13.273 -1.3538  0.3648 -0.3403
 3337TIP3   OH231425   4.895   5.999  14.178 -0.5459 -0.1406 -0.0753
 3337TIP3    H131426   4.838   5.922  14.165 -0.7158 -0.3047  1.4915
 3337TIP3    H231427   4.936   5.985  14.263 -1.7276  2.2047  0.9786
 3338TIP3   OH231428   2.080   5.686   0.697 -0.1126 -0.1912  0.2328
 3338TIP3    H131429   2.159   5.662   0.648  1.2202  2.8082  0.7108
 3338TIP3    H231430   2.087   5.637   0.779  0.0326 -1.6613 -0.6143
 3339TIP3   OH231431   1.020   1.517   0.376  0.0447 -0.1654 -0.4594
 3339TIP3    H131432   0.982   1.439   0.337 -1.0794  0.8345 -1.4565
 3339TIP3    H231433   0.945   1.570   0.403  0.7475 -0.5161  2.6245
 3340TIP3   OH231434   2.702   3.989   3.861 -0.0672 -0.0710  0.2670
 3340TIP3    H131435   2.766   4.041   3.910 -0.3744 -0.3869  1.0237
 3340TIP3    H231436   2.630   4.050   3.842  0.4324  0.2733 -0.5493
 3341TIP3   OH231437   3.161   4.749   0.874  1.1889  0.3811  0.5138
 3341TIP3    H131438   3.161   4.654   0.860 -2.3306  0.0713  1.6456
 3341TIP3    H231439   3.088   4.781   0.822  1.7903  2.3734  0.8188
 3342TIP3   OH231440   6.179   5.118  15.930 -0.4178 -0.5086 -0.6182
 3342TIP3    H131441   6.151   5.029  15.907 -0.7931 -0.6995  0.5428
 3342TIP3    H231442   6.116   5.148  15.995 -0.7646  0.9265 -1.5686
 3343TIP3   OH231443   5.688   6.530   1.451 -0.5434  0.9165  0.0098
 3343TIP3    H131444   5.623   6.526   1.521  0.3551 -1.2387  0.7972
 3343TIP3    H231445   5.657   6.468   1.385  0.2509  0.5352 -0.0154
 3344TIP3   OH231446   0.711   3.736  15.284  0.3772 -0.4058 -0.2617
 3344TIP3    H131447   0.756   3.785  15.352 -0.5628 -1.1775  0.9669
 3344TIP3    H231448   0.781   3.689  15.237  1.2317  1.6431 -1.1466
 3345TIP3   OH231449   4.193   6.091  16.198  0.0759 -0.0739  0.0163
 3345TIP3    H131450   4.254   6.018  16.207 -0.5404 -0.7413 -0.9154
 3345TIP3    H231451   4.106   6.049  16.195 -0.4447  0.8509  1.3712
 3346TIP3   OH231452   4.895   2.055   0.759 -0.0526  0.0390  0.0857
 3346TIP3    H131453   4.828   2.020   0.700  1.1993  0.5563 -1.7251
 3346TIP3    H231454   4.930   2.131   0.713  1.6922 -0.1335  1.0576
 3347TIP3   OH231455   6.219   3.212   4.393 -0.2312  0.1141  0.2075
 3347TIP3    H131456   6.229   3.226   4.487  4.7673 -2.2759  0.3415
 3347TIP3    H231457   6.299   3.249   4.354 -1.2960 -0.5215 -2.9295
 3348TIP3   OH231458   0.373   2.547  16.357 -0.0578  0.6945 -0.2993
 3348TIP3    H131459   0.384   2.456  16.384 -0.1965  0.5193 -0.8127
 3348TIP3    H231460   0.448   2.593  16.395  2.1956 -0.3340 -3.1073
 3349TIP3   OH231461   4.909   0.035  16.979  0.2105  0.6901 -0.4088
 3349TIP3    H131462   4.859   0.019  16.899 -2.5168 -1.7505  1.5538
 3349TIP3    H231463   4.969  -0.039  16.985  1.1332  1.4032 -0.6602
 3350TIP3   OH231464   0.300   1.302   4.108 -0.5559  0.4082 -0.0866
 3350TIP3    H131465   0.363   1.310   4.180 -0.2054  0.2728 -0.3703
 3350TIP3    H231466   0.220   1.344   4.140 -2.5414 -4.6601  2.8032
 3351TIP3   OH231467   4.925   5.440  13.985 -0.2014 -0.3855 -0.3005
 3351TIP3    H131468   4.902   5.530  13.963  3.1453  1.2038  1.9144
 3351TIP3    H231469   4.858   5.412  14.047 -0.3643  1.1970  0.2703
 3352TIP3   OH231470   5.754   0.746   1.398  0.0445 -0.1777  0.2477
 3352TIP3    H131471   5.797   0.779   1.319 -1.1787  1.8737  0.3615
 3352TIP3    H231472   5.692   0.814   1.421 -0.2062 -1.1070  2.5450
 3353TIP3   OH231473   0.856   4.966   5.700 -0.1731  0.2274  0.3173
 3353TIP3    H131474   0.900   4.990   5.782 -1.0787  0.5054  0.7371
 3353TIP3    H231475   0.773   4.929   5.728 -0.2887 -0.1215 -0.4725
 3354TIP3   OH231476   5.421   1.157  15.989  0.3450 -0.0032 -0.9254
 3354TIP3    H131477   5.388   1.217  15.922 -0.1878 -0.9630 -1.5579
 3354TIP3    H231478   5.474   1.094  15.940  1.8299  0.5950 -0.1205
 3355TIP3   OH231479   3.536   6.085   5.633  0.3683  0.0624 -0.2299
 3355TIP3    H131480   3.453   6.085   5.585 -1.4170  0.4212  2.6240
 3355TIP3    H231481   3.513   6.052   5.720  3.4229 -0.6443  0.4217
 3356TIP3   OH231482   4.465   0.962   1.015 -0.3069 -0.0898  0.4047
 3356TIP3    H131483   4.413   0.982   0.938  0.0364  0.0704  0.2097
 3356TIP3    H231484   4.556   0.972   0.986  0.1056 -4.4754 -0.4896
 3357TIP3   OH231485   2.771   5.129  14.054  0.1170  0.8131 -0.8585
 3357TIP3    H131486   2.841   5.193  14.063  0.1498  1.0787 -2.5518
 3357TIP3    H231487   2.719   5.137  14.134  0.4918  2.5043 -0.7626
 3358TIP3   OH231488   1.611   2.660  16.145  0.4597 -0.4553 -0.4897
 3358TIP3    H131489   1.527   2.615  16.149  0.1661  0.0740 -0.5205
 3358TIP3    H231490   1.624   2.693  16.234  0.1019  0.3924 -0.7400
 3359TIP3   OH231491   5.116   3.641   5.922  0.5739 -0.0149 -0.0047
 3359TIP3    H131492   5.177   3.713   5.904 -0.5354  1.0213  0.2456
 3359TIP3    H231493   5.157   3.564   5.884  1.8226  0.7446 -0.2277
 3360TIP3   OH231494   1.053   3.004   1.399 -0.6416 -1.0206  0.2029
 3360TIP3    H131495   1.099   2.968   1.474 -0.8364 -0.7284  0.4693
 3360TIP3    H231496   1.026   3.092   1.427  2.2716  0.5533 -1.3698
 3361TIP3   OH231497   2.931   5.769  15.721 -0.2984 -0.0453 -0.0843
 3361TIP3    H131498   2.928   5.736  15.631 -0.0509  0.5168 -0.2955
 3361TIP3    H231499   2.918   5.863  15.713  1.9420  0.3412  0.2733
 3362TIP3   OH231500   1.964   4.504  12.068  0.2203  0.3175 -0.0726
 3362TIP3    H131501   1.936   4.422  12.109  1.2729 -0.7655 -1.4368
 3362TIP3    H231502   1.920   4.572  12.120 -0.5745 -1.0745  1.1827
 3363TIP3   OH231503   0.595   1.451  11.144 -0.6256  0.0077 -0.2313
 3363TIP3    H131504   0.676   1.451  11.195  0.1938  3.1501 -1.2668
 3363TIP3    H231505   0.530   1.410  11.201  1.3677 -1.3521  1.1840
 3364TIP3   OH231506   4.735   6.778  12.293  0.1645 -0.1760 -0.0979
 3364TIP3    H131507   4.745   6.698  12.241  1.3853 -0.4316  0.4845
 3364TIP3    H231508   4.724   6.847  12.228  0.0276 -0.6974 -0.6408
 3365TIP3   OH231509   4.465   3.420   2.894 -0.4656 -0.6830  0.0894
 3365TIP3    H131510   4.560   3.425   2.881 -0.5042  1.9530  0.3065
 3365TIP3    H231511   4.455   3.397   2.987  0.0109  0.5338  0.4653
 3366TIP3   OH231512   2.959   1.351   4.234  0.6005 -0.4311  0.4882
 3366TIP3    H131513   2.913   1.311   4.160  2.3048  0.9304 -1.4210
 3366TIP3    H231514   2.890   1.397   4.282 -0.2541  1.0638 -1.9486
 3367TIP3   OH231515   3.456   3.297  14.914 -0.5933  0.0086 -0.3648
 3367TIP3    H131516   3.395   3.370  14.919 -0.8384 -0.2376  0.2447
 3367TIP3    H231517   3.402   3.221  14.895 -0.7680 -0.5780  2.2449
 3368TIP3   OH231518   5.129   4.226  13.058  0.1390  0.5035  0.1438
 3368TIP3    H131519   5.098   4.307  13.017  0.5647  0.1714 -0.8541
 3368TIP3    H231520   5.129   4.161  12.988  2.1909  0.2618  0.2992
 3369TIP3   OH231521   4.534   1.913   0.860  0.0767 -0.1987 -0.6921
 3369TIP3    H131522   4.455   1.964   0.847 -0.4041 -0.5307  0.7616
 3369TIP3    H231523   4.503   1.825   0.881  0.6645  0.2555  2.5806
 3370TIP3   OH231524   3.289   5.067   5.569  0.0648 -0.1908  0.1296
 3370TIP3    H131525   3.354   5.129   5.537 -0.7885  0.6915  0.0608
 3370TIP3    H231526   3.308   5.056   5.662  1.1097 -0.9571 -0.1624
 3371TIP3   OH231527   5.060   1.838  11.097  0.8341 -0.4464 -0.1426
 3371TIP3    H131528   5.040   1.864  11.007 -0.1494 -0.5521  0.0374
 3371TIP3    H231529   5.049   1.917  11.148 -0.7240 -0.8452  0.1881
 3372TIP3   OH231530   2.802   3.060  13.013 -0.5294 -0.2263 -0.1713
 3372TIP3    H131531   2.871   3.038  12.950 -2.0722 -1.7412 -1.4158
 3372TIP3    H231532   2.779   3.151  12.993 -0.5195 -0.4700 -1.3366
 3373TIP3   OH231533   2.066   4.323   1.167 -0.0009  0.0387 -0.2242
 3373TIP3    H131534   2.003   4.268   1.119  0.0079 -0.1927  0.0249
 3373TIP3    H231535   2.014   4.397   1.198  0.0575  0.3436 -0.8455
 3374TIP3   OH231536   4.110   2.161  11.013 -0.2677 -0.2711  0.1722
 3374TIP3    H131537   4.043   2.219  11.048  1.4506  2.0515 -0.1096
 3374TIP3    H231538   4.070   2.122  10.936 -1.2688  1.2258 -0.1196
 3375TIP3   OH231539   6.354   4.738  13.700 -0.0600 -0.4744  0.1859
 3375TIP3    H131540   6.409   4.717  13.775 -1.0540 -1.4331  0.6719
 3375TIP3    H231541   6.339   4.832  13.708  1.0638 -0.2924  0.3352
 3376TIP3   OH231542   3.660   4.358  15.847  0.1650 -0.1119 -0.5323
 3376TIP3    H131543   3.656   4.452  15.867  0.2770 -0.1760 -0.1926
 3376TIP3    H231544   3.747   4.345  15.809  1.0193 -0.4383  1.4190
 3377TIP3   OH231545   4.877   6.265  16.359  0.7904 -0.6121  0.8530
 3377TIP3    H131546   4.971   6.282  16.366  0.6201  2.2429 -1.7532
 3377TIP3    H231547   4.836   6.347  16.388 -0.7429 -0.7045 -0.8937
 3378TIP3   OH231548   6.741   1.129   6.050  0.2524 -0.4023  0.1435
 3378TIP3    H131549   6.645   1.139   6.049  0.3976  1.5809  1.2025
 3378TIP3    H231550   6.774   1.216   6.069  2.2791 -1.1648  0.3479
 3379TIP3   OH231551   6.195   0.732  16.416  0.1844  0.0589  0.0883
 3379TIP3    H131552   6.247   0.661  16.456  1.4995  1.0415  0.1776
 3379TIP3    H231553   6.158   0.779  16.491 -0.2195 -0.1698  0.0383
 3380TIP3   OH231554   0.428   6.458   2.213  0.0610 -0.2918 -0.5035
 3380TIP3    H131555   0.411   6.364   2.198  1.5362 -0.6480 -0.0495
 3380TIP3    H231556   0.484   6.483   2.140  1.6409 -0.3668  0.6480
 3381TIP3   OH231557   6.316   2.524   1.144 -0.0362 -0.2802  0.4709
 3381TIP3    H131558   6.392   2.559   1.099 -0.1529  0.1414  0.6018
 3381TIP3    H231559   6.242   2.573   1.109 -0.2829 -0.8613  0.1592
 3382TIP3   OH231560   4.510   0.079  13.746 -0.1964 -0.1463 -0.3941
 3382TIP3    H131561   4.499  -0.015  13.764 -0.1468  0.0112  0.4886
 3382TIP3    H231562   4.599   0.087  13.713 -0.8542 -0.6830 -2.4528
 3383TIP3   OH231563   5.507   5.715   4.503 -0.7671 -0.2532  0.3075
 3383TIP3    H131564   5.555   5.765   4.569 -1.3147 -1.3171  1.5348
 3383TIP3    H231565   5.569   5.707   4.430 -0.1234  0.8519  0.7024
 3384TIP3   OH231566   4.596   0.833   1.739 -0.2720 -0.2172 -0.1430
 3384TIP3    H131567   4.535   0.782   1.792  0.6398  0.0580  1.2360
 3384TIP3    H231568   4.622   0.906   1.795  0.9545 -0.0672 -0.8604
 3385TIP3   OH231569   2.197   3.742  11.370 -0.0662 -0.2194  0.3356
 3385TIP3    H131570   2.240   3.774  11.290  0.8876 -0.8133  0.5932
 3385TIP3    H231571   2.189   3.648  11.357 -1.6359 -0.0913  0.1591
 3386TIP3   OH231572   4.094   2.604   0.871 -0.0121  0.7878  0.2313
 3386TIP3    H131573   4.155   2.578   0.802  0.5407 -0.1902  1.0556
 3386TIP3    H231574   4.149   2.615   0.949 -0.3907  3.3644  0.2145
 3387TIP3   OH231575   6.343   4.786  16.542  0.3940 -0.2154  0.2771
 3387TIP3    H131576   6.407   4.719  16.518  2.4674  0.8872  2.3506
 3387TIP3    H231577   6.258   4.742  16.534  1.5714 -2.6157  0.1670
 3388TIP3   OH231578   0.949   0.904  15.846 -0.0631 -0.1982  0.6027
 3388TIP3    H131579   1.001   0.854  15.783  0.1030 -1.0982  1.4219
 3388TIP3    H231580   1.014   0.955  15.895 -0.1845  0.4474  0.0957
 3389TIP3   OH231581   0.063   4.835   3.887 -0.4366  0.1454  0.0841
 3389TIP3    H131582   0.136   4.853   3.828 -1.6892 -1.4844 -2.1439
 3389TIP3    H231583   0.011   4.768   3.841 -2.5826  0.2258  2.1753
 3390TIP3   OH231584   4.064   1.181  16.233 -0.3944 -0.0679 -0.2165
 3390TIP3    H131585   4.144   1.145  16.194  0.6620  1.0288  0.8533
 3390TIP3    H231586   4.006   1.106  16.240  0.2560 -0.7619 -1.6685
 3391TIP3   OH231587   2.062   3.500   4.929  0.5303 -0.1365 -0.4639
 3391TIP3    H131588   2.107   3.563   4.985  0.6103  0.2561 -0.9543
 3391TIP3    H231589   2.056   3.420   4.981 -2.1745  1.0777  1.3233
 3392TIP3   OH231590   0.936   0.439  14.513  0.1932 -0.4628  0.2052
 3392TIP3    H131591   0.949   0.517  14.458  1.5988  0.0835  1.2510
 3392TIP3    H231592   0.842   0.422  14.509 -0.1640  1.3601  0.0528
 3393TIP3   OH231593   2.269   2.478   3.860  0.2804 -0.3362  0.4570
 3393TIP3    H131594   2.296   2.393   3.825  1.8647  0.4475 -0.2937
 3393TIP3    H231595   2.227   2.523   3.787 -2.9845 -1.3980  1.5119
 3394TIP3   OH231596   5.447   5.427   2.344 -0.1716  0.0675  0.0752
 3394TIP3    H131597   5.449   5.476   2.426 -1.0067 -1.1704  0.8600
 3394TIP3    H231598   5.523   5.459   2.296  0.0263  1.2107  1.0833
 3395TIP3   OH231599   3.007   6.287   1.898  0.0147  0.1433 -0.1773
 3395TIP3    H131600   2.979   6.298   1.989  1.6527 -1.2178  0.5496
 3395TIP3    H231601   2.948   6.222   1.862 -1.9045  2.1030 -0.7526
 3396TIP3   OH231602   2.509   5.533  16.501 -0.4157  0.3902 -0.5156
 3396TIP3    H131603   2.476   5.525  16.412 -1.2551  1.0675 -0.2917
 3396TIP3    H231604   2.539   5.624  16.508 -0.1309  0.2752 -0.1830
 3397TIP3   OH231605   6.028   2.993   2.948 -0.4093  0.1557  0.5955
 3397TIP3    H131606   5.942   3.029   2.923 -0.0994  0.8764  0.5349
 3397TIP3    H231607   6.090   3.061   2.922  0.1362 -0.1301  1.1411
 3398TIP3   OH231608   3.329   1.293  13.610  0.0612  0.0766 -0.7044
 3398TIP3    H131609   3.259   1.249  13.658  1.4162 -1.4716 -0.0642
 3398TIP3    H231610   3.326   1.383  13.642 -0.1246 -0.5295  1.1125
 3399TIP3   OH231611   3.079   0.911  15.790  0.3292 -0.0174  0.3633
 3399TIP3    H131612   3.001   0.897  15.735  1.1488 -0.5973 -0.6781
 3399TIP3    H231613   3.084   0.833  15.845  1.3555 -0.9995 -1.0641
 3400TIP3   OH231614   2.624   1.632  14.669 -0.2251  0.4571 -0.0318
 3400TIP3    H131615   2.707   1.637  14.621  0.0885 -1.8005  0.1674
 3400TIP3    H231616   2.562   1.683  14.616  1.1845  1.9793 -0.3223
 3401TIP3   OH231617   3.794   0.838   2.143  0.1922  0.0772 -0.4077
 3401TIP3    H131618   3.797   0.892   2.222 -1.1039  0.6142 -0.6899
 3401TIP3    H231619   3.790   0.748   2.174  2.1528  0.1040  0.0770
 3402TIP3   OH231620   1.639   5.152  12.880  0.6146 -0.1376 -0.2442
 3402TIP3    H131621   1.545   5.166  12.891  0.6642 -0.2023  0.3004
 3402TIP3    H231622   1.664   5.098  12.955  1.2175  0.4841  0.0198
 3403TIP3   OH231623   4.654   1.837  11.402 -0.5715 -0.0688 -0.1066
 3403TIP3    H131624   4.566   1.801  11.392 -0.3405 -0.3527 -1.1979
 3403TIP3    H231625   4.697   1.779  11.465 -1.0881 -0.0710  0.2444
 3404TIP3   OH231626   5.831   0.461   3.680 -0.1460  0.4145 -0.0773
 3404TIP3    H131627   5.792   0.456   3.593 -0.3862  0.6155  0.0181
 3404TIP3    H231628   5.766   0.420   3.738  0.7061 -1.2058 -0.2111
 3405TIP3   OH231629   3.743   3.657  13.627 -0.1556  0.0157 -0.2144
 3405TIP3    H131630   3.793   3.696  13.555 -0.3961 -0.7067 -0.7854
 3405TIP3    H231631   3.810   3.635  13.692 -0.0287  1.4969  0.2023
 3406TIP3   OH231632   4.779   6.642   1.112 -0.1486  0.0631  0.0708
 3406TIP3    H131633   4.720   6.574   1.145  1.8058 -1.7189  0.1201
 3406TIP3    H231634   4.858   6.634   1.166  1.7114 -0.4182 -2.4927
 3407TIP3   OH231635   2.968   5.887  16.664  0.1614  0.1490  0.4298
 3407TIP3    H131636   2.932   5.976  16.655 -0.0222  0.0571  0.2457
 3407TIP3    H231637   2.930   5.854  16.745 -1.8735 -0.7241 -0.7949
 3408TIP3   OH231638   6.766   1.391  12.470 -0.5284 -0.4940 -0.4814
 3408TIP3    H131639   6.764   1.315  12.411 -2.6258 -0.4028 -0.6072
 3408TIP3    H231640   6.738   1.464  12.415  0.7279  0.2532 -0.1657
 3409TIP3   OH231641   3.263   3.828  14.490  0.0809  0.1779 -0.1222
 3409TIP3    H131642   3.222   3.872  14.565 -0.1591  0.7835 -0.5995
 3409TIP3    H231643   3.357   3.844  14.501 -0.0877  2.5163 -1.2893
 3410TIP3   OH231644   6.200   0.482   4.231  0.5166 -0.0774  0.1565
 3410TIP3    H131645   6.274   0.421   4.227 -0.4067 -1.2868  0.6977
 3410TIP3    H231646   6.162   0.479   4.143  0.6623 -0.0336  0.0911
 3411TIP3   OH231647   1.813   3.887   5.027 -0.5032  0.5570 -0.3314
 3411TIP3    H131648   1.792   3.797   5.004 -1.8168  0.8077 -0.2124
 3411TIP3    H231649   1.787   3.939   4.951 -1.3110  0.9870  0.2139
 3412TIP3   OH231650   2.330   0.430   0.220 -0.1258  0.4416  0.5220
 3412TIP3    H131651   2.338   0.339   0.247 -1.4134 -0.2577 -1.3159
 3412TIP3    H231652   2.420   0.461   0.212  0.3683 -1.1111 -0.1920
 3413TIP3   OH231653   6.676   1.581  16.048 -0.4684  0.1069  0.0041
 3413TIP3    H131654   6.688   1.513  15.982 -0.6433 -0.8407  0.9218
 3413TIP3    H231655   6.752   1.573  16.105 -0.0291  1.2965 -0.3973
 3414TIP3   OH231656   3.327   2.562  14.210 -0.4148  0.7715  0.2470
 3414TIP3    H131657   3.272   2.547  14.287  0.1255 -0.4061  0.4357
 3414TIP3    H231658   3.265   2.566  14.137 -0.8234  0.3519  0.5607
 3415TIP3   OH231659   2.374   3.352  12.054 -0.1759 -0.1717  0.5162
 3415TIP3    H131660   2.341   3.301  12.128 -1.7013  0.8440  0.5687
 3415TIP3    H231661   2.367   3.443  12.082 -0.9611  0.2477 -0.9186
 3416TIP3   OH231662   5.455   3.868  15.485 -0.0372  0.1217 -0.2453
 3416TIP3    H131663   5.417   3.780  15.488 -0.4467  0.2530 -1.2793
 3416TIP3    H231664   5.422   3.910  15.564  1.5861 -1.1915  1.2272
 3417TIP3   OH231665   3.369   4.124  12.616  0.2376  0.0939  0.0887
 3417TIP3    H131666   3.391   4.031  12.611  0.7306  0.2476 -0.7271
 3417TIP3    H231667   3.451   4.169  12.595  0.1690  0.7281  1.1160
 3418TIP3   OH231668   4.956   4.303  16.561  0.5536 -0.2400 -0.0140
 3418TIP3    H131669   4.961   4.236  16.629  1.3410 -0.4010 -0.2273
 3418TIP3    H231670   5.037   4.293  16.511  0.9918  1.3087  0.3413
 3419TIP3   OH231671   4.368   6.398  12.431 -0.0543  0.0934 -0.0775
 3419TIP3    H131672   4.340   6.479  12.474  1.1991 -0.8596  2.7763
 3419TIP3    H231673   4.287   6.356  12.402 -0.8332  1.5015 -0.0015
 3420TIP3   OH231674   4.081   0.670   1.468  0.2744 -0.7138 -0.3615
 3420TIP3    H131675   4.131   0.708   1.396 -0.5321 -0.4326 -0.7899
 3420TIP3    H231676   4.117   0.712   1.547  1.8624 -1.7849 -0.4751
 3421TIP3   OH231677   4.891   4.375   0.940  0.2684 -0.6260  0.6390
 3421TIP3    H131678   4.961   4.397   0.879 -0.3730 -0.2136  0.0382
 3421TIP3    H231679   4.832   4.318   0.892 -0.8317  0.5871  0.4591
 3422TIP3   OH231680   4.508   5.483   1.935 -0.1385 -0.2407  0.2858
 3422TIP3    H131681   4.443   5.548   1.962  0.8170  0.7294  0.2891
 3422TIP3    H231682   4.509   5.419   2.006  0.6106  0.9995  1.4243
 3423TIP3   OH231683   3.449   2.114   5.379 -0.8340 -0.8290  0.1070
 3423TIP3    H131684   3.401   2.065   5.312 -0.7627 -1.2659  0.3733
 3423TIP3    H231685   3.535   2.072   5.383 -0.6225 -0.4153  0.0422
 3424TIP3   OH231686   3.964   6.190   4.177  0.2017  0.2041 -0.4331
 3424TIP3    H131687   4.043   6.235   4.207  0.8378 -1.0739 -0.1009
 3424TIP3    H231688   3.965   6.200   4.082 -0.1961  1.6918 -0.3017
 3425TIP3   OH231689   4.424   6.603  14.616 -0.1095 -0.5478  0.2534
 3425TIP3    H131690   4.433   6.525  14.670  0.6342 -1.9523 -1.7863
 3425TIP3    H231691   4.488   6.665  14.651  0.8152 -1.6670  0.5918
 3426TIP3   OH231692   6.358   5.108  12.297  0.6528  0.6493  0.3116
 3426TIP3    H131693   6.269   5.075  12.293  0.8671 -0.2578  1.9099
 3426TIP3    H231694   6.390   5.103  12.207 -1.0883  1.5945 -0.3978
 3427TIP3   OH231695   4.934   4.969  13.261 -0.1257 -0.5595  0.6983
 3427TIP3    H131696   4.944   4.876  13.280 -0.5690 -0.8118 -0.2133
 3427TIP3    H231697   4.843   4.988  13.285  0.0566 -0.2783  1.1814
 3428TIP3   OH231698   0.392   1.101  16.933  0.2424 -0.3036  0.7242
 3428TIP3    H131699   0.394   1.132  17.024  1.9726 -0.6378  0.8379
 3428TIP3    H231700   0.427   1.012  16.938  1.3607  0.0526 -0.3949
 3429TIP3   OH231701   0.130   6.515  17.124  0.0015 -0.3863  0.2493
 3429TIP3    H131702   0.145   6.479  17.037 -2.0473  1.4173 -0.9838
 3429TIP3    H231703   0.069   6.454  17.165  1.0226 -1.2776  0.4761
 3430TIP3   OH231704   6.059   3.221  16.927  0.0529  0.2588  0.2954
 3430TIP3    H131705   5.998   3.243  16.856 -1.1559 -0.6592  1.0269
 3430TIP3    H231706   6.004   3.218  17.005  1.0605 -0.5111  0.9853
 3431TIP3   OH231707   5.515   0.311  13.748  0.6757  0.6581 -0.4296
 3431TIP3    H131708   5.570   0.291  13.824 -0.9676 -0.9351  0.4248
 3431TIP3    H231709   5.522   0.233  13.693 -1.7159 -0.2434  0.3843
 3432TIP3   OH231710   1.189   1.096   1.646  0.5354 -0.0074 -0.2912
 3432TIP3    H131711   1.158   1.007   1.659  2.0536 -0.4892  0.2796
 3432TIP3    H231712   1.249   1.090   1.571  2.6470 -0.0331  1.2995
 3433TIP3   OH231713   1.935   6.061  16.024  0.0620  0.2988  0.0202
 3433TIP3    H131714   1.970   6.123  16.088  0.1293  0.2071  0.0713
 3433TIP3    H231715   1.942   5.976  16.067 -0.0971  0.2631 -0.0221
 3434TIP3   OH231716   3.060   0.062   0.418  0.1800  0.5174  0.3304
 3434TIP3    H131717   3.152   0.057   0.393  0.5099 -1.9780  1.6854
 3434TIP3    H231718   3.037   0.154   0.408  2.4282  0.9878 -1.3207
 3435TIP3   OH231719   6.260   4.119  15.874  0.0150 -0.3316  0.5257
 3435TIP3    H131720   6.178   4.069  15.876  0.1832 -0.6904 -0.6233
 3435TIP3    H231721   6.232   4.210  15.863 -0.2308 -0.5729 -1.0869
 3436TIP3   OH231722   4.866   5.028  11.773 -0.1061 -0.0753 -0.2482
 3436TIP3    H131723   4.870   5.006  11.680  0.7169  1.4526 -0.5994
 3436TIP3    H231724   4.774   5.051  11.788  0.0699  1.3042 -1.1007
 3437TIP3   OH231725   2.588   3.902  16.674  0.5623 -0.1311 -0.1990
 3437TIP3    H131726   2.615   3.825  16.624  0.3671 -1.0105  0.9979
 3437TIP3    H231727   2.493   3.906  16.665  0.3157 -1.3006  1.4234
 3438TIP3   OH231728   4.758   0.816  12.050 -0.1920  0.1514  0.2390
 3438TIP3    H131729   4.826   0.826  12.116  0.5417 -0.2921 -0.4385
 3438TIP3    H231730   4.688   0.876  12.078  0.2968  0.3008  1.1607
 3439TIP3   OH231731   2.512   2.580   3.255 -0.0687  0.0811 -0.1614
 3439TIP3    H131732   2.592   2.527   3.248  0.5115  0.8434  0.6125
 3439TIP3    H231733   2.453   2.525   3.306  0.2947 -0.0959  0.0800
 3440TIP3   OH231734   0.697   4.387   3.192  0.3839 -0.1615 -0.1206
 3440TIP3    H131735   0.749   4.418   3.118  2.5529 -2.3741  0.3409
 3440TIP3    H231736   0.754   4.398   3.268 -0.1684 -1.7537  0.5721
 3441TIP3   OH231737   4.290   6.303   1.421 -0.2585 -0.1951 -0.5493
 3441TIP3    H131738   4.336   6.228   1.385  0.6833  0.2933 -0.4052
 3441TIP3    H231739   4.346   6.378   1.402 -0.4208  0.2702  0.6575
 3442TIP3   OH231740   1.036   3.548   0.332  0.1731 -0.5717  0.3299
 3442TIP3    H131741   1.022   3.602   0.409 -2.0866 -0.0180 -0.3923
 3442TIP3    H231742   0.964   3.570   0.273  0.2807 -2.9415 -0.8276
 3443TIP3   OH231743   2.866   3.494  11.677 -0.8074 -0.3387 -0.3245
 3443TIP3    H131744   2.935   3.560  11.675  0.3120 -1.3753  1.2417
 3443TIP3    H231745   2.786   3.542  11.659 -0.1215  1.5915  1.3943
 3444TIP3   OH231746   0.199   6.014  11.177 -0.6183  0.1437  0.2871
 3444TIP3    H131747   0.138   5.977  11.241 -0.6243 -0.0278  0.1829
 3444TIP3    H231748   0.276   5.958  11.181 -0.1511  0.8206  0.9776
 3445TIP3   OH231749   3.571   1.852   5.679 -0.5987  0.6515  0.3859
 3445TIP3    H131750   3.539   1.939   5.657 -0.2343  0.3643 -1.4510
 3445TIP3    H231751   3.653   1.843   5.630 -0.1661 -0.3904  1.2564
 3446TIP3   OH231752   1.703   4.195  14.920  0.6797  0.5660  0.1064
 3446TIP3    H131753   1.626   4.179  14.975  0.7541 -0.1249  0.0261
 3446TIP3    H231754   1.672   4.257  14.854  0.3467  0.7270  0.4092
 3447TIP3   OH231755   0.287   4.402  15.967 -0.2616 -0.1378 -0.2397
 3447TIP3    H131756   0.223   4.473  15.978  1.4632  2.5963 -4.8526
 3447TIP3    H231757   0.239   4.334  15.920 -0.8573 -0.0362  0.2113
 3448TIP3   OH231758   3.376   2.537   3.557  0.5051 -0.5598  0.0117
 3448TIP3    H131759   3.418   2.591   3.490 -0.0276 -0.9146 -0.6172
 3448TIP3    H231760   3.448   2.487   3.596  0.5370 -2.1891 -1.9880
 3449TIP3   OH231761   6.407   1.492   3.241 -0.0403 -0.0060  0.0207
 3449TIP3    H131762   6.488   1.447   3.265  0.3636  1.3309  1.2799
 3449TIP3    H231763   6.424   1.526   3.153  0.9626  0.7003  0.4783
 3450TIP3   OH231764   0.829   0.047   3.698 -0.6076 -0.8787 -0.3406
 3450TIP3    H131765   0.924   0.054   3.698 -0.6779  0.5994  0.6680
 3450TIP3    H231766   0.808   0.002   3.780 -0.7547 -2.0180 -0.9860
 3451TIP3   OH231767   4.018   5.192  14.557 -0.1310  0.7397  0.9760
 3451TIP3    H131768   4.094   5.206  14.614 -2.1851 -3.1260  5.1927
 3451TIP3    H231769   3.953   5.254  14.588  0.4018  2.5657 -1.2355
 3452TIP3   OH231770   6.383   6.726  12.884 -0.2245  0.3334  0.4411
 3452TIP3    H131771   6.385   6.818  12.859  0.7140  0.4876  1.0514
 3452TIP3    H231772   6.459   6.688  12.841  0.1132  0.1178  1.2212
 3453TIP3   OH231773   4.848   5.947   0.876  0.3211 -0.0615 -0.6471
 3453TIP3    H131774   4.801   6.031   0.874  1.1231  0.4170  0.1103
 3453TIP3    H231775   4.789   5.886   0.831 -0.9112  0.5929  0.0017
 3454TIP3   OH231776   5.133   4.982   1.606 -0.1619  0.2392 -0.0745
 3454TIP3    H131777   5.168   4.895   1.588  0.6351  0.6800 -0.7029
 3454TIP3    H231778   5.111   4.980   1.699 -1.3075 -1.0152 -0.3396
 3455TIP3   OH231779   2.177   3.887  12.618 -0.1293  0.7338 -0.2353
 3455TIP3    H131780   2.249   3.824  12.628 -0.9965 -0.4987 -1.3373
 3455TIP3    H231781   2.213   3.955  12.561  0.9144  1.4208  1.2053
 3456TIP3   OH231782   3.027   1.639   0.370  0.1617 -0.0931  0.0775
 3456TIP3    H131783   3.088   1.688   0.314  1.7011 -1.1773  0.7671
 3456TIP3    H231784   3.051   1.547   0.358 -0.8592 -0.4927  0.9440
 3457TIP3   OH231785   5.766   4.830   6.085 -0.3449  0.1212 -0.3321
 3457TIP3    H131786   5.672   4.815   6.070 -0.9439  2.8185  0.1189
 3457TIP3    H231787   5.777   4.812   6.179 -0.4802  0.0272 -0.3332
 3458TIP3   OH231788   1.355   1.248  14.287 -0.1998  0.5211 -0.5007
 3458TIP3    H131789   1.270   1.251  14.243 -0.4034  0.1399 -0.1343
 3458TIP3    H231790   1.417   1.224  14.218 -0.3171  1.2283 -0.8666
 3459TIP3   OH231791   6.182   5.535   4.052  0.1154  0.0994 -0.2660
 3459TIP3    H131792   6.177   5.538   4.148  1.8258  0.4774 -0.1467
 3459TIP3    H231793   6.276   5.536   4.034 -0.1893  0.2821 -1.9682
 3460TIP3   OH231794   3.290   2.524   0.478  0.1245  0.0509 -0.6445
 3460TIP3    H131795   3.294   2.614   0.447 -2.2026  0.4536  0.0073
 3460TIP3    H231796   3.262   2.473   0.402 -0.0672  0.1267 -0.6245
 3461TIP3   OH231797   5.004   0.837  16.500  0.3053  0.6572 -0.0553
 3461TIP3    H131798   5.094   0.869  16.501  0.1579  1.1261  1.7804
 3461TIP3    H231799   4.949   0.916  16.497 -0.0333  0.6261  2.6278
 3462TIP3   OH231800   2.953   4.482   0.042 -0.1447 -0.0878  0.3674
 3462TIP3    H131801   3.020   4.461   0.107 -1.6001 -1.8301  1.3656
 3462TIP3    H231802   2.906   4.556   0.079  0.4149  0.3510  0.2269
 3463TIP3   OH231803   5.039   5.737   5.544  0.0297 -0.1533 -1.0059
 3463TIP3    H131804   5.056   5.826   5.516  0.7192  0.1028  0.1552
 3463TIP3    H231805   4.961   5.711   5.495  0.4938  0.6545 -2.2289
 3464TIP3   OH231806   2.007   0.179   5.917 -0.2139  0.7653  0.0689
 3464TIP3    H131807   2.032   0.101   5.967 -0.6111  0.7182  0.1912
 3464TIP3    H231808   1.957   0.232   5.978  0.7068  1.4825  0.2204
 3465TIP3   OH231809   5.993   0.487   0.618 -0.2517 -0.1823 -0.0424
 3465TIP3    H131810   5.966   0.560   0.674 -0.0460 -0.1836  0.0570
 3465TIP3    H231811   6.043   0.430   0.676 -0.0178 -0.1726 -0.2354
 3466TIP3   OH231812   0.597   6.091  12.104 -0.2062 -0.5093 -0.4067
 3466TIP3    H131813   0.553   6.013  12.069 -0.6702 -0.1377 -0.6677
 3466TIP3    H231814   0.586   6.084  12.199  0.3206 -1.0931 -0.3904
 3467TIP3   OH231815   3.359   4.147  10.800  0.1304  0.3678 -0.8958
 3467TIP3    H131816   3.295   4.077  10.794  0.5352  0.0831 -2.7236
 3467TIP3    H231817   3.412   4.138  10.720  0.2618  2.6679 -1.1440
 3468TIP3   OH231818   0.589   5.921   5.397 -0.0347  0.1666 -0.2229
 3468TIP3    H131819   0.505   5.882   5.422  0.3870  0.3678  1.6118
 3468TIP3    H231820   0.641   5.847   5.366 -0.5642 -0.0935 -0.5182
 3469TIP3   OH231821   0.731   3.841  16.248  0.4610 -1.1264  0.1985
 3469TIP3    H131822   0.701   3.779  16.182  0.3217  0.2312 -1.0511
 3469TIP3    H231823   0.705   3.927  16.215 -0.2699 -0.4474  2.3888
 3470TIP3   OH231824   6.717   2.923   2.186  0.4711 -0.0371  0.2895
 3470TIP3    H131825   6.800   2.970   2.186  0.9519 -0.8678  1.1983
 3470TIP3    H231826   6.689   2.924   2.278  0.3221 -1.2261  0.2662
 3471TIP3   OH231827   3.191   2.653   6.205  0.1204  0.1049 -0.2924
 3471TIP3    H131828   3.271   2.651   6.258 -0.1220  0.3982  0.0944
 3471TIP3    H231829   3.189   2.567   6.162  2.3023  1.1918 -2.8665
 3472TIP3   OH231830   5.843   4.389   1.968  0.2706 -0.3131 -0.4889
 3472TIP3    H131831   5.887   4.339   2.036 -0.5812 -1.8566 -1.0162
 3472TIP3    H231832   5.907   4.397   1.897  0.4151 -0.6496 -0.3932
 3473TIP3   OH231833   2.666   5.838   4.860  0.1108 -0.8345 -0.9359
 3473TIP3    H131834   2.586   5.838   4.913  0.8131 -2.2533  0.1985
 3473TIP3    H231835   2.718   5.910   4.896  0.5115 -1.6824  0.2324
 3474TIP3   OH231836   2.879   4.322  15.684 -0.3110  0.3877 -0.2145
 3474TIP3    H131837   2.834   4.350  15.604  1.0359  0.3298 -1.0371
 3474TIP3    H231838   2.878   4.399  15.740 -2.4887  0.0271  0.3362
 3475TIP3   OH231839   5.541   1.822  14.404 -0.6386  0.3857  0.2439
 3475TIP3    H131840   5.545   1.911  14.370  0.5688  1.3349  2.6326
 3475TIP3    H231841   5.527   1.832  14.498  0.3016 -1.9014  0.7204
 3476TIP3   OH231842   0.973   0.501  15.786 -0.3523  0.0611  0.2064
 3476TIP3    H131843   0.912   0.552  15.839 -2.1252 -0.5610 -1.1279
 3476TIP3    H231844   0.957   0.531  15.696 -0.9209 -2.2300 -0.5300
 3477TIP3   OH231845   3.991   1.719   2.268  0.0928  0.2464 -0.0471
 3477TIP3    H131846   3.940   1.646   2.301  1.0974 -1.8967 -2.8749
 3477TIP3    H231847   3.939   1.755   2.196  0.5821  0.9175 -0.0797
 3478TIP3   OH231848   5.659   3.209  12.111 -0.1616 -0.1453  0.1057
 3478TIP3    H131849   5.624   3.278  12.168 -2.1593 -2.1929  1.5456
 3478TIP3    H231850   5.745   3.190  12.148 -0.6801 -0.2003  1.3380
 3479TIP3   OH231851   4.345   2.569  14.614 -0.5952 -0.0909 -0.5501
 3479TIP3    H131852   4.285   2.625  14.663  0.0828 -2.2127  3.0796
 3479TIP3    H231853   4.307   2.481  14.620  0.6974 -0.8091 -1.9655
 3480TIP3   OH231854   3.698   5.116   2.662  0.5539  0.2805 -0.3226
 3480TIP3    H131855   3.604   5.107   2.671  0.5553  0.5906  0.0475
 3480TIP3    H231856   3.710   5.202   2.621  0.7390  1.1024  1.3905
 3481TIP3   OH231857   0.593   4.551   2.884 -0.2187 -0.0396  0.0090
 3481TIP3    H131858   0.631   4.614   2.945 -0.5294  0.8144 -0.6722
 3481TIP3    H231859   0.655   4.478   2.883  0.8338  0.8452 -0.2334
 3482TIP3   OH231860   6.042   1.293  13.745  0.2433  1.1147  0.8132
 3482TIP3    H131861   6.009   1.371  13.791  0.9080  2.2797 -0.5952
 3482TIP3    H231862   5.977   1.225  13.763 -1.9131  2.7620 -0.2494
 3483TIP3   OH231863   4.417   3.681   0.253 -0.5426  0.2085 -0.6158
 3483TIP3    H131864   4.380   3.648   0.171 -1.6451 -1.1266  0.3634
 3483TIP3    H231865   4.341   3.699   0.308  0.0982  2.8938 -0.4919
 3484TIP3   OH231866   2.414   4.398  12.571 -0.1318  0.9181 -0.0439
 3484TIP3    H131867   2.409   4.397  12.475  0.8784  1.9557 -0.1370
 3484TIP3    H231868   2.505   4.374  12.590 -0.5805 -0.2250  0.7039
 3485TIP3   OH231869   3.408   6.423  14.873 -0.4647  0.1255 -0.1437
 3485TIP3    H131870   3.497   6.447  14.900  0.2597 -1.4428 -0.9773
 3485TIP3    H231871   3.369   6.384  14.951 -0.5500  1.0800  0.3097
 3486TIP3   OH231872   1.149   5.999   5.335 -0.2285  0.0322  0.3494
 3486TIP3    H131873   1.161   6.040   5.421 -0.4943  0.9331 -0.0363
 3486TIP3    H231874   1.072   6.042   5.298  1.0428  1.1130 -1.1665
 3487TIP3   OH231875   2.637   0.301   5.030 -0.5008  0.0527  0.5475
 3487TIP3    H131876   2.626   0.206   5.024 -1.2857  0.1151  0.9023
 3487TIP3    H231877   2.608   0.323   5.118 -0.8995  0.6927  0.2615
 3488TIP3   OH231878   5.159   3.999   5.352 -0.5080  0.1993 -0.0025
 3488TIP3    H131879   5.181   4.070   5.291  0.1923  0.7828  0.8853
 3488TIP3    H231880   5.116   4.044   5.425 -1.0046 -0.4380  0.0956
 3489TIP3   OH231881   0.179   6.320  14.316 -0.0213  0.4400  0.2269
 3489TIP3    H131882   0.103   6.374  14.297 -0.0827  0.1023 -0.5367
 3489TIP3    H231883   0.143   6.237  14.348  0.0507  0.6014  0.7261
 3490TIP3   OH231884   6.784   2.695  16.012  0.5118 -0.3627  0.0263
 3490TIP3    H131885   6.789   2.669  15.920  0.6789 -1.2925  0.2896
 3490TIP3    H231886   6.691   2.715  16.026  0.5268  0.0386 -0.4039
 3491TIP3   OH231887   0.833   4.246   4.807 -0.3626 -0.2413  0.0625
 3491TIP3    H131888   0.750   4.268   4.764 -0.6283 -0.2996  0.5397
 3491TIP3    H231889   0.821   4.271   4.898  0.7339  1.2609 -0.1786
 3492TIP3   OH231890   3.108   4.280  12.702 -0.0682 -0.4356 -0.6653
 3492TIP3    H131891   3.143   4.366  12.724 -1.0933  0.1622 -1.3080
 3492TIP3    H231892   3.186   4.227  12.683  0.7166 -0.2992  1.8181
 3493TIP3   OH231893   6.779   4.880  10.468 -0.0376 -0.6225  0.1263
 3493TIP3    H131894   6.846   4.820  10.435 -1.0762 -1.4626 -0.5466
 3493TIP3    H231895   6.712   4.823  10.505 -0.4925  0.1866  0.5846
 3494TIP3   OH231896   3.745   0.546  14.402 -0.4317 -0.6270  0.0086
 3494TIP3    H131897   3.781   0.612  14.342  1.6567 -2.3256 -0.7441
 3494TIP3    H231898   3.699   0.596  14.469  1.2000  1.5949 -0.4385
 3495TIP3   OH231899   2.770   5.113  11.205 -0.3494  0.2706 -0.1395
 3495TIP3    H131900   2.756   5.139  11.114 -1.1631  0.1613 -0.0516
 3495TIP3    H231901   2.683   5.114  11.244 -0.2423 -1.2911  0.2136
 3496TIP3   OH231902   3.691   1.083  12.344  0.4596  0.1996 -0.0429
 3496TIP3    H131903   3.686   1.177  12.362 -1.5414  0.0546  0.5005
 3496TIP3    H231904   3.718   1.044  12.427  0.6760  0.2475 -0.0911
 3497TIP3   OH231905   6.625   1.055   2.013  0.1373  0.2110  0.6080
 3497TIP3    H131906   6.566   1.040   2.086  1.2542  0.1868  1.5268
 3497TIP3    H231907   6.708   1.016   2.039  1.3573  2.5110  0.5123
 3498TIP3   OH231908   4.552   3.332   6.017  0.5625 -0.0065 -0.3982
 3498TIP3    H131909   4.604   3.253   6.003 -0.6699 -0.7115 -1.1980
 3498TIP3    H231910   4.581   3.365   6.102  0.9637 -1.4400  0.0503
 3499TIP3   OH231911   3.824   2.660  14.287  0.3318  0.2172 -0.5898
 3499TIP3    H131912   3.731   2.663  14.312  0.3249 -0.7704 -0.4471
 3499TIP3    H231913   3.836   2.735  14.230 -0.5535  0.3746 -0.5885
 3500TIP3   OH231914   3.931   1.237   1.710  0.3084 -0.4075 -0.1912
 3500TIP3    H131915   3.967   1.236   1.621  1.2059  1.4050  0.0918
 3500TIP3    H231916   3.886   1.153   1.719 -0.3477 -0.4007 -2.5741
 3501TIP3   OH231917   2.080   4.209  15.481  0.2968  0.0899  0.6103
 3501TIP3    H131918   2.116   4.229  15.395  0.6145  0.5388  0.8425
 3501TIP3    H231919   1.987   4.191  15.465 -0.0485  1.8558  0.3706
 3502TIP3   OH231920   3.292   5.439  14.979 -0.1610 -0.1345  0.0399
 3502TIP3    H131921   3.382   5.445  14.946  0.1291 -0.7261  0.6937
 3502TIP3    H231922   3.237   5.441  14.901  0.3837  0.8843 -0.3311
 3503TIP3   OH231923   4.425   4.398   0.619 -0.6522 -0.0608 -0.1798
 3503TIP3    H131924   4.459   4.476   0.663 -0.1684  0.1491 -0.9095
 3503TIP3    H231925   4.330   4.409   0.620 -0.6977 -0.3789  1.3904
 3504TIP3   OH231926   1.374   5.415  13.674  0.5387  0.2450 -0.3627
 3504TIP3    H131927   1.280   5.401  13.690  0.1450  0.4653 -2.2351
 3504TIP3    H231928   1.380   5.506  13.643  1.3195  0.1259 -0.5861
 3505TIP3   OH231929   2.947   1.189   0.156 -0.0652 -0.1194  0.1075
 3505TIP3    H131930   2.957   1.183   0.061 -0.6724 -1.2199  0.0862
 3505TIP3    H231931   2.919   1.279   0.172  2.0449  0.6952 -0.5344
 3506TIP3   OH231932   5.074   1.136  16.608 -0.0186  0.3761 -0.3508
 3506TIP3    H131933   5.071   1.148  16.703 -1.2337 -1.3350 -0.1137
 3506TIP3    H231934   5.157   1.091  16.592 -0.9219 -1.6299  0.2780
 3507TIP3   OH231935   4.020   4.066  10.841 -0.4419  0.3277 -0.5170
 3507TIP3    H131936   4.106   4.026  10.825 -0.7742 -0.3513 -0.6355
 3507TIP3    H231937   4.032   4.158  10.816  0.1510  0.1577 -0.8862
 3508TIP3   OH231938   6.102   5.352   2.346  0.3582 -0.1187  0.3379
 3508TIP3    H131939   6.181   5.345   2.401 -0.1339 -1.3976  0.9163
 3508TIP3    H231940   6.132   5.327   2.258  0.2701 -2.3735  0.8942
 3509TIP3   OH231941   1.634   1.369  15.303  0.4092  0.3528 -0.0274
 3509TIP3    H131942   1.710   1.352  15.358 -0.1220  0.9495  0.9089
 3509TIP3    H231943   1.583   1.434  15.351 -1.1670 -0.7017 -0.2072
 3510TIP3   OH231944   2.001   6.765  16.900 -0.0471  0.4220  0.1485
 3510TIP3    H131945   2.059   6.826  16.854  0.9001  0.2454  1.0666
 3510TIP3    H231946   1.974   6.813  16.978  0.4721 -0.2114  0.7295
 3511TIP3   OH231947   5.382   4.387   5.967 -0.1486  0.1985  0.6264
 3511TIP3    H131948   5.398   4.345   5.883 -1.1570 -0.6840  0.8559
 3511TIP3    H231949   5.441   4.343   6.028 -1.2549 -0.9940  0.8815
 3512TIP3   OH231950   3.248   6.178   5.153 -0.0455  0.3647  0.0265
 3512TIP3    H131951   3.179   6.243   5.166  0.2130  0.4196  1.3111
 3512TIP3    H231952   3.206   6.094   5.174  0.1744  0.3585  0.4504
 3513TIP3   OH231953   1.097   1.481   1.356  0.1775 -0.4211 -0.6574
 3513TIP3    H131954   1.012   1.438   1.368 -0.2748  0.6962  0.4902
 3513TIP3    H231955   1.116   1.472   1.263 -0.6235 -1.7351 -0.7174
 3514TIP3   OH231956   0.765   0.125  13.739 -0.1724 -0.3288 -0.4539
 3514TIP3    H131957   0.678   0.109  13.700 -0.8855 -1.1680  1.3727
 3514TIP3    H231958   0.801   0.196  13.686 -3.4545  2.6092  0.7981
 3515TIP3   OH231959   5.943   5.495   0.572  0.2722 -0.2314  0.7167
 3515TIP3    H131960   5.983   5.452   0.497 -1.6084  1.7112 -1.5830
 3515TIP3    H231961   5.954   5.588   0.556 -0.3948  0.2757  2.7639
 3516TIP3   OH231962   5.576   0.792   5.835 -0.0093 -0.0102 -0.5750
 3516TIP3    H131963   5.546   0.708   5.870  1.3241 -0.4619 -0.4413
 3516TIP3    H231964   5.586   0.847   5.912  0.9553 -0.3525 -0.4435
 3517TIP3   OH231965   6.437   4.684   4.611  0.4139 -0.6348 -0.3294
 3517TIP3    H131966   6.524   4.645   4.620  1.0433  0.7688 -0.0422
 3517TIP3    H231967   6.439   4.729   4.526  0.0742 -0.3709 -0.2033
 3518TIP3   OH231968   0.682   4.511   4.685  0.1352  0.5262  0.5562
 3518TIP3    H131969   0.737   4.586   4.709  0.4529  0.6787 -0.5808
 3518TIP3    H231970   0.688   4.507   4.590  2.7005 -2.8292  0.6653
 3519TIP3   OH231971   3.960   3.721   0.505  0.2296 -0.3510 -0.6612
 3519TIP3    H131972   3.895   3.791   0.497 -1.0058 -1.2583  0.8699
 3519TIP3    H231973   4.019   3.734   0.431  0.1492  2.3966 -0.3364
 3520TIP3   OH231974   2.022   4.908   0.849 -0.2839 -0.2795  0.0985
 3520TIP3    H131975   1.949   4.911   0.911 -2.4478 -1.1342 -2.2277
 3520TIP3    H231976   2.061   4.821   0.862 -0.6566 -0.4128  0.3172
 3521TIP3   OH231977   4.362   0.117  12.415 -0.1901  0.0634 -0.1282
 3521TIP3    H131978   4.384   0.189  12.357  1.4001  0.8794  1.3920
 3521TIP3    H231979   4.446   0.086  12.449 -0.8417 -2.3141 -0.4641
 3522TIP3   OH231980   6.534   1.603  16.429  0.6860  0.5196  0.2244
 3522TIP3    H131981   6.621   1.605  16.391  1.0465 -0.0888  0.9841
 3522TIP3    H231982   6.526   1.516  16.468  0.0976  0.8852  0.9693
 3523TIP3   OH231983   4.525   2.646  13.792  0.3758  0.1350  0.1301
 3523TIP3    H131984   4.505   2.712  13.858  1.7972  0.1698  0.5494
 3523TIP3    H231985   4.578   2.581  13.838  1.7694  0.3769 -1.0507
 3524TIP3   OH231986   3.468   6.237   1.993  0.2301 -0.1399  0.0449
 3524TIP3    H131987   3.460   6.304   1.926  1.2761  0.5488  0.5877
 3524TIP3    H231988   3.377   6.212   2.013 -0.1796  1.1758 -0.1014
 3525TIP3   OH231989   3.793   5.236  13.959  0.3680 -0.1900 -0.0260
 3525TIP3    H131990   3.818   5.255  14.049  2.8526  0.4294 -0.7799
 3525TIP3    H231991   3.782   5.321  13.918  0.2553 -0.4596 -0.5714
 3526TIP3   OH231992   0.629   5.645  10.577 -0.5344 -0.4915  0.0458
 3526TIP3    H131993   0.719   5.668  10.552 -0.5569 -1.1552 -0.7165
 3526TIP3    H231994   0.636   5.555  10.610 -0.5214  0.3327  2.4756
 3527TIP3   OH231995   3.526   1.051   4.360 -0.4028 -0.3632 -0.5537
 3527TIP3    H131996   3.461   0.984   4.383  0.6037 -1.2931 -0.3338
 3527TIP3    H231997   3.566   1.020   4.279  0.0907 -0.0298 -0.4438
 3528TIP3   OH231998   0.672   1.739   4.657 -0.6090 -0.8721  0.4828
 3528TIP3    H131999   0.586   1.736   4.616  0.1931 -0.6435 -1.3179
 3528TIP3    H232000   0.688   1.832   4.673 -0.2090 -0.7955 -0.3183
 3529TIP3   OH232001   6.147   0.848  15.627  0.2751  0.2674 -0.2972
 3529TIP3    H132002   6.234   0.888  15.625  0.0268  0.8769  0.6915
 3529TIP3    H232003   6.151   0.787  15.700  0.1943 -0.4853 -0.9106
 3530TIP3   OH232004   5.712   5.775   3.650 -0.3062  0.6554 -0.6639
 3530TIP3    H132005   5.638   5.813   3.697 -1.4811 -1.7534 -0.4370
 3530TIP3    H232006   5.772   5.747   3.718 -0.5547 -0.0255 -0.7218
 3531TIP3   OH232007   0.158   5.641   6.460  0.0125  0.3381 -0.3781
 3531TIP3    H132008   0.200   5.564   6.499 -2.3121 -0.6030  0.4468
 3531TIP3    H232009   0.151   5.704   6.532 -1.0447 -0.0068 -0.1514
 3532TIP3   OH232010   2.923   1.797   0.631  0.6106  0.3616  0.3192
 3532TIP3    H132011   2.949   1.876   0.582  0.5915  0.8938  1.1555
 3532TIP3    H232012   2.986   1.730   0.603  1.4130  1.0055  0.5315
 3533TIP3   OH232013   3.916   4.296  13.146  0.3556  0.2066  0.1221
 3533TIP3    H132014   3.960   4.212  13.134  0.7820  0.5014 -0.4042
 3533TIP3    H232015   3.934   4.345  13.066 -0.4856  0.5353  0.1153
 3534TIP3   OH232016   2.351   2.732   3.090 -0.7837 -0.2642 -0.4594
 3534TIP3    H132017   2.287   2.664   3.108 -1.6671  0.4613 -0.7863
 3534TIP3    H232018   2.435   2.693   3.114 -1.3737 -1.1211  0.2768
 3535TIP3   OH232019   6.220   3.354   3.935  0.0851 -0.0128 -0.4042
 3535TIP3    H132020   6.307   3.382   3.963 -0.3146 -0.4339  1.4322
 3535TIP3    H232021   6.169   3.435   3.930 -0.0969  0.0032  1.2083
 3536TIP3   OH232022   2.932   0.828  16.926  0.4375  0.2981  0.1705
 3536TIP3    H132023   3.005   0.877  16.887  0.5322 -0.5543 -0.7573
 3536TIP3    H232024   2.906   0.881  17.002  1.6897  0.8722  0.2298
 3537TIP3   OH232025   5.988   3.159  11.975 -0.0514 -0.2883  0.3573
 3537TIP3    H132026   5.939   3.164  11.893  0.2552  0.1941  0.2045
 3537TIP3    H232027   6.048   3.233  11.972  0.0189 -0.3165  0.9817
 3538TIP3   OH232028   2.473   0.738  16.646  0.2293  0.3752  0.4632
 3538TIP3    H132029   2.515   0.710  16.728  0.1219  1.0768  0.7614
 3538TIP3    H232030   2.519   0.688  16.578  1.5533  1.0979  0.7856
 3539TIP3   OH232031   3.324   2.770  15.470  0.1979  0.0342  0.0886
 3539TIP3    H132032   3.234   2.800  15.458 -0.0480 -0.8951 -0.4902
 3539TIP3    H232033   3.325   2.731  15.557  0.1429  0.3561  0.2375
 3540TIP3   OH232034   2.896   5.183  14.492 -0.5313  0.2383 -0.1561
 3540TIP3    H132035   2.849   5.209  14.571  1.0152 -0.0124  0.8908
 3540TIP3    H232036   2.954   5.257  14.472  1.4565 -0.9392  0.8970
 3541TIP3   OH232037   2.231   1.074   3.735 -0.0268 -0.7594  0.0467
 3541TIP3    H132038   2.304   1.022   3.767 -1.1120 -2.6753 -0.4668
 3541TIP3    H232039   2.238   1.072   3.640  0.1663  0.4614  0.0085
 3542TIP3   OH232040   4.260   6.783   3.574  0.5641  0.0529 -0.0274
 3542TIP3    H132041   4.256   6.849   3.505  2.2220  0.3461  0.1350
 3542TIP3    H232042   4.220   6.705   3.535  1.7278  0.1256 -1.4399
 3543TIP3   OH232043   5.586   2.650   3.599  0.0143 -0.1080 -0.4447
 3543TIP3    H132044   5.505   2.670   3.645 -0.1191 -2.4958  0.4841
 3543TIP3    H232045   5.559   2.604   3.520  0.4395 -0.0773 -0.6133
 3544TIP3   OH232046   4.198   2.971   0.328 -0.5344  0.0319 -0.4101
 3544TIP3    H132047   4.140   2.894   0.331  1.8542 -1.8570 -0.0675
 3544TIP3    H232048   4.276   2.944   0.376  0.5319  2.6198 -0.5474
 3545TIP3   OH232049   3.863   5.851  12.630  0.3788  0.2783 -0.5132
 3545TIP3    H132050   3.944   5.838  12.680 -0.0906 -0.1208  0.1706
 3545TIP3    H232051   3.891   5.890  12.548  1.2704  0.1156 -0.2975
 3546TIP3   OH232052   1.418   2.606   2.057 -0.0216  0.0590  0.0320
 3546TIP3    H132053   1.396   2.696   2.082  0.9918  0.4949 -0.5371
 3546TIP3    H232054   1.471   2.573   2.129 -0.5048 -0.1262  0.3008
 3547TIP3   OH232055   3.927   4.671  11.847  0.5883  0.6488  0.1886
 3547TIP3    H132056   3.894   4.595  11.799 -0.2284  2.2237 -1.9033
 3547TIP3    H232057   3.848   4.716  11.877  1.0107  1.3419  0.2667
 3548TIP3   OH232058   1.758   6.696   0.697 -0.3458 -0.2104 -0.0504
 3548TIP3    H132059   1.765   6.603   0.720 -1.3470  0.2922  2.6264
 3548TIP3    H232060   1.842   6.716   0.655  0.7693 -1.8260  1.2576
 3549TIP3   OH232061   1.826   0.129   0.812  0.1684  0.2628 -0.1179
 3549TIP3    H132062   1.795   0.040   0.795  2.8973 -1.2878  2.2322
 3549TIP3    H232063   1.902   0.140   0.754  0.3855  0.7006  0.2375
 3550TIP3   OH232064   4.163   1.790  16.188  0.1982  0.0889  0.1283
 3550TIP3    H132065   4.213   1.861  16.229  0.2381 -0.0455  0.3185
 3550TIP3    H232066   4.106   1.758  16.258  0.5411 -0.3954  0.1931
 3551TIP3   OH232067   1.555   1.416  13.118  0.6216 -0.0416  0.4212
 3551TIP3    H132068   1.470   1.373  13.125  0.4826  0.2434  0.5435
 3551TIP3    H232069   1.615   1.359  13.166  0.5503 -0.3750  0.1137
 3552TIP3   OH232070   5.133   5.884  13.027  0.6541 -0.2731  0.2980
 3552TIP3    H132071   5.156   5.958  13.082  1.5264 -0.3888  0.1081
 3552TIP3    H232072   5.198   5.885  12.957  1.4366 -1.8994  0.9399
 3553TIP3   OH232073   3.531   2.767  12.915  0.7589  0.5113 -0.4539
 3553TIP3    H132074   3.453   2.782  12.968 -0.0913  0.2166 -1.5787
 3553TIP3    H232075   3.555   2.676  12.932  0.0156  0.1689 -1.1351
 3554TIP3   OH232076   2.478   4.959  14.855  0.1372 -0.3470  0.1642
 3554TIP3    H132077   2.418   4.976  14.928  1.2489  0.5194  0.9113
 3554TIP3    H232078   2.552   4.912  14.895 -0.9209 -3.3732 -1.1134
 3555TIP3   OH232079   0.664   4.664  16.151 -0.5295  0.6893  0.3167
 3555TIP3    H132080   0.589   4.607  16.164  1.6648 -2.3806  0.4190
 3555TIP3    H232081   0.661   4.687  16.058 -0.3253 -1.3615 -0.2245
 3556TIP3   OH232082   2.217   6.591   5.137 -0.5752 -0.0571 -0.3514
 3556TIP3    H132083   2.261   6.566   5.056 -0.9336  1.6566 -1.1215
 3556TIP3    H232084   2.138   6.537   5.139 -0.7076  0.0855 -1.3036
 3557TIP3   OH232085   5.569   1.569   5.674 -0.2102  0.0588 -0.1783
 3557TIP3    H132086   5.602   1.624   5.745  0.9540 -0.3068 -0.4130
 3557TIP3    H232087   5.480   1.547   5.700 -0.3975  1.3379  0.3344
 3558TIP3   OH232088   5.894   1.439   1.213 -0.1870  0.6374  0.5282
 3558TIP3    H132089   5.898   1.345   1.229 -1.1959  0.3711 -0.6417
 3558TIP3    H232090   5.866   1.477   1.297  0.9493 -0.0119  1.2171
 3559TIP3   OH232091   4.463   6.641  13.947  0.4481  0.1314  0.3200
 3559TIP3    H132092   4.537   6.592  13.982  0.5659  0.3256  0.3453
 3559TIP3    H232093   4.386   6.595  13.978  0.5616 -0.2359  0.0617
 3560TIP3   OH232094   1.931   1.056  13.540 -0.4887  0.1923 -0.1854
 3560TIP3    H132095   1.851   1.048  13.593  0.1617  0.0345  0.7896
 3560TIP3    H232096   1.997   1.087  13.601  0.4141 -0.4843 -0.7926
 3561TIP3   OH232097   2.855   1.023   5.630 -0.9298 -0.6514 -0.5781
 3561TIP3    H132098   2.835   0.996   5.541 -2.3661  0.8802 -0.7521
 3561TIP3    H232099   2.774   1.060   5.664  0.4489  1.9208  0.1816
 3562TIP3   OH232100   1.664   4.556  14.884 -0.1635  0.1795  0.1761
 3562TIP3    H132101   1.591   4.494  14.888 -0.0541  0.0348 -0.0645
 3562TIP3    H232102   1.657   4.605  14.966  1.3080 -1.8874  1.6561
 3563TIP3   OH232103   2.879   4.274   0.275 -0.3113 -0.4440  0.2189
 3563TIP3    H132104   2.785   4.291   0.287 -0.2855  0.4213 -0.6561
 3563TIP3    H232105   2.884   4.184   0.243 -0.8273 -0.5545  0.4393
 3564TIP3   OH232106   6.370   0.505  12.860 -0.2151  0.2550  0.0999
 3564TIP3    H132107   6.457   0.540  12.841 -0.0511 -0.1387  0.1285
 3564TIP3    H232108   6.310   0.572  12.827  0.1078  1.3447  1.6311
 3565TIP3   OH232109   2.661   1.495   6.627  0.3874  0.2207 -0.1955
 3565TIP3    H132110   2.631   1.422   6.573  0.3440 -0.5042  0.7820
 3565TIP3    H232111   2.752   1.474   6.648  0.5466  0.7283 -0.3624
 3566TIP3   OH232112   6.748   6.040   0.755  0.3022 -0.7020  0.3124
 3566TIP3    H132113   6.843   6.032   0.762  0.4095  0.6210  0.7787
 3566TIP3    H232114   6.729   6.128   0.790 -1.1047 -1.0137  0.4015
 3567TIP3   OH232115   3.651   1.477   4.496 -0.0956  0.1518 -0.3867
 3567TIP3    H132116   3.668   1.566   4.463 -3.3169  0.5449 -1.2613
 3567TIP3    H232117   3.563   1.457   4.466  0.2232 -3.0615  0.5330
 3568TIP3   OH232118   3.810   0.201  12.414  0.1085 -0.1556  0.5484
 3568TIP3    H132119   3.860   0.226  12.491 -0.3057  1.9383  0.2008
 3568TIP3    H232120   3.854   0.123  12.380  2.1342  0.6642  1.1881
 3569TIP3   OH232121   0.495   4.995   3.817  0.2631 -0.0678 -0.8112
 3569TIP3    H132122   0.582   5.029   3.797  0.5327 -0.2134  0.0607
 3569TIP3    H232123   0.485   5.009   3.911  0.6171 -2.7976 -0.2566
 3570TIP3   OH232124   1.793   3.078  11.945 -0.1057 -0.9488 -0.0643
 3570TIP3    H132125   1.732   3.020  11.992 -2.2919  1.9557  0.9994
 3570TIP3    H232126   1.796   3.157  11.999  0.8654  0.8391 -2.5722
 3571TIP3   OH232127   6.215   5.165  14.331 -0.2234  0.6010 -0.4992
 3571TIP3    H132128   6.277   5.180  14.403  0.7879  0.5145 -1.3375
 3571TIP3    H232129   6.199   5.252  14.294  0.9409  0.3983 -1.5246
 3572TIP3   OH232130   4.139   2.128  15.294  0.1790 -0.8809 -0.5495
 3572TIP3    H132131   4.109   2.132  15.385  0.7836 -1.9110 -0.2835
 3572TIP3    H232132   4.233   2.142  15.299  0.3378 -1.7473 -0.9196
 3573TIP3   OH232133   6.036   5.556   3.086 -0.2719  0.0688  0.3059
 3573TIP3    H132134   6.087   5.600   3.018 -0.5606 -2.1254 -1.4550
 3573TIP3    H232135   6.091   5.559   3.164  1.1518  0.5563 -0.6864
 3574TIP3   OH232136   3.640   2.471  14.046 -0.1246  0.5428  0.0672
 3574TIP3    H132137   3.616   2.564  14.052  0.0922  0.6704 -0.8766
 3574TIP3    H232138   3.716   2.470  13.988 -0.2393 -0.2468 -0.0807
 3575TIP3   OH232139   4.679   0.420   5.752 -0.3877  0.0868 -0.2917
 3575TIP3    H132140   4.598   0.399   5.705  0.2686 -1.8870 -0.6306
 3575TIP3    H232141   4.715   0.335   5.777  1.0908  0.9652  0.7214
 3576TIP3   OH232142   3.612   2.569   2.827 -0.3359  0.5695 -0.0693
 3576TIP3    H132143   3.698   2.607   2.814  0.2091 -0.2705  0.9052
 3576TIP3    H232144   3.618   2.481   2.789 -0.0596 -0.2809  1.7996
 3577TIP3   OH232145   5.204   3.232   5.610  0.3213 -0.2541 -0.1176
 3577TIP3    H132146   5.112   3.210   5.600  0.2605 -1.5483  2.6155
 3577TIP3    H232147   5.250   3.162   5.563 -0.0598 -0.6097  0.0339
 3578TIP3   OH232148   6.621   5.425   3.062 -0.2802  0.2666 -0.0546
 3578TIP3    H132149   6.546   5.380   3.024  0.1035 -1.3181  0.9570
 3578TIP3    H232150   6.587   5.465   3.142 -0.8752  2.8047 -1.5059
 3579TIP3   OH232151   2.462   3.336   3.810  0.1436  0.2384  0.0548
 3579TIP3    H132152   2.549   3.372   3.793  0.0760  0.2322 -0.3029
 3579TIP3    H232153   2.476   3.270   3.879  0.3014  0.7799  0.5476
 3580TIP3   OH232154   4.166   0.404   3.619 -0.0869 -0.3116  0.1994
 3580TIP3    H132155   4.217   0.478   3.586 -0.4979  0.4873  1.2898
 3580TIP3    H232156   4.147   0.352   3.541  0.1475  0.7654 -0.6067
 3581TIP3   OH232157   2.691   4.490  14.864  0.1274 -0.2242 -0.7780
 3581TIP3    H132158   2.697   4.440  14.782  0.8371  0.2050 -0.9971
 3581TIP3    H232159   2.749   4.443  14.924 -0.4477 -0.5801 -0.4903
 3582TIP3   OH232160   1.055   1.447   4.210  0.0514  0.3687  0.1233
 3582TIP3    H132161   1.099   1.509   4.268 -0.7832  1.0704  0.0170
 3582TIP3    H232162   1.124   1.419   4.149  0.9890 -0.5217  1.5330
 3583TIP3   OH232163   0.781   1.195   2.460  0.4474  0.5580 -0.0648
 3583TIP3    H132164   0.877   1.197   2.468  0.4595  1.0966 -0.3742
 3583TIP3    H232165   0.754   1.138   2.532  1.1890 -2.1610 -1.7635
 3584TIP3   OH232166   0.463   3.502   6.065 -0.7613 -0.2113 -0.7198
 3584TIP3    H132167   0.545   3.455   6.053  1.4937  3.0020  0.6164
 3584TIP3    H232168   0.440   3.488   6.157  0.8918  2.3744  0.2142
 3585TIP3   OH232169   3.149   0.060   6.460  0.0652  0.3199  0.0485
 3585TIP3    H132170   3.124  -0.029   6.484  0.8155  0.1631  0.2771
 3585TIP3    H232171   3.119   0.070   6.369  0.0134 -0.1813  0.0085
 3586TIP3   OH232172   1.653   4.613  13.563 -0.0434  0.2302 -0.3409
 3586TIP3    H132173   1.673   4.700  13.528  0.2797  0.2346 -0.1409
 3586TIP3    H232174   1.561   4.599  13.539 -0.5277  1.2103  0.8358
 3587TIP3   OH232175   1.393   3.403   5.910  0.4126  0.1364 -0.8814
 3587TIP3    H132176   1.344   3.461   5.968  0.0553  0.4157 -1.4673
 3587TIP3    H232177   1.471   3.380   5.961 -0.1853 -0.0951 -0.0591
 3588TIP3   OH232178   3.893   0.381  16.416  0.0727  0.0746  0.0814
 3588TIP3    H132179   3.976   0.341  16.444 -0.6207 -0.0119  2.1722
 3588TIP3    H232180   3.920   0.461  16.370  1.3545 -1.0360 -1.2387
 3589TIP3   OH232181   6.752   0.610  16.066 -0.0008 -0.2300  0.2357
 3589TIP3    H132182   6.675   0.625  16.121  0.7736  1.7866  0.8727
 3589TIP3    H232183   6.823   0.594  16.128  0.4935  0.0075 -0.2625
 3590TIP3   OH232184   0.320   0.034  14.339 -0.6707 -0.4312  0.1342
 3590TIP3    H132185   0.297   0.127  14.346  0.2392 -0.0035 -1.9269
 3590TIP3    H232186   0.239  -0.012  14.364 -1.8338  0.9567 -0.8561
 3591TIP3   OH232187   1.724   5.291  10.596  0.3692  0.1847 -0.7643
 3591TIP3    H132188   1.818   5.307  10.607  0.5828 -0.3807 -1.6265
 3591TIP3    H232189   1.711   5.290  10.501 -0.7673  1.6261 -0.6663
 3592TIP3   OH232190   4.192   2.851  14.113  0.2547 -0.0707 -0.1607
 3592TIP3    H132191   4.190   2.822  14.204 -0.2656 -1.2209 -0.5110
 3592TIP3    H232192   4.285   2.858  14.091  0.3929 -1.0353  0.0908
 3593TIP3   OH232193   0.774   1.603  14.925 -0.3976 -0.7317 -0.1281
 3593TIP3    H132194   0.816   1.539  14.983  1.4454 -1.0845 -1.7324
 3593TIP3    H232195   0.772   1.559  14.839 -0.1075  0.9249 -1.0290
 3594TIP3   OH232196   6.575   0.301  17.114  0.1129  0.5936  0.0665
 3594TIP3    H132197   6.506   0.277  17.052  0.7156  0.3500 -0.5124
 3594TIP3    H232198   6.540   0.378  17.160 -1.1024 -0.3028  0.7147
 3595TIP3   OH232199   3.182   3.295  11.298  0.1653 -0.6349 -0.5954
 3595TIP3    H132200   3.169   3.320  11.207  1.4447  0.2327 -0.5682
 3595TIP3    H232201   3.096   3.309  11.339 -0.0960  0.2165 -1.3850
 3596TIP3   OH232202   2.491   0.632   1.598 -0.4191 -0.3230  0.0191
 3596TIP3    H132203   2.429   0.623   1.526  0.6021  1.9231 -1.2394
 3596TIP3    H232204   2.544   0.708   1.575  1.9009 -1.3108  1.7236
 3597TIP3   OH232205   6.178   0.168  11.239 -0.5087  0.4563 -0.1868
 3597TIP3    H132206   6.133   0.150  11.156  0.5225  2.7998 -1.3498
 3597TIP3    H232207   6.250   0.105  11.241 -1.9280 -1.2258  0.1621
 3598TIP3   OH232208   5.170   4.163   2.883  0.3484 -0.0055 -0.3683
 3598TIP3    H132209   5.147   4.161   2.790 -0.8871 -2.3576 -0.1013
 3598TIP3    H232210   5.106   4.104   2.924  0.0318  1.9425  2.1915
 3599TIP3   OH232211   6.748   5.118  10.600 -0.3649 -0.0272  0.4245
 3599TIP3    H132212   6.723   5.044  10.544  1.4186  0.7115 -1.4806
 3599TIP3    H232213   6.844   5.116  10.600 -0.3070  1.0538  2.0985
 3600TIP3   OH232214   3.299   2.604  13.074 -0.5438 -0.3090  0.0300
 3600TIP3    H132215   3.261   2.657  13.004 -0.1329  1.3953  1.0403
 3600TIP3    H232216   3.340   2.530  13.029 -1.0107  0.2984 -1.4467
 3601TIP3   OH232217   5.814   5.262  14.952 -0.4378  0.1075  0.3675
 3601TIP3    H132218   5.815   5.232  15.043  0.5556 -0.8115  0.0845
 3601TIP3    H232219   5.860   5.192  14.904 -1.9513  0.0102 -1.0242
 3602TIP3   OH232220   4.875   6.296  12.385  0.2291  0.0818 -0.1374
 3602TIP3    H132221   4.923   6.325  12.307 -0.1180 -1.3714 -0.9237
 3602TIP3    H232222   4.792   6.345  12.382  0.4150  0.3823 -0.4180
 3603TIP3   OH232223   6.783   5.564  16.803  0.6276 -0.1753 -0.0264
 3603TIP3    H132224   6.769   5.643  16.750 -0.4446 -1.0417 -1.0891
 3603TIP3    H232225   6.696   5.525  16.812  1.0264 -0.8361  1.1442
 3604TIP3   OH232226   0.354   6.624  14.085  0.0610 -0.1177  0.8495
 3604TIP3    H132227   0.277   6.575  14.056 -0.3219  1.0320 -0.1276
 3604TIP3    H232228   0.322   6.681  14.155 -0.1447  0.8372  0.0006
 3605TIP3   OH232229   4.762   3.699   2.837  1.1478  0.1581  0.1891
 3605TIP3    H132230   4.788   3.685   2.746  1.0118 -0.9470  0.3001
 3605TIP3    H232231   4.755   3.610   2.873 -0.8096  0.4908  0.7186
 3606TIP3   OH232232   1.921   1.563  10.642  0.5145  0.3082  0.2522
 3606TIP3    H132233   1.967   1.493  10.688 -0.0347 -0.2148  0.0259
 3606TIP3    H232234   1.965   1.570  10.557 -0.7791 -1.2969 -0.6156
 3607TIP3   OH232235   1.953   1.213  11.788 -0.4542 -0.2588 -0.1003
 3607TIP3    H132236   2.034   1.163  11.798 -1.2398 -1.4117  0.6338
 3607TIP3    H232237   1.903   1.195  11.867 -1.4862  0.3613 -0.5886
 3608TIP3   OH232238   3.232   0.565   5.324  0.3978 -0.2735  0.4124
 3608TIP3    H132239   3.225   0.473   5.348  0.4767  0.1154  2.0511
 3608TIP3    H232240   3.306   0.598   5.375  0.1713  0.7679  0.0959
 3609TIP3   OH232241   2.491   2.253  14.686  0.5773 -0.5054  0.0451
 3609TIP3    H132242   2.533   2.312  14.623  1.7759 -0.2082  1.0854
 3609TIP3    H232243   2.562   2.197  14.717  0.2289  0.0249  1.8796
 3610TIP3   OH232244   0.110   5.226   3.022  0.1719 -0.5034 -0.3169
 3610TIP3    H132245   0.094   5.316   3.050 -0.5967 -0.9956  0.8974
 3610TIP3    H232246   0.025   5.183   3.032  0.2624 -1.1266 -1.9037
 3611TIP3   OH232247   3.453   6.422   1.793 -0.3038 -0.5008  0.4265
 3611TIP3    H132248   3.362   6.451   1.799 -0.0515  0.4969 -0.3135
 3611TIP3    H232249   3.502   6.500   1.769  0.3297 -1.5641 -2.1617
 3612TIP3   OH232250   6.511   3.146   6.033 -0.7959 -0.1981  0.2127
 3612TIP3    H132251   6.436   3.115   6.083 -0.8061 -0.8064 -0.1640
 3612TIP3    H232252   6.583   3.146   6.095 -1.3395  1.5386  0.8947
 3613TIP3   OH232253   6.360   3.714  12.025 -0.2246  0.1595  0.4119
 3613TIP3    H132254   6.356   3.809  12.014  0.2973  0.2427  0.8569
 3613TIP3    H232255   6.392   3.703  12.114 -0.6377 -0.4406  0.4880
 3614TIP3   OH232256   4.340   4.612   0.945  0.0323 -0.0928  0.2904
 3614TIP3    H132257   4.387   4.600   1.027 -1.8017 -0.6432  1.3386
 3614TIP3    H232258   4.284   4.688   0.960  0.1143  0.1781 -0.6825
 3615TIP3   OH232259   3.094   2.754  15.225  0.4328 -0.0294  0.7834
 3615TIP3    H132260   3.052   2.712  15.150 -0.6422  1.8825  0.2596
 3615TIP3    H232261   3.143   2.683  15.267 -0.0096 -1.4388 -0.9437
 3616TIP3   OH232262   0.094   3.526   1.996 -0.2225 -0.5406 -0.4841
 3616TIP3    H132263   0.022   3.463   2.003  0.3729 -1.1727  0.0373
 3616TIP3    H232264   0.167   3.484   2.040 -0.7179  1.9480  3.0914
 3617TIP3   OH232265   6.200   0.272   2.373 -0.1651  0.3920  0.1349
 3617TIP3    H132266   6.169   0.347   2.424 -2.6506 -1.9321  2.3703
 3617TIP3    H232267   6.123   0.217   2.361  1.7587 -2.4730 -0.2206
 3618TIP3   OH232268   6.502   3.752   6.145  0.3723  0.6410 -0.5143
 3618TIP3    H132269   6.523   3.799   6.225 -0.5088  0.2134 -0.0200
 3618TIP3    H232270   6.423   3.794   6.113  0.2476  0.2606 -0.7089
 3619TIP3   OH232271   3.359   3.817  15.055 -0.3360  0.2149  0.6817
 3619TIP3    H132272   3.383   3.900  15.012  0.5593 -1.0058 -1.3466
 3619TIP3    H232273   3.270   3.799  15.024 -0.0991 -0.1293  0.1881
 3620TIP3   OH232274   0.743   5.850   1.070  0.4358  0.4476 -0.2147
 3620TIP3    H132275   0.713   5.815   1.154  2.2049 -0.1762  0.1898
 3620TIP3    H232276   0.789   5.777   1.028  0.8681  1.1835 -1.0612
 3621TIP3   OH232277   3.813   2.477   5.326  0.3959 -0.0141 -0.4494
 3621TIP3    H132278   3.852   2.554   5.366 -0.8594  1.6711 -2.2934
 3621TIP3    H232279   3.719   2.491   5.333  0.1279 -0.2987 -2.6738
 3622TIP3   OH232280   3.114   6.515  15.316  0.4221 -0.1331  0.0593
 3622TIP3    H132281   3.095   6.423  15.337  1.2665 -0.4236 -0.3816
 3622TIP3    H232282   3.155   6.550  15.395  3.1151 -1.0764 -0.8071
 3623TIP3   OH232283   0.731   1.508   5.010  0.0203  0.1766 -0.0844
 3623TIP3    H132284   0.716   1.598   5.038 -2.3930 -0.0067 -0.5986
 3623TIP3    H232285   0.653   1.485   4.961  0.1519 -2.5356  0.8482
 3624TIP3   OH232286   5.038   0.247  15.975  0.7510 -0.6472 -0.2624
 3624TIP3    H132287   4.999   0.334  15.974 -1.6791 -1.6836 -1.0231
 3624TIP3    H232288   5.133   0.264  15.976  0.3639  1.9654  1.2000
 3625TIP3   OH232289   3.902   6.049   2.512 -0.1466 -0.1883  0.1360
 3625TIP3    H132290   3.934   6.106   2.582 -0.7608  0.7359 -0.3310
 3625TIP3    H232291   3.813   6.078   2.495  0.5311  0.7579 -2.1904
 3626TIP3   OH232292   4.993   1.201  12.027 -0.3276 -0.0694  0.7121
 3626TIP3    H132293   4.935   1.247  11.966 -1.0132 -0.2956  1.1746
 3626TIP3    H232294   5.043   1.270  12.069  0.4336  0.0613 -0.3796
 3627TIP3   OH232295   3.033   3.239  12.018  0.9578  0.4712  0.0158
 3627TIP3    H132296   2.996   3.326  12.002 -0.6109 -0.4732 -1.9117
 3627TIP3    H232297   2.959   3.179  12.011  1.8905 -1.0168  1.9030
 3628TIP3   OH232298   5.892   3.298  16.738 -0.5920 -0.0501  0.1043
 3628TIP3    H132299   5.902   3.275  16.645  1.2344  1.4839 -0.1654
 3628TIP3    H232300   5.802   3.329  16.746 -1.4956 -2.2919 -0.6036
 3629TIP3   OH232301   3.890   4.710  15.171  0.4055  0.0528 -0.7606
 3629TIP3    H132302   3.914   4.782  15.113  0.9775 -0.3932 -1.0835
 3629TIP3    H232303   3.953   4.641  15.151  0.6374 -0.0913  0.4244
 3630TIP3   OH232304   3.814   0.989   4.200 -0.1135 -0.4170 -0.1278
 3630TIP3    H132305   3.862   0.906   4.199 -0.0469 -0.6202  3.6297
 3630TIP3    H232306   3.725   0.966   4.176 -0.8843 -2.4006  3.8354
 3631TIP3   OH232307   1.094   1.725   2.929  0.5773  0.1316  0.2472
 3631TIP3    H132308   1.079   1.631   2.940 -0.4871  0.1547 -0.8200
 3631TIP3    H232309   1.143   1.732   2.847  1.9801  0.4318  1.0803
 3632TIP3   OH232310   2.509   2.621  13.647  0.1712  0.6054  0.2355
 3632TIP3    H132311   2.585   2.564  13.636 -1.3774 -1.5359  0.2244
 3632TIP3    H232312   2.508   2.675  13.568  2.2787  1.4971  0.7448
 3633TIP3   OH232313   5.057   6.212  16.659  0.4861  0.5125  0.4563
 3633TIP3    H132314   5.068   6.297  16.616 -0.6459  0.0119 -0.9045
 3633TIP3    H232315   5.122   6.156  16.617 -0.3715  0.1170 -0.3753
 3634TIP3   OH232316   5.589   4.959  16.226 -0.7700  0.3181  0.8665
 3634TIP3    H132317   5.619   4.884  16.176 -0.2584  0.3874  1.0639
 3634TIP3    H232318   5.561   5.023  16.160 -2.5175 -0.5437  0.6950
 3635TIP3   OH232319   1.471   0.293   3.279 -0.9447 -0.2096  0.1301
 3635TIP3    H132320   1.375   0.290   3.274 -1.2562  3.2135  1.1161
 3635TIP3    H232321   1.494   0.378   3.240  1.5646 -0.3796  1.0725
 3636TIP3   OH232322   0.643   5.555   3.613 -0.2937 -0.1348 -0.6893
 3636TIP3    H132323   0.679   5.631   3.567 -0.5101  1.0192  0.9858
 3636TIP3    H232324   0.712   5.530   3.675 -0.5043 -0.8767 -0.7451
 3637TIP3   OH232325   1.843   6.005  17.168  0.0677 -0.4122  0.1382
 3637TIP3    H132326   1.853   5.942  17.240  0.6281  0.3199  0.7105
 3637TIP3    H232327   1.809   6.084  17.209 -1.7341 -0.6637 -0.7529
 3638TIP3   OH232328   5.150   0.330   4.236  0.5569  0.0084  0.0656
 3638TIP3    H132329   5.081   0.313   4.173 -1.0356 -0.4817  1.8508
 3638TIP3    H232330   5.144   0.424   4.255 -2.0595 -0.5448  2.7499
 3639TIP3   OH232331   2.988   2.627  11.796  0.2451 -0.2853  0.0186
 3639TIP3    H132332   3.027   2.558  11.850  1.9349  0.4480 -0.2312
 3639TIP3    H232333   3.000   2.707  11.847 -0.1805  0.0849 -0.4478
 3640TIP3   OH232334   2.284   4.726  16.312 -0.2467  0.5019 -0.5026
 3640TIP3    H132335   2.225   4.765  16.247  2.2835 -0.5313 -3.6632
 3640TIP3    H232336   2.303   4.639  16.279  2.8318  0.6897  0.4787
 3641TIP3   OH232337   1.873   0.961  16.710  0.0532  0.7487  0.4181
 3641TIP3    H132338   1.887   0.930  16.621  4.2563  0.6675  0.9054
 3641TIP3    H232339   1.919   0.897  16.765 -0.7018  1.8976  2.4981
 3642TIP3   OH232340   5.109   0.174   4.708 -0.2444  0.0369 -0.0623
 3642TIP3    H132341   5.073   0.087   4.723  1.0948 -0.6150 -0.5145
 3642TIP3    H232342   5.113   0.183   4.613  2.7022 -0.7836 -0.1036
 3643TIP3   OH232343   1.525   3.282   4.609  0.5912 -0.0075 -0.6085
 3643TIP3    H132344   1.550   3.356   4.665  0.4031 -0.3890 -0.0150
 3643TIP3    H232345   1.485   3.219   4.669  2.7178 -1.5624 -0.7085
 3644TIP3   OH232346   0.530   3.980   0.751  0.8969  0.2847 -0.0322
 3644TIP3    H132347   0.479   3.988   0.832  1.0966 -0.5298  0.1809
 3644TIP3    H232348   0.582   4.060   0.747 -1.9464  2.2051 -1.3717
 3645TIP3   OH232349   2.084   0.266  13.922 -0.0606  0.6482  0.4555
 3645TIP3    H132350   2.131   0.310  13.993  1.5454 -1.4674  0.8199
 3645TIP3    H232351   2.064   0.179  13.957  2.0599 -1.0232 -2.0482
 3646TIP3   OH232352   1.727   0.349   3.945 -0.1616  0.0379  0.9201
 3646TIP3    H132353   1.776   0.293   3.885 -0.9077 -0.5751  0.8682
 3646TIP3    H232354   1.692   0.419   3.889 -1.6037 -1.0157  0.4300
 3647TIP3   OH232355   1.040   3.795   0.062 -0.3589 -0.6296 -0.1538
 3647TIP3    H132356   1.044   3.804  -0.033  0.4274  1.2712  0.0237
 3647TIP3    H232357   0.951   3.765   0.079 -2.0215  3.1265 -1.2644
 3648TIP3   OH232358   3.887   3.971  10.358  0.0563  0.0016 -0.0188
 3648TIP3    H132359   3.957   3.937  10.414  0.1485 -2.1471 -1.3354
 3648TIP3    H232360   3.886   4.065  10.376  1.2797 -0.3241  2.2096
 3649TIP3   OH232361   2.247   3.762  17.202  0.1723  0.1368  0.1191
 3649TIP3    H132362   2.275   3.776  17.112  0.9834 -0.5105  0.2582
 3649TIP3    H232363   2.177   3.826  17.216  2.2372  2.5700  0.0971
 3650TIP3   OH232364   4.319   6.448   4.032 -0.2333  0.1031 -0.9522
 3650TIP3    H132365   4.325   6.503   4.110  1.5067 -0.0636 -0.9213
 3650TIP3    H232366   4.317   6.510   3.959  0.0246  0.2419 -0.8440
 3651TIP3   OH232367   3.595   3.200  14.604  0.4363 -0.1387  0.3178
 3651TIP3    H132368   3.641   3.134  14.657  1.3631  0.2809  0.0660
 3651TIP3    H232369   3.504   3.193  14.631 -0.1269 -3.7216 -1.9505
 3652TIP3   OH232370   6.605   0.620  12.708 -0.0678  0.0618 -0.1847
 3652TIP3    H132371   6.619   0.657  12.795 -0.6016  0.3599 -0.2252
 3652TIP3    H232372   6.540   0.676  12.667  0.1328 -0.1104 -0.7592
 3653TIP3   OH232373   4.117   4.815  14.180 -0.2349 -0.1767  0.5310
 3653TIP3    H132374   4.129   4.746  14.114  0.3425  0.7872 -0.4176
 3653TIP3    H232375   4.090   4.891  14.129  1.2151  0.8794  1.2834
 3654TIP3   OH232376   2.872   0.237   5.350  0.2573  0.6951  0.5335
 3654TIP3    H132377   2.830   0.305   5.403 -0.4773 -1.4652  2.8889
 3654TIP3    H232378   2.822   0.237   5.268  0.3578  3.0164  0.4094
 3655TIP3   OH232379   4.406   5.480   5.414 -0.6801  0.1314  0.1726
 3655TIP3    H132380   4.486   5.470   5.465 -0.5860 -0.0112 -0.0034
 3655TIP3    H232381   4.425   5.548   5.351 -0.9935  0.7339  0.7145
 3656TIP3   OH232382   2.789   3.808   3.051 -0.7208 -0.2433 -0.3244
 3656TIP3    H132383   2.748   3.727   3.080 -1.3083 -0.2510 -1.1398
 3656TIP3    H232384   2.813   3.791   2.960 -1.3511  0.6774 -0.6737
 3657TIP3   OH232385   3.854   1.587  15.879 -0.3387 -0.7275 -0.0519
 3657TIP3    H132386   3.775   1.622  15.920  1.4884  2.7034  0.8866
 3657TIP3    H232387   3.915   1.574  15.951  1.1171  0.1110 -1.0885
 3658TIP3   OH232388   5.184   2.918  12.851 -0.0791  0.2956  0.9318
 3658TIP3    H132389   5.176   3.009  12.822 -2.0275  0.5538  2.0989
 3658TIP3    H232390   5.102   2.900  12.897  1.0421 -1.4860  2.3691
 3659TIP3   OH232391   2.869   5.083  13.146 -0.1537 -0.0678  0.3962
 3659TIP3    H132392   2.899   5.160  13.194 -0.3910  0.2298  0.0715
 3659TIP3    H232393   2.803   5.117  13.086  0.3949 -0.3823 -0.3927
 3660TIP3   OH232394   3.843   1.301   3.027 -0.6290  0.9910  0.2811
 3660TIP3    H132395   3.771   1.259   2.980 -1.2281  1.2392  0.9670
 3660TIP3    H232396   3.829   1.278   3.119 -1.3999  3.2099  0.7902
 3661TIP3   OH232397   0.069   4.182  15.518  0.0018 -0.7708 -0.4504
 3661TIP3    H132398   0.062   4.095  15.557  1.0102 -0.5021  0.3630
 3661TIP3    H232399   0.098   4.166  15.429 -0.8162 -1.3150 -0.6309
 3662TIP3   OH232400   1.667   3.063   5.373 -0.1734 -0.3747 -0.6380
 3662TIP3    H132401   1.578   3.032   5.362  0.3003 -2.2875  0.4905
 3662TIP3    H232402   1.719   3.007   5.316  0.4350 -0.0598 -0.4034
 3663TIP3   OH232403   5.491   3.308   4.434  0.4621 -0.6634 -0.1176
 3663TIP3    H132404   5.543   3.233   4.464  0.8284 -0.2927  0.1755
 3663TIP3    H232405   5.462   3.282   4.346  0.5799 -1.1541 -0.0184
 3664TIP3   OH232406   4.576   0.137   2.151 -0.8364  0.1731 -0.1053
 3664TIP3    H132407   4.487   0.109   2.170 -0.4222 -1.2861 -0.1444
 3664TIP3    H232408   4.628   0.057   2.161  0.2597  0.6729 -1.4594
 3665TIP3   OH232409   1.898   2.066   0.724 -0.2070 -0.6748  0.0623
 3665TIP3    H132410   1.813   2.099   0.694 -0.2878 -1.2851 -0.3970
 3665TIP3    H232411   1.930   2.013   0.651  0.3895 -0.7798  0.3922
 3666TIP3   OH232412   4.592   1.596   1.685 -0.1195  0.0579 -0.1434
 3666TIP3    H132413   4.650   1.570   1.756  2.6472  2.2092 -1.4035
 3666TIP3    H232414   4.598   1.692   1.683 -2.8515  0.3154 -1.1467
 3667TIP3   OH232415   6.136   2.119  12.176  0.2739  0.3572  0.7767
 3667TIP3    H132416   6.191   2.070  12.116  0.5786  0.7333  0.7429
 3667TIP3    H232417   6.140   2.070  12.258  1.8302  1.1371  1.1993
 3668TIP3   OH232418   0.912   3.103   0.988 -0.3388  0.0240 -0.1980
 3668TIP3    H132419   0.819   3.087   0.973 -0.3088  0.0644 -0.4212
 3668TIP3    H232420   0.935   3.043   1.060 -0.4626 -0.2164 -0.3588
 3669TIP3   OH232421   0.957   0.832   4.934 -0.1845  0.2261  0.2072
 3669TIP3    H132422   1.029   0.877   4.889  0.8109 -1.8795 -0.4577
 3669TIP3    H232423   0.887   0.897   4.937  1.0586  1.7184 -0.9274
 3670TIP3   OH232424   6.394   0.898   5.642 -0.2881  0.3967 -0.5612
 3670TIP3    H132425   6.454   0.968   5.669  0.0703 -0.8145  2.0636
 3670TIP3    H232426   6.446   0.818   5.650 -1.3559 -0.3997 -1.3500
 3671TIP3   OH232427   2.629   3.544   1.441 -0.1858 -0.0930  0.1185
 3671TIP3    H132428   2.549   3.581   1.478 -1.2826 -1.7542 -0.4699
 3671TIP3    H232429   2.627   3.570   1.349 -0.5824 -0.9807 -0.1277
 3672TIP3   OH232430   5.389   1.249   5.245 -0.7866 -0.5282 -0.1867
 3672TIP3    H132431   5.418   1.338   5.228 -0.6603 -0.4819  0.2589
 3672TIP3    H232432   5.346   1.253   5.330  2.8219 -1.6519  1.9041
 3673TIP3   OH232433   2.814   4.729   4.882  0.2676 -0.6324 -0.5448
 3673TIP3    H132434   2.794   4.792   4.813 -1.1396 -0.7884 -0.3127
 3673TIP3    H232435   2.769   4.764   4.959 -1.0718 -2.2224 -0.5579
 3674TIP3   OH232436   5.569   4.138   2.137  0.1964  0.2442  0.1740
 3674TIP3    H132437   5.537   4.091   2.215  0.4375 -0.2869 -0.0408
 3674TIP3    H232438   5.604   4.069   2.081 -0.5382  0.5618 -0.6788
 3675TIP3   OH232439   0.408   4.185   2.513  0.3203  0.0361  0.1567
 3675TIP3    H132440   0.478   4.132   2.475 -0.0749 -0.0336 -0.4977
 3675TIP3    H232441   0.372   4.233   2.439  0.1704  0.6470  0.6189
 3676TIP3   OH232442   0.881   5.822  12.710 -0.1914 -0.6295 -0.8376
 3676TIP3    H132443   0.797   5.869  12.708  0.7663  1.1581 -0.9825
 3676TIP3    H232444   0.923   5.852  12.790  0.4347 -1.3199 -0.8967
 3677TIP3   OH232445   3.284   5.371  14.063  0.4028 -0.5926 -0.1463
 3677TIP3    H132446   3.261   5.353  13.972 -1.6058 -1.4476  0.4675
 3677TIP3    H232447   3.295   5.284  14.102  4.5577 -0.2919 -0.2360
 3678TIP3   OH232448   6.065   3.385   0.960  0.7555 -0.5967  0.1091
 3678TIP3    H132449   6.143   3.342   0.996  2.8290  2.6683 -0.1003
 3678TIP3    H232450   6.099   3.444   0.893 -1.9063  1.0415  0.0803
 3679TIP3   OH232451   3.201   6.173  16.997  0.2541 -0.4602 -0.4740
 3679TIP3    H132452   3.122   6.189  17.047 -0.1202  1.4110 -1.5806
 3679TIP3    H232453   3.191   6.084  16.963 -1.8790  0.0813 -1.4111
 3680TIP3   OH232454   4.241   1.858  12.345  0.6811 -0.4692  0.5156
 3680TIP3    H132455   4.265   1.944  12.311  0.0623 -1.4519 -2.8301
 3680TIP3    H232456   4.300   1.797  12.301 -0.8730 -1.9684  0.3661
 3681TIP3   OH232457   1.812   1.804   0.055  0.3522  0.5051 -0.0130
 3681TIP3    H132458   1.726   1.839   0.079 -0.6516 -0.1956 -2.2717
 3681TIP3    H232459   1.872   1.878   0.066 -0.8981  1.5996 -0.2744
 3682TIP3   OH232460   4.292   2.678  13.502  0.3470 -0.6145 -0.3352
 3682TIP3    H132461   4.269   2.641  13.587  1.0709  1.0715  0.6546
 3682TIP3    H232462   4.268   2.770  13.509 -2.4476 -1.0014 -3.0969
 3683TIP3   OH232463   4.788   3.905   3.677 -0.2881  0.0531 -0.2366
 3683TIP3    H132464   4.731   3.982   3.681  0.7539  0.8306  0.0307
 3683TIP3    H232465   4.740   3.838   3.726 -1.2539  0.4912 -0.5484
 3684TIP3   OH232466   3.011   1.302  12.738 -0.3509  0.5817 -0.0399
 3684TIP3    H132467   3.092   1.253  12.754 -0.0532  1.0013 -0.2445
 3684TIP3    H232468   3.031   1.392  12.767 -1.3314  0.3034  1.6674
 3685TIP3   OH232469   4.168   4.232  11.615  0.0792  0.0868  0.6187
 3685TIP3    H132470   4.256   4.204  11.592  0.0590 -0.5767  1.2961
 3685TIP3    H232471   4.129   4.156  11.659 -1.9774 -0.8021 -2.4689
 3686TIP3   OH232472   1.243   0.795   3.464  0.3912 -0.3608 -0.3849
 3686TIP3    H132473   1.184   0.860   3.425 -1.0936 -1.3111  0.1863
 3686TIP3    H232474   1.318   0.846   3.495 -0.3293  0.9581 -0.7366
 3687TIP3   OH232475   5.902   3.231  10.382  0.5816 -0.4443 -0.1290
 3687TIP3    H132476   5.943   3.177  10.450 -1.9246 -0.9283  1.0896
 3687TIP3    H232477   5.846   3.171  10.334 -0.7575  0.6707 -0.0119
 3688TIP3   OH232478   1.719   1.953  12.802 -0.1153 -0.2644  0.8803
 3688TIP3    H132479   1.781   2.025  12.817 -0.2184 -0.3317  1.6601
 3688TIP3    H232480   1.770   1.889  12.751  0.7209 -0.6566  2.1546
 3689TIP3   OH232481   6.690   3.806  14.764 -0.7897  0.0730 -0.9244
 3689TIP3    H132482   6.760   3.766  14.816  0.0456 -0.6091 -2.4783
 3689TIP3    H232483   6.612   3.755  14.786  0.2348 -2.5552 -2.8137
 3690TIP3   OH232484   1.437   2.449   1.619  0.4764  0.0272  0.3209
 3690TIP3    H132485   1.481   2.507   1.681 -1.2525 -2.0053  3.7548
 3690TIP3    H232486   1.346   2.478   1.619  0.5400  0.3536 -1.8366
 3691TIP3   OH232487   3.603   3.453   6.344  0.4770 -0.0879 -0.1629
 3691TIP3    H132488   3.686   3.406   6.349 -0.3731 -1.7426 -0.5785
 3691TIP3    H232489   3.537   3.386   6.365 -0.6793  1.4941  1.5414
 3692TIP3   OH232490   6.143   1.034  14.771 -0.0180 -0.3291 -0.0225
 3692TIP3    H132491   6.195   1.027  14.851  1.9837  1.6747 -1.0312
 3692TIP3    H232492   6.079   1.103  14.789  1.6324  1.4512 -0.6519
 3693TIP3   OH232493   4.664   6.165  15.271  0.0035 -0.0535 -0.2557
 3693TIP3    H132494   4.713   6.205  15.199 -0.4445  0.2473 -0.3987
 3693TIP3    H232495   4.663   6.072  15.250 -0.0574  0.0228 -0.6052
 3694TIP3   OH232496   2.951   6.746   3.419 -0.2678 -0.2328 -0.2187
 3694TIP3    H132497   2.925   6.655   3.435 -2.4771  0.5399  0.9230
 3694TIP3    H232498   3.045   6.747   3.438  0.1887 -2.6034 -1.9531
 3695TIP3   OH232499   5.934   4.776  13.965  0.3264  0.3484 -1.2983
 3695TIP3    H132500   5.950   4.810  13.877  0.1247  0.7233 -1.1934
 3695TIP3    H232501   5.840   4.791  13.980 -0.0285 -1.3045 -1.6935
 3696TIP3   OH232502   6.391   1.286   1.376  0.0634  0.4769  0.2825
 3696TIP3    H132503   6.321   1.344   1.347 -0.4814 -0.0703  0.5042
 3696TIP3    H232504   6.453   1.344   1.421  0.0780  1.0593 -0.4741
 3697TIP3   OH232505   3.145   6.268  16.634  0.2811 -0.0534 -0.1687
 3697TIP3    H132506   3.150   6.342  16.693 -1.1843 -0.2318  0.2208
 3697TIP3    H232507   3.223   6.216  16.653  0.7828  0.8564  0.2770
 3698TIP3   OH232508   1.584   4.601  15.221  0.6365 -0.3528 -0.0693
 3698TIP3    H132509   1.652   4.600  15.289  2.0414 -0.8952 -1.4184
 3698TIP3    H232510   1.566   4.694  15.207  1.0215 -0.2029  0.3785
 3699TIP3   OH232511   1.390   4.673  11.792  0.1139 -0.2265 -0.2443
 3699TIP3    H132512   1.471   4.622  11.790  1.2437  1.4527  0.1323
 3699TIP3    H232513   1.416   4.757  11.830 -2.0814 -0.0743  1.0526
 3700TIP3   OH232514   5.477   1.956  16.467 -0.7945  0.3823  0.2030
 3700TIP3    H132515   5.386   1.959  16.495 -0.6712 -0.1755  0.6738
 3700TIP3    H232516   5.510   1.872  16.500 -0.9467 -0.8923 -2.5393
 3701TIP3   OH232517   5.198   1.288  11.493 -0.3760 -0.4489  0.2637
 3701TIP3    H132518   5.278   1.322  11.533 -0.5718 -0.9309  1.0763
 3701TIP3    H232519   5.127   1.329  11.543 -0.6235 -0.9277  0.3053
 3702TIP3   OH232520   4.097   1.166   4.176  0.7801 -0.4324  0.2764
 3702TIP3    H132521   4.017   1.151   4.227 -0.5255  1.1179 -1.1868
 3702TIP3    H232522   4.139   1.241   4.218  0.6323 -0.2644  0.1269
 3703TIP3   OH232523   1.947   3.336   5.513 -0.2163 -0.4590 -0.3826
 3703TIP3    H132524   2.020   3.278   5.533 -0.4840 -1.5729 -2.3003
 3703TIP3    H232525   1.937   3.330   5.418 -2.2418  0.3525 -0.2857
 3704TIP3   OH232526   1.463   1.396  13.905  0.6046 -0.0504  0.6593
 3704TIP3    H132527   1.474   1.492  13.906  1.2898 -0.1255  1.8533
 3704TIP3    H232528   1.369   1.383  13.907  0.5239  0.5998  1.6918
 3705TIP3   OH232529   2.565   3.291  12.422  0.2226 -0.2171 -0.3722
 3705TIP3    H132530   2.505   3.216  12.421  1.7956 -1.5581  0.6719
 3705TIP3    H232531   2.604   3.292  12.335 -0.8827  0.3108 -0.8691
 3706TIP3   OH232532   0.237   5.547   4.233  0.4640  0.8064  0.2909
 3706TIP3    H132533   0.199   5.461   4.252  1.2281  0.4817  0.3953
 3706TIP3    H232534   0.179   5.585   4.167  0.4485 -0.0468 -0.2051
 3707TIP3   OH232535   5.983   1.682  16.021  0.2334 -0.0252 -0.3000
 3707TIP3    H132536   5.984   1.603  15.966 -1.8379 -1.2761  1.2982
 3707TIP3    H232537   6.049   1.665  16.088 -0.5626 -0.6588  0.3376
 3708TIP3   OH232538   3.763   4.807  15.690 -0.2284  0.3944  0.3676
 3708TIP3    H132539   3.832   4.865  15.722 -1.1489  1.8095 -0.1185
 3708TIP3    H232540   3.783   4.795  15.597 -1.6483  2.4398 -0.2847
 3709TIP3   OH232541   5.082   5.583   2.772 -0.4173  0.3553  0.3360
 3709TIP3    H132542   5.032   5.515   2.816 -0.3595 -0.1141 -0.3100
 3709TIP3    H232543   5.080   5.657   2.832 -3.4845  1.0328 -0.4714
 3710TIP3   OH232544   5.485   3.679   0.238  0.2760 -0.0986 -0.4802
 3710TIP3    H132545   5.412   3.637   0.282 -0.2319  1.2598  0.0277
 3710TIP3    H232546   5.548   3.609   0.224 -0.8212 -1.1528 -0.2974
 3711TIP3   OH232547   6.771   4.028  17.007  0.2175 -0.3084 -0.8944
 3711TIP3    H132548   6.787   4.119  17.034 -1.1714 -0.8718  2.1704
 3711TIP3    H232549   6.716   4.035  16.929 -0.5229  1.4763 -0.2473
 3712TIP3   OH232550   1.567   2.179   1.959 -0.2405  0.0121  0.2545
 3712TIP3    H132551   1.538   2.098   2.001  0.4066 -0.1908  0.3294
 3712TIP3    H232552   1.656   2.191   1.992 -0.2113  0.5680 -0.0322
 3713TIP3   OH232553   6.454   0.426   1.273  0.1274 -0.2710  0.9456
 3713TIP3    H132554   6.437   0.476   1.194  2.3394  0.8046  1.0864
 3713TIP3    H232555   6.390   0.355   1.271 -0.0723 -0.0919 -1.6249
 3714TIP3   OH232556   1.176   3.368  12.374  0.7067  0.0180  0.4739
 3714TIP3    H132557   1.250   3.418  12.340  1.7246 -0.2815  2.1243
 3714TIP3    H232558   1.212   3.281  12.390 -0.4507 -0.6051 -0.2138
 3715TIP3   OH232559   0.794   1.331   2.804  0.6802 -0.3747  0.3609
 3715TIP3    H132560   0.770   1.253   2.754 -0.3451  0.3374 -0.2733
 3715TIP3    H232561   0.739   1.401   2.769 -0.9653 -0.0785  3.2566
 3716TIP3   OH232562   4.233   2.953  13.549  0.6429  0.2570 -0.0733
 3716TIP3    H132563   4.315   3.003  13.544  0.7401  0.1118  0.0420
 3716TIP3    H232564   4.180   3.001  13.613  1.0499 -0.2276  0.6452
 3717TIP3   OH232565   2.429   6.682   5.645  0.3117  0.1251  0.1732
 3717TIP3    H132566   2.447   6.590   5.630  0.1933  0.2358 -0.7343
 3717TIP3    H232567   2.334   6.687   5.659  0.3470  0.0855  0.4283
 3718TIP3   OH232568   2.667   6.542   4.875  0.5563 -0.2283 -0.1980
 3718TIP3    H132569   2.744   6.491   4.901 -0.7897 -1.5887  1.3916
 3718TIP3    H232570   2.649   6.514   4.785  1.5375 -0.3763 -0.3563
 3719TIP3   OH232571   4.742   3.994   0.626 -0.3121 -0.1985 -0.2619
 3719TIP3    H132572   4.800   3.923   0.597  0.7315  0.4724  0.1167
 3719TIP3    H232573   4.686   4.011   0.550 -0.6657 -1.4813 -0.3208
 3720TIP3   OH232574   5.851   6.527  14.686  0.3574 -0.2900 -0.0867
 3720TIP3    H132575   5.879   6.438  14.706  0.8747  0.1434  1.1775
 3720TIP3    H232576   5.918   6.560  14.626  1.3177 -0.0640  1.0701
 3721TIP3   OH232577   5.128   1.854   0.770 -0.4693  0.3531 -0.1329
 3721TIP3    H132578   5.070   1.929   0.756 -0.7172 -0.1495 -2.0701
 3721TIP3    H232579   5.139   1.815   0.683  0.6415 -1.1423  0.6237
 3722TIP3   OH232580   1.653   6.496   2.576  0.0090  0.4555 -0.1424
 3722TIP3    H132581   1.615   6.508   2.489 -0.6135  0.9918  0.2012
 3722TIP3    H232582   1.585   6.450   2.625  0.8272 -0.9686 -0.2830
 3723TIP3   OH232583   2.419   3.372  14.228  0.3372  0.3042 -0.6038
 3723TIP3    H132584   2.384   3.325  14.153  1.0392  0.9376 -1.3509
 3723TIP3    H232585   2.442   3.304  14.291  0.9151 -0.3168 -1.4793
 3724TIP3   OH232586   4.899   2.898  12.058  0.0358 -0.0853  0.7565
 3724TIP3    H132587   4.975   2.861  12.013 -0.9157 -0.4623 -0.6223
 3724TIP3    H232588   4.933   2.976  12.102  0.7293  1.4178 -2.1721
 3725TIP3   OH232589   4.769   0.542   4.781 -0.2959 -0.0945  0.5535
 3725TIP3    H132590   4.820   0.477   4.829  0.4508 -0.7611 -1.0589
 3725TIP3    H232591   4.764   0.618   4.840  1.1444 -0.6275  1.4039
 3726TIP3   OH232592   0.865   1.489   5.893 -0.0149 -0.6123  0.5207
 3726TIP3    H132593   0.926   1.515   5.824 -0.8689  0.7415  0.2473
 3726TIP3    H232594   0.791   1.451   5.846 -0.7061  0.5358  0.6427
 3727TIP3   OH232595   1.154   3.935   2.519 -0.0331  0.4378 -0.0616
 3727TIP3    H132596   1.114   3.983   2.591 -0.5191 -0.6168  0.3867
 3727TIP3    H232597   1.248   3.935   2.540 -0.1462  0.3285  0.4470
 3728TIP3   OH232598   2.570   6.310   0.596 -0.2018  0.2802 -0.1131
 3728TIP3    H132599   2.500   6.288   0.535 -2.0494 -0.3861  2.1140
 3728TIP3    H232600   2.600   6.396   0.568 -2.4625  0.9390 -0.6833
 3729TIP3   OH232601   0.626   1.672   4.302  0.6759  0.1175  0.2265
 3729TIP3    H132602   0.578   1.731   4.244  0.9579  0.7393  0.6217
 3729TIP3    H232603   0.600   1.699   4.391  0.9300 -0.2478  0.4133
 3730TIP3   OH232604   1.138   4.036   4.444  0.4943  0.3444 -0.1600
 3730TIP3    H132605   1.115   4.078   4.527  0.1952  2.0282 -1.0632
 3730TIP3    H232606   1.219   4.079   4.417 -0.3372  1.0427 -1.5882
 3731TIP3   OH232607   6.003   1.787   2.251 -0.3959  0.1445 -0.5530
 3731TIP3    H132608   5.913   1.755   2.250 -1.3476  2.4787  1.1961
 3731TIP3    H232609   6.010   1.841   2.172 -0.7186  0.4435 -0.3760
 3732TIP3   OH232610   3.472   4.045  16.291  0.2493 -0.1037 -0.6927
 3732TIP3    H132611   3.480   4.100  16.213  1.7412 -1.3715 -1.4843
 3732TIP3    H232612   3.465   4.108  16.363 -0.0037  1.1025 -1.7271
 3733TIP3   OH232613   6.340   3.499  14.571 -1.0098  0.1394  0.0711
 3733TIP3    H132614   6.395   3.424  14.591 -2.3762 -0.7099  0.8097
 3733TIP3    H232615   6.302   3.524  14.656 -1.1485  1.2097 -0.2856
 3734TIP3   OH232616   6.750   4.240   1.027  0.1533  0.5182  0.4294
 3734TIP3    H132617   6.728   4.153   1.060 -1.4783  1.1514  1.1575
 3734TIP3    H232618   6.840   4.254   1.055  0.0466 -0.4691  1.3561
 3735TIP3   OH232619   4.169   3.849  16.426  0.3095  0.1233 -0.5899
 3735TIP3    H132620   4.209   3.795  16.493 -0.6003 -2.2048 -1.8125
 3735TIP3    H232621   4.242   3.877  16.371  0.9511  1.3445  0.8155
 3736TIP3   OH232622   2.083   3.224   2.332  0.1088  0.3036  0.3450
 3736TIP3    H132623   2.126   3.261   2.409 -1.3343 -0.9735  1.8619
 3736TIP3    H232624   2.012   3.171   2.369  0.0709 -1.2661 -1.8360
 3737TIP3   OH232625   4.931   0.433  16.500  0.2279 -0.0020  0.3367
 3737TIP3    H132626   4.900   0.463  16.585  0.9711 -1.9427  1.3493
 3737TIP3    H232627   4.925   0.337  16.504  2.0443 -0.2428 -1.0820
 3738TIP3   OH232628   4.571   6.748   0.968  0.3497  0.3409  0.3031
 3738TIP3    H132629   4.646   6.709   1.012 -0.0139 -1.7711 -0.8170
 3738TIP3    H232630   4.569   6.706   0.882 -1.2634  1.4294 -0.2374
 3739TIP3   OH232631   0.147   2.648   3.226  0.1786  0.1800  0.1151
 3739TIP3    H132632   0.057   2.681   3.219 -0.1720 -0.2810  1.8214
 3739TIP3    H232633   0.198   2.724   3.256 -0.0849 -0.0942  1.2957
 3740TIP3   OH232634   5.111   4.793   4.657 -0.3982 -0.3339 -0.1292
 3740TIP3    H132635   5.141   4.721   4.602 -1.3529  0.8443 -2.3636
 3740TIP3    H232636   5.126   4.871   4.603 -1.8053  0.8530  1.1223
 3741TIP3   OH232637   0.480   0.212   0.881  0.3692 -0.2556  0.0755
 3741TIP3    H132638   0.418   0.282   0.902 -0.5046 -1.3333  1.2110
 3741TIP3    H232639   0.552   0.224   0.943  0.7877  0.2893 -0.4859
 3742TIP3   OH232640   6.253   5.206   3.726  0.2773 -0.3138  0.1907
 3742TIP3    H132641   6.263   5.278   3.664  0.3474  0.2871  0.8830
 3742TIP3    H232642   6.271   5.127   3.675  0.9217  0.2067 -0.4049
 3743TIP3   OH232643   3.653   0.653  16.309 -0.0491 -0.5437  0.1806
 3743TIP3    H132644   3.743   0.684  16.301  0.8230 -3.0197 -0.3137
 3743TIP3    H232645   3.605   0.729  16.341  2.0250  1.1084 -0.3876
 3744TIP3   OH232646   4.835   4.529   4.201 -0.1737 -0.4241 -0.2846
 3744TIP3    H132647   4.766   4.465   4.220 -0.8761  0.0909 -1.0052
 3744TIP3    H232648   4.860   4.563   4.287 -0.2116 -1.2253  0.0600
 3745TIP3   OH232649   4.424   3.805  14.234  0.3274  0.3646 -0.5306
 3745TIP3    H132650   4.370   3.820  14.156  0.5038  1.6361 -0.4290
 3745TIP3    H232651   4.437   3.892  14.271  0.6912 -0.1701  0.6310
 3746TIP3   OH232652   6.282   0.761  10.621  0.7736 -0.5572 -0.1141
 3746TIP3    H132653   6.297   0.847  10.661 -1.3714  1.1321 -2.6300
 3746TIP3    H232654   6.218   0.719  10.678  1.0497 -0.0533  0.5794
 3747TIP3   OH232655   6.079   6.272  14.540 -0.0410  0.0058  0.4118
 3747TIP3    H132656   6.006   6.211  14.528  0.9974 -1.2728  0.3050
 3747TIP3    H232657   6.155   6.215  14.556  0.8884  1.2995  0.7513
 3748TIP3   OH232658   5.549   5.436  11.927 -0.5161 -0.4887 -0.0889
 3748TIP3    H132659   5.528   5.343  11.918  1.8206 -1.2859  1.7377
 3748TIP3    H232660   5.482   5.470  11.987  0.2647 -1.7303  1.5646
 3749TIP3   OH232661   2.935   5.188  16.269  0.1332  0.3207  0.1612
 3749TIP3    H132662   2.922   5.279  16.243 -0.2802 -0.1931 -1.6006
 3749TIP3    H232663   2.848   5.158  16.296 -0.0003  0.0951 -0.5097
 3750TIP3   OH232664   0.264   5.532   5.624  0.1899 -0.2089 -0.3049
 3750TIP3    H132665   0.204   5.520   5.697 -0.9986 -1.5221 -1.4233
 3750TIP3    H232666   0.275   5.444   5.588  1.8049  0.2169 -0.8949
 3751TIP3   OH232667   1.218   1.436  12.823 -0.3489 -0.3057  1.1925
 3751TIP3    H132668   1.289   1.420  12.885 -0.3068 -1.8628  0.7792
 3751TIP3    H232669   1.244   1.391  12.743 -0.6277  1.2664  0.1638
 3752TIP3   OH232670   6.670   3.715   4.406 -0.0700  0.5287  0.0628
 3752TIP3    H132671   6.748   3.682   4.452 -0.3507 -0.8092 -0.3750
 3752TIP3    H232672   6.623   3.636   4.380 -1.0628  1.3125 -0.5672
 3753TIP3   OH232673   3.119   6.590   6.485 -0.1975  0.3177 -0.3434
 3753TIP3    H132674   3.047   6.547   6.532  0.5864 -2.1249 -1.2278
 3753TIP3    H232675   3.194   6.583   6.545 -0.4328  1.9782  0.1752
 3754TIP3   OH232676   3.247   6.059   1.737 -0.0947  0.2832 -0.6897
 3754TIP3    H132677   3.245   6.069   1.832 -1.6487  1.8130 -0.8344
 3754TIP3    H232678   3.248   5.964   1.723  0.3128  0.0311  0.8400
 3755TIP3   OH232679   1.205   4.969   4.983 -0.6240  0.1563 -0.3173
 3755TIP3    H132680   1.247   4.886   4.962 -0.4659 -0.0176  0.6468
 3755TIP3    H232681   1.158   4.993   4.903  2.9267  1.4133 -2.2560
 3756TIP3   OH232682   6.532   1.627   4.534  0.4356  0.5761  0.3536
 3756TIP3    H132683   6.585   1.592   4.606 -0.8678 -2.2099  0.1000
 3756TIP3    H232684   6.527   1.721   4.552  2.2932  0.3838  2.4346
 3757TIP3   OH232685   0.965   0.085  12.475  0.6948  0.0356  0.4308
 3757TIP3    H132686   0.913   0.091  12.395  1.1054 -1.5774  0.0164
 3757TIP3    H232687   0.960   0.173  12.513  0.7839  0.9472 -1.5335
 3758TIP3   OH232688   3.801   1.168   6.061  0.1650 -0.3828  0.6585
 3758TIP3    H132689   3.852   1.226   6.117  2.0064  0.2947 -1.5807
 3758TIP3    H232690   3.859   1.094   6.045 -0.8606 -1.2159  0.7155
 3759TIP3   OH232691   2.275   1.846   5.893 -0.4011 -0.1135  0.9017
 3759TIP3    H132692   2.208   1.872   5.955 -1.8466  1.1907 -1.0767
 3759TIP3    H232693   2.292   1.924   5.840  0.7480 -1.1426 -0.3566
 3760TIP3   OH232694   3.336   5.432  15.241  0.0230  0.1411  0.2120
 3760TIP3    H132695   3.298   5.456  15.156 -1.9389  1.1454  1.2965
 3760TIP3    H232696   3.283   5.480  15.305  3.1423  1.6148  1.9128
 3761TIP3   OH232697   3.294   0.389   2.350 -0.1276  0.2633  0.3380
 3761TIP3    H132698   3.284   0.459   2.286  0.1355 -1.8666 -2.1687
 3761TIP3    H232699   3.382   0.354   2.336 -0.1340 -0.4049  1.7298
 3762TIP3   OH232700   4.968   4.755  13.418  0.0119 -0.4957 -0.3246
 3762TIP3    H132701   5.041   4.696  13.398  0.3893  0.3329 -1.5189
 3762TIP3    H232702   5.003   4.814  13.485 -0.0427 -0.9845  0.1436
 3763TIP3   OH232703   1.979   6.244   6.409  0.6992  0.0325 -0.4663
 3763TIP3    H132704   1.979   6.196   6.326 -0.6022 -0.0759 -0.4358
 3763TIP3    H232705   1.897   6.295   6.406  0.4755 -0.2224  0.8825
 3764TIP3   OH232706   5.768   6.376   6.620  0.0024  0.2563 -0.2804
 3764TIP3    H132707   5.762   6.448   6.683  0.0994  0.6137 -0.6758
 3764TIP3    H232708   5.689   6.385   6.566  0.4433  0.5889 -0.8797
 3765TIP3   OH232709   2.622   0.737   5.538  0.1035  0.5316 -0.2919
 3765TIP3    H132710   2.543   0.683   5.541 -1.0325  2.1836  0.1134
 3765TIP3    H232711   2.677   0.703   5.609 -0.7908  0.2177  0.2594
 3766TIP3   OH232712   3.583   3.268   1.304 -0.3853 -0.2484 -0.1290
 3766TIP3    H132713   3.656   3.278   1.366  0.3561 -2.7942 -0.4552
 3766TIP3    H232714   3.607   3.321   1.229  1.1119 -0.9610 -0.1821
 3767TIP3   OH232715   6.737   6.503  12.574 -0.4957 -0.2819  0.6509
 3767TIP3    H132716   6.820   6.505  12.527  0.2687 -2.0245  1.8049
 3767TIP3    H232717   6.671   6.483  12.508 -0.1085  1.5471 -0.3526
 3768TIP3   OH232718   4.859   0.238   2.512  0.0924  0.5153 -0.3134
 3768TIP3    H132719   4.886   0.147   2.521  0.6203  0.5340 -1.4755
 3768TIP3    H232720   4.924   0.276   2.452 -0.9599  1.2738 -1.0015
 3769TIP3   OH232721   3.625   2.261   1.894  0.0976 -0.4550 -0.3331
 3769TIP3    H132722   3.583   2.195   1.949 -0.0610  0.6705  0.9527
 3769TIP3    H232723   3.575   2.341   1.909  0.6411  0.1173 -1.4062
 3770TIP3   OH232724   3.875   4.941   1.159  0.0542  0.3486 -0.4773
 3770TIP3    H132725   3.804   4.916   1.219  1.2173  0.2653  0.9139
 3770TIP3    H232726   3.879   4.870   1.096  0.6524 -1.0023  1.0322
 3771TIP3   OH232727   3.224   1.048  13.157 -0.1638 -0.0374 -0.8200
 3771TIP3    H132728   3.235   1.004  13.072  0.4248  1.5126 -1.5850
 3771TIP3    H232729   3.185   1.132  13.135 -2.7040 -0.6899  0.7488
 3772TIP3   OH232730   5.076   3.827   5.697  0.0353  0.1598  0.7057
 3772TIP3    H132731   5.013   3.772   5.743  0.6106 -0.5603  0.6550
 3772TIP3    H232732   5.022   3.886   5.644 -0.6370 -1.4489 -0.5231
 3773TIP3   OH232733   4.123   3.324  15.257 -0.7624  0.2572  0.3144
 3773TIP3    H132734   4.123   3.410  15.216 -0.6240  0.1624  0.1185
 3773TIP3    H232735   4.037   3.317  15.298 -0.4439  0.8591  1.1080
 3774TIP3   OH232736   5.733   5.100  15.666 -0.6959  0.2601 -0.0252
 3774TIP3    H132737   5.747   5.181  15.617  0.2147 -0.5443 -1.1671
 3774TIP3    H232738   5.774   5.116  15.751 -2.1697  1.6282  0.4790
 3775TIP3   OH232739   4.455   6.272  16.152  0.0919  0.0777 -0.0118
 3775TIP3    H132740   4.494   6.199  16.200 -1.3308  0.1151  1.3045
 3775TIP3    H232741   4.361   6.262  16.165 -0.3907  0.1424 -2.8223
 3776TIP3   OH232742   2.793   0.556   2.004  0.3918  0.7716  0.1027
 3776TIP3    H132743   2.822   0.544   2.094  1.2833  1.0643 -0.1311
 3776TIP3    H232744   2.748   0.474   1.982 -0.2212  0.8749  0.9501
 3777TIP3   OH232745   5.977   3.260   2.707 -0.4319 -0.8231 -0.0356
 3777TIP3    H132746   6.054   3.205   2.722  0.9417  1.2732  0.9587
 3777TIP3    H232747   5.933   3.262   2.792  0.4740  0.9315  0.4314
 3778TIP3   OH232748   3.495   4.690   1.521 -0.2298  0.2718  0.0698
 3778TIP3    H132749   3.489   4.612   1.576 -0.1132 -0.3952 -0.8245
 3778TIP3    H232750   3.569   4.673   1.463 -0.2659  1.0082 -0.2083
 3779TIP3   OH232751   6.219   6.120  10.878 -0.1057 -0.7615  0.1956
 3779TIP3    H132752   6.137   6.124  10.828  0.9165  0.2862 -1.5382
 3779TIP3    H232753   6.262   6.041  10.847 -0.1339 -0.9058  0.5289
 3780TIP3   OH232754   0.043   0.399   1.943 -0.1422 -0.3145 -0.1929
 3780TIP3    H132755  -0.014   0.330   1.911 -1.0273 -0.2434  1.1397
 3780TIP3    H232756   0.023   0.474   1.887 -1.2822 -0.3332  0.1569
 3781TIP3   OH232757   3.423   2.895  13.468  0.4336  0.1697 -0.1462
 3781TIP3    H132758   3.360   2.861  13.405 -0.3986  0.4471  0.5207
 3781TIP3    H232759   3.425   2.989  13.451 -0.2481  0.3327  0.6242
 3782TIP3   OH232760   3.130   0.939   3.089 -0.0387 -0.0503  0.8687
 3782TIP3    H132761   3.180   0.983   3.158 -1.9562 -2.0922  3.8022
 3782TIP3    H232762   3.143   0.846   3.107 -1.5372 -0.6294 -0.8504
 3783TIP3   OH232763   1.776   3.038  12.549 -0.1275 -0.1423  0.1627
 3783TIP3    H132764   1.772   2.988  12.631  2.0969 -1.6270 -0.5394
 3783TIP3    H232765   1.845   3.103  12.564  1.8953 -1.8525 -1.1609
 3784TIP3   OH232766   1.213   2.330  12.056  0.6923 -0.5598  0.2355
 3784TIP3    H132767   1.266   2.409  12.054 -0.0871 -0.0262 -1.5887
 3784TIP3    H232768   1.261   2.267  12.001  0.1479 -0.5249 -0.2979
 3785TIP3   OH232769   6.253   2.537  15.699  0.0749 -0.3390 -0.4553
 3785TIP3    H132770   6.176   2.586  15.671  0.4621  0.4495 -0.1678
 3785TIP3    H232771   6.275   2.481  15.625 -0.0807  0.2840 -0.9752
 3786TIP3   OH232772   0.248   4.276   5.698 -0.1531  0.1194  0.0064
 3786TIP3    H132773   0.263   4.359   5.653  0.2389  1.1819  2.0262
 3786TIP3    H232774   0.301   4.281   5.777 -1.1810 -1.4990  0.8497
 3787TIP3   OH232775   0.889   3.600   5.020 -0.1218  0.2987 -0.2072
 3787TIP3    H132776   0.954   3.544   5.062 -0.4641  0.9043  1.1909
 3787TIP3    H232777   0.912   3.597   4.927  0.8678 -0.8278  0.0450
 3788TIP3   OH232778   1.716   5.003  13.147  0.2242  0.6924 -0.3100
 3788TIP3    H132779   1.769   4.931  13.114 -2.7609 -1.6333 -0.4077
 3788TIP3    H232780   1.718   4.992  13.242 -0.2749  0.3964 -0.3276
 3789TIP3   OH232781   6.062   4.771   4.943  0.6730  0.8698  0.0633
 3789TIP3    H132782   6.021   4.764   5.029  1.7968 -0.7947  0.5169
 3789TIP3    H232783   6.146   4.814   4.960 -0.3702  3.4373 -0.7283
 3790TIP3   OH232784   2.907   0.010  12.319 -0.1674  0.1540  0.0685
 3790TIP3    H132785   2.916   0.091  12.369 -2.3570  0.3615  0.2476
 3790TIP3    H232786   2.978   0.013  12.256  0.0635  2.0286  0.3378
 3791TIP3   OH232787   6.765   4.410   3.395  0.1369 -0.1159  0.0478
 3791TIP3    H132788   6.720   4.407   3.479 -1.0549  1.7443 -0.4630
 3791TIP3    H232789   6.858   4.405   3.417 -0.0921  1.4233  1.5898
 3792TIP3   OH232790   6.167   3.783  13.687  0.5435 -0.3081  0.7229
 3792TIP3    H132791   6.154   3.862  13.635  0.6571 -1.1953 -0.7186
 3792TIP3    H232792   6.187   3.815  13.775  0.4364  1.2540  0.2131
 3793TIP3   OH232793   4.293   0.365   0.649 -0.1413 -0.1430 -0.8466
 3793TIP3    H132794   4.331   0.442   0.607  1.6175 -0.4754  0.0272
 3793TIP3    H232795   4.356   0.295   0.631 -0.9093 -0.9951 -0.2885
 3794TIP3   OH232796   5.586   0.461   2.707  0.4511  0.5315 -0.3443
 3794TIP3    H132797   5.649   0.520   2.749 -0.1143  1.3980 -0.6785
 3794TIP3    H232798   5.569   0.501   2.621 -0.5126  0.2960 -0.2802
 3795TIP3   OH232799   4.814   5.677   5.384  0.1713 -0.2351  0.0568
 3795TIP3    H132800   4.751   5.748   5.396  1.4556  1.1186 -0.7509
 3795TIP3    H232801   4.853   5.694   5.298 -1.2004 -3.3842 -1.3075
 3796TIP3   OH232802   3.245   1.788   5.465 -0.5838 -0.3548 -0.0018
 3796TIP3    H132803   3.323   1.764   5.414 -0.9804 -1.4687 -0.1243
 3796TIP3    H232804   3.174   1.790   5.401 -0.7608  0.0702  0.2045
 3797TIP3   OH232805   0.365   5.628  16.806  0.0463 -0.3779 -0.9055
 3797TIP3    H132806   0.356   5.677  16.887  1.2864 -2.6275  0.7126
 3797TIP3    H232807   0.317   5.679  16.741 -0.8183  1.6153  1.1795
 3798TIP3   OH232808   4.546   2.531   3.589  0.4281  0.2196 -0.2336
 3798TIP3    H132809   4.627   2.576   3.564  0.6227 -1.1997 -2.4763
 3798TIP3    H232810   4.576   2.452   3.633  0.2912 -0.3072 -1.0654
 3799TIP3   OH232811   5.285   1.942  16.105 -0.0630  0.3662 -0.3182
 3799TIP3    H132812   5.347   1.878  16.141 -1.1591 -0.5552 -0.0115
 3799TIP3    H232813   5.291   1.930  16.010  1.1321  1.1770 -0.3702
 3800TIP3   OH232814   1.725   5.050   2.947  0.2140 -0.9977  0.1370
 3800TIP3    H132815   1.782   5.021   3.019  0.1107  3.5627  2.3994
 3800TIP3    H232816   1.784   5.095   2.887 -0.3845 -0.2336  0.1142
 3801TIP3   OH232817   4.513   3.311   5.003 -0.2736 -0.4787 -0.0359
 3801TIP3    H132818   4.539   3.220   4.989  1.5209 -0.2357  1.4351
 3801TIP3    H232819   4.420   3.313   4.979  0.2326 -2.1057 -2.4819
 3802TIP3   OH232820   3.848   3.201  13.797  0.2683 -0.1808 -0.4886
 3802TIP3    H132821   3.872   3.111  13.775  1.5501 -0.8951  3.1446
 3802TIP3    H232822   3.931   3.247  13.808 -0.3532  1.1493 -1.0762
 3803TIP3   OH232823   3.609   1.282   2.353 -0.4983 -0.0030 -0.1772
 3803TIP3    H132824   3.579   1.227   2.281 -3.8164 -0.3095  1.2830
 3803TIP3    H232825   3.550   1.357   2.352  1.1198  1.3413  0.6023
 3804TIP3   OH232826   5.105   4.476   0.761  0.2441  0.2256  0.5052
 3804TIP3    H132827   5.200   4.482   0.756  0.2797 -0.3391  0.5174
 3804TIP3    H232828   5.078   4.454   0.672  0.2514 -1.2575  0.8463
 3805TIP3   OH232829   1.776   3.931  12.695 -0.0623  0.2864 -0.0333
 3805TIP3    H132830   1.821   3.852  12.727  1.1423 -0.2470 -2.7852
 3805TIP3    H232831   1.685   3.903  12.683 -0.4549  0.3681  2.1895
 3806TIP3   OH232832   4.805   2.789  13.950  0.2153 -0.0999  0.1955
 3806TIP3    H132833   4.821   2.761  13.859  0.2261  2.1885 -0.5643
 3806TIP3    H232834   4.716   2.823  13.949  0.4780  0.6332  0.8561
 3807TIP3   OH232835   1.029   1.543   3.596 -0.1464  0.1753  0.1871
 3807TIP3    H132836   1.123   1.539   3.613 -0.1265  0.0662  0.0524
 3807TIP3    H232837   1.023   1.569   3.504 -0.2504  1.4682  0.5299
 3808TIP3   OH232838   4.632   5.575   3.235  0.5301 -0.4268 -0.4351
 3808TIP3    H132839   4.620   5.619   3.151 -0.0446  1.6224  0.6549
 3808TIP3    H232840   4.559   5.606   3.289  0.2876 -2.5123  0.5200
 3809TIP3   OH232841   1.138   3.172   0.068 -0.5348  0.2523 -0.4682
 3809TIP3    H132842   1.097   3.257   0.084 -0.1798  0.2816  0.3008
 3809TIP3    H232843   1.117   3.119   0.145 -0.4313 -0.2360 -0.7677
 3810TIP3   OH232844   0.700   3.476   4.320  0.8016 -0.1552 -0.5164
 3810TIP3    H132845   0.726   3.527   4.397 -0.6705 -0.5062  0.2387
 3810TIP3    H232846   0.686   3.388   4.353 -2.5119  0.2243 -0.5399
 3811TIP3   OH232847   5.374   2.416  12.448 -0.2404 -0.1551  0.3890
 3811TIP3    H132848   5.282   2.426  12.473 -0.7882  1.4366 -1.9595
 3811TIP3    H232849   5.373   2.417  12.352  2.1841 -0.7436  0.2989
 3812TIP3   OH232850   2.174   2.674  15.756 -0.5191 -0.7960 -0.1310
 3812TIP3    H132851   2.242   2.675  15.688  1.0549 -1.2045  1.3708
 3812TIP3    H232852   2.103   2.726  15.719  0.5961 -0.3583 -1.7758
 3813TIP3   OH232853   0.692   1.962   0.478  0.0548 -0.3988 -0.3552
 3813TIP3    H132854   0.746   2.040   0.462  1.7649 -0.2039  4.6692
 3813TIP3    H232855   0.615   1.996   0.525 -0.5964 -1.5092 -0.5820
 3814TIP3   OH232856   1.380   1.478   0.023 -0.2847 -0.0242  0.3689
 3814TIP3    H132857   1.321   1.409   0.055 -0.9328  0.6704  0.7011
 3814TIP3    H232858   1.462   1.464   0.070 -0.7926  0.1559  1.3245
 3815TIP3   OH232859   5.384   6.351  11.968  0.3630  0.2188 -0.4922
 3815TIP3    H132860   5.387   6.444  11.993  0.9441  0.7658 -2.4194
 3815TIP3    H232861   5.411   6.350  11.876 -1.2115 -1.7059 -1.0059
 3816TIP3   OH232862   1.681   5.310  16.333  0.3895 -0.0238 -0.2436
 3816TIP3    H132863   1.777   5.307  16.338  0.3923  1.2872  1.8410
 3816TIP3    H232864   1.663   5.353  16.250  1.5014 -1.9838 -1.5999
 3817TIP3   OH232865   3.893   2.199   5.348  0.2968  0.2350 -0.8756
 3817TIP3    H132866   3.870   2.291   5.331 -0.2656  0.2219 -0.2383
 3817TIP3    H232867   3.988   2.200   5.358  0.4647  0.5013 -2.3474
 3818TIP3   OH232868   2.029   3.157  13.362 -0.1427 -0.1212 -0.5868
 3818TIP3    H132869   1.994   3.141  13.449  0.1984 -1.7463 -0.7177
 3818TIP3    H232870   1.955   3.195  13.313 -1.0624 -1.3900 -0.2287
 3819TIP3   OH232871   5.262   5.686  13.380 -0.4710  0.1459 -0.4462
 3819TIP3    H132872   5.276   5.617  13.445 -0.2465 -0.6472 -1.3137
 3819TIP3    H232873   5.349   5.723  13.365 -0.6923  1.1053  0.5212
 3820TIP3   OH232874   5.139   6.389  10.627  0.1223 -0.6866 -0.7254
 3820TIP3    H132875   5.105   6.311  10.671  2.0210 -0.4156  1.3776
 3820TIP3    H232876   5.088   6.461  10.663 -0.5609 -0.7549 -1.5065
 3821TIP3   OH232877   2.430   1.402  14.889  0.1582  0.5457  0.3343
 3821TIP3    H132878   2.345   1.372  14.922  0.7821 -0.9144  0.7353
 3821TIP3    H232879   2.441   1.355  14.806 -0.2629  2.2315 -0.7137
 3822TIP3   OH232880   0.875   3.371  13.104  0.2605  0.4223  0.2755
 3822TIP3    H132881   0.799   3.323  13.135 -0.5887  1.5962  0.0813
 3822TIP3    H232882   0.892   3.437  13.172 -0.0005  1.3097 -0.5022
 3823TIP3   OH232883   1.107   2.788   0.027  0.6551  0.5645 -0.0563
 3823TIP3    H132884   1.124   2.854   0.094 -0.3086 -0.4186  1.2106
 3823TIP3    H232885   1.053   2.833  -0.038  0.0653  1.0576  0.7602
 3824TIP3   OH232886   6.126   6.028   5.920 -0.3514 -0.0643  0.0659
 3824TIP3    H132887   6.086   5.958   5.868 -0.8630  1.0119 -1.0103
 3824TIP3    H232888   6.194   6.064   5.864 -0.1378  0.3629  0.5948
 3825TIP3   OH232889   4.706   2.234  11.478  0.0478  0.0475  0.2249
 3825TIP3    H132890   4.723   2.176  11.404  2.5418 -0.6226  1.2057
 3825TIP3    H232891   4.711   2.322  11.442  2.0305 -0.2420 -0.3162
 3826TIP3   OH232892   1.215   5.767   4.967  0.3191 -0.0699  0.1412
 3826TIP3    H132893   1.156   5.842   4.961 -1.1458 -1.1994 -0.2136
 3826TIP3    H232894   1.301   5.802   4.945  0.2370  2.0842  2.7199
 3827TIP3   OH232895   4.434   5.172   4.517 -0.2361 -0.2466 -0.8769
 3827TIP3    H132896   4.444   5.086   4.476 -0.1185  0.6837 -2.9528
 3827TIP3    H232897   4.350   5.204   4.484  0.9866  1.5580 -2.4836
 3828TIP3   OH232898   2.887   1.525  13.609  0.1844  0.0307 -0.4005
 3828TIP3    H132899   2.894   1.598  13.670  0.3038  0.7423 -1.2399
 3828TIP3    H232900   2.795   1.499  13.613  0.1569  0.1807 -0.0401
 3829TIP3   OH232901   5.666   6.740  17.063  0.3387 -0.1964  0.0037
 3829TIP3    H132902   5.607   6.810  17.038 -1.1461 -1.2960  0.3124
 3829TIP3    H232903   5.715   6.720  16.983 -1.5851 -1.0268 -1.0200
 3830TIP3   OH232904   1.798   2.677  14.403 -0.0849  0.6230  0.6303
 3830TIP3    H132905   1.868   2.614  14.386 -1.1719 -0.0584 -1.6663
 3830TIP3    H232906   1.822   2.754  14.351 -0.1132  1.0971  1.3116
 3831TIP3   OH232907   0.997   1.529  12.100  0.1852  0.3198 -0.4137
 3831TIP3    H132908   0.940   1.501  12.029  0.1320 -0.7215  0.0112
 3831TIP3    H232909   1.071   1.469  12.096 -0.4540 -0.6467  1.2150
 3832TIP3   OH232910   2.545   1.214  15.532 -0.0474 -0.5527  0.0395
 3832TIP3    H132911   2.563   1.298  15.575  2.1615 -0.9727  0.0730
 3832TIP3    H232912   2.452   1.198  15.547 -0.3352  1.4809  0.7411
 3833TIP3   OH232913   4.637   3.514  12.389 -0.5056 -0.0541  0.6059
 3833TIP3    H132914   4.585   3.533  12.310 -0.2317  0.5802  0.5701
 3833TIP3    H232915   4.628   3.593  12.443 -0.3151 -0.3035  1.0028
 3834TIP3   OH232916   2.263   3.678  16.008 -0.4422 -0.2382 -0.4752
 3834TIP3    H132917   2.323   3.686  15.934  0.2719 -0.6817  0.0353
 3834TIP3    H232918   2.242   3.584  16.011 -1.7497  0.0172 -1.0877
 3835TIP3   OH232919   1.256   1.714   0.140 -0.2864  0.1188 -0.8564
 3835TIP3    H132920   1.301   1.796   0.121  1.8624  0.0027  2.8663
 3835TIP3    H232921   1.307   1.647   0.094 -1.0407  0.6238 -2.5042
 3836TIP3   OH232922   2.573   3.652  16.547 -0.4396  0.1045  0.1159
 3836TIP3    H132923   2.634   3.618  16.612 -0.0266 -1.1401 -0.8799
 3836TIP3    H232924   2.499   3.591  16.549 -1.0094  0.7855  0.3025
 3837TIP3   OH232925   6.613   0.701  17.201 -0.0626 -0.2324  0.5254
 3837TIP3    H132926   6.665   0.752  17.262  0.4827  1.4598 -1.2751
 3837TIP3    H232927   6.649   0.721  17.115 -2.5549 -0.3253 -0.6377
 3838TIP3   OH232928   6.420   0.180  11.013 -0.5154  0.3906 -0.5743
 3838TIP3    H132929   6.341   0.191  10.959 -1.5400  0.4769  0.8951
 3838TIP3    H232930   6.491   0.215  10.959 -1.5658  0.8593 -1.6910
 3839TIP3   OH232931   2.483   2.258   3.063 -0.3550 -0.0820 -0.1366
 3839TIP3    H132932   2.410   2.198   3.077  0.5175 -1.2195 -0.2996
 3839TIP3    H232933   2.501   2.253   2.970 -0.0126  0.1212 -0.0851
 3840TIP3   OH232934   4.959   3.851  12.552 -0.2910  0.1112  0.0689
 3840TIP3    H132935   5.038   3.905  12.558  0.2015 -0.6987  2.6740
 3840TIP3    H232936   4.984   3.778  12.496  0.2805  0.6916 -0.4376
 3841TIP3   OH232937   0.469   4.971   2.732  0.1471 -0.0822 -0.4506
 3841TIP3    H132938   0.545   4.923   2.767 -1.4345 -2.7950 -0.4609
 3841TIP3    H232939   0.401   4.960   2.799 -0.2730  2.4141 -0.3723
 3842TIP3   OH232940   1.138   3.190   3.572 -0.3915 -0.6925  0.0838
 3842TIP3    H132941   1.192   3.261   3.609 -1.5454  0.4643 -0.4070
 3842TIP3    H232942   1.167   3.182   3.481 -2.9428  1.9840 -1.1156
 3843TIP3   OH232943   3.560   1.243   6.160 -0.4100  0.2032  1.0299
 3843TIP3    H132944   3.499   1.183   6.117  0.2663 -1.5163  2.3440
 3843TIP3    H232945   3.644   1.227   6.118 -0.4898  1.3197  0.4008
 3844TIP3   OH232946   0.460   6.305  13.805  0.5017 -0.0722 -0.3850
 3844TIP3    H132947   0.403   6.331  13.877  1.5008  1.2567 -0.0391
 3844TIP3    H232948   0.541   6.276  13.847  1.3318  1.3168 -0.9564
 3845TIP3   OH232949   2.188   3.892   6.567 -0.0195  0.2952 -0.1501
 3845TIP3    H132950   2.105   3.873   6.522  0.1570  2.5740 -1.6053
 3845TIP3    H232951   2.165   3.894   6.659 -1.2362 -0.6983 -0.4007
 3846TIP3   OH232952   0.782   0.222   5.382 -0.4448  0.0360  0.1877
 3846TIP3    H132953   0.777   0.158   5.311  1.0293  0.8800 -0.7362
 3846TIP3    H232954   0.724   0.293   5.354  0.2159  0.4148 -0.2418
 3847TIP3   OH232955   6.020   1.746   5.244  0.2965 -0.4388 -0.6137
 3847TIP3    H132956   6.001   1.840   5.246  0.8829 -0.2767 -2.0253
 3847TIP3    H232957   6.114   1.741   5.229  0.4050 -1.2716  0.2396
 3848TIP3   OH232958   1.353   1.689  16.836 -0.5182  0.0592  0.2815
 3848TIP3    H132959   1.354   1.601  16.874 -1.6743 -0.0233  0.1552
 3848TIP3    H232960   1.441   1.701  16.800 -0.3025 -0.9791  0.4432
 3849TIP3   OH232961   0.303   6.013   4.404  0.1866 -0.2690 -0.0359
 3849TIP3    H132962   0.305   6.075   4.477  1.1625  0.0282 -0.2903
 3849TIP3    H232963   0.353   6.057   4.334 -0.6936 -0.5648 -0.8715
 3850TIP3   OH232964   6.426   1.050   1.203  0.1951 -0.2355 -0.5836
 3850TIP3    H132965   6.410   1.141   1.228  0.0434 -0.4420  0.0898
 3850TIP3    H232966   6.467   1.056   1.117  1.5189  0.5336  0.0741
 3851TIP3   OH232967   5.042   4.413  11.913  0.3783 -0.9379 -0.2418
 3851TIP3    H132968   5.136   4.415  11.896  0.1038  2.6891 -2.3594
 3851TIP3    H232969   5.030   4.466  11.991  0.0172  0.0472 -0.9444
 3852TIP3   OH232970   5.451   4.503   3.880  0.0923  0.0857  0.2912
 3852TIP3    H132971   5.440   4.530   3.788  1.4860  0.3228  0.1684
 3852TIP3    H232972   5.412   4.575   3.930  0.5580  0.6306 -0.1063
 3853TIP3   OH232973   2.550   6.671  15.025 -0.1195  0.1260 -0.7520
 3853TIP3    H132974   2.481   6.606  15.044 -0.4657  0.9608  1.0733
 3853TIP3    H232975   2.627   6.638  15.072 -0.1875  0.8156 -0.1452
 3854TIP3   OH232976   1.530   4.566   2.332  1.2683  0.2294  0.2838
 3854TIP3    H132977   1.452   4.525   2.294  0.3498  0.5555  1.7515
 3854TIP3    H232978   1.570   4.497   2.385  1.1770  0.4576  0.6581
 3855TIP3   OH232979   5.825   1.925  14.399  0.7297 -0.0730 -0.6141
 3855TIP3    H132980   5.778   1.869  14.461 -1.6912  0.5733 -1.7644
 3855TIP3    H232981   5.835   2.008  14.445 -0.5429  0.2255 -0.8624
 3856TIP3   OH232982   0.906   4.004  13.723 -0.7763  0.0167  0.6856
 3856TIP3    H132983   0.963   4.037  13.793  0.0087 -1.2385  0.6724
 3856TIP3    H232984   0.966   3.988  13.650 -1.2376 -0.7649  0.4724
 3857TIP3   OH232985   6.727   0.691   4.003  0.8944  0.0470  0.2537
 3857TIP3    H132986   6.822   0.692   3.993  0.7186  0.2269 -1.9582
 3857TIP3    H232987   6.697   0.765   3.949 -0.5948 -1.1448 -0.6236
 3858TIP3   OH232988   6.428   0.999  11.179  0.1308  0.1135 -0.6554
 3858TIP3    H132989   6.381   1.031  11.256 -2.1781  0.5848 -2.1633
 3858TIP3    H232990   6.395   0.911  11.165  0.0430  0.2627 -1.4567
 3859TIP3   OH232991   1.351   0.731   5.270  0.4388  0.1837  0.5619
 3859TIP3    H132992   1.301   0.650   5.279  0.2710  0.2531  0.2576
 3859TIP3    H232993   1.313   0.774   5.193  0.2011  0.7913  1.0208
 3860TIP3   OH232994   6.456   0.551   1.037 -0.3972  0.2525 -0.3584
 3860TIP3    H132995   6.489   0.636   1.008  2.7006 -0.8372 -0.4576
 3860TIP3    H232996   6.468   0.493   0.961  0.0413 -0.8042  0.4807
 3861TIP3   OH232997   0.990   6.354   1.658 -0.3133 -0.0367  0.2874
 3861TIP3    H132998   1.072   6.383   1.617 -0.9422  0.8555 -0.3862
 3861TIP3    H232999   1.003   6.261   1.676 -0.1548 -0.6112 -2.3740
 3862TIP3   OH233000   5.730   1.980   4.895 -0.0986 -0.1161  0.1837
 3862TIP3    H133001   5.697   2.066   4.868  0.4172 -0.0717 -0.3229
 3862TIP3    H233002   5.685   1.918   4.837 -0.5598 -0.2098  0.6267
 3863TIP3   OH233003   0.730   1.563   2.097 -1.0692 -0.1029  0.4342
 3863TIP3    H133004   0.791   1.517   2.154 -1.5508 -0.1213  0.9455
 3863TIP3    H233005   0.786   1.621   2.044 -0.6771  0.4700  1.4550
 3864TIP3   OH233006   2.964   3.563  14.863 -0.3490  0.0618 -0.0669
 3864TIP3    H133007   2.942   3.556  14.770  0.4938  1.6382 -0.4272
 3864TIP3    H233008   2.990   3.655  14.874 -0.4008 -0.1067  1.7253
 3865TIP3   OH233009   6.375   6.005  13.682  0.0707  0.1545  0.0150
 3865TIP3    H133010   6.388   6.061  13.759 -1.0159  0.6820 -0.1695
 3865TIP3    H233011   6.307   5.943  13.709  1.0138 -0.8845  0.0959
 3866TIP3   OH233012   5.925   6.008  11.591  0.1167 -0.1894  0.4714
 3866TIP3    H133013   5.858   6.071  11.562  0.7455  0.2307 -0.0892
 3866TIP3    H233014   5.875   5.934  11.624 -0.6403  0.3953  0.6764
 3867TIP3   OH233015   6.322   3.786   4.548 -0.0938 -0.6137  0.1909
 3867TIP3    H133016   6.259   3.734   4.497 -0.3197  1.2414 -1.6037
 3867TIP3    H233017   6.272   3.816   4.624 -0.9952 -0.2722 -0.5163
 3868TIP3   OH233018   5.071   3.323  16.147  0.1367 -0.4236 -0.1159
 3868TIP3    H133019   5.090   3.258  16.214 -2.0216  0.6300  1.6153
 3868TIP3    H233020   5.147   3.382  16.149  0.3497 -0.7204  0.9788
 3869TIP3   OH233021   2.039   3.665   1.757  0.3247 -0.3663 -0.1272
 3869TIP3    H133022   2.041   3.612   1.837 -0.1142 -0.1905  0.0053
 3869TIP3    H233023   2.013   3.604   1.688  0.6204 -0.5002 -0.1216
 3870TIP3   OH233024   6.694   3.857  15.414  0.2232  0.2840 -0.6243
 3870TIP3    H133025   6.756   3.878  15.344  2.6392 -2.5892  0.4620
 3870TIP3    H233026   6.716   3.919  15.484 -0.7917  1.7672 -1.5461
 3871TIP3   OH233027   6.233   6.687  16.848  1.1524 -0.5162 -0.1255
 3871TIP3    H133028   6.194   6.611  16.892  2.0643  0.2602  2.1835
 3871TIP3    H233029   6.159   6.726  16.801 -0.0137 -1.2462  0.9885
 3872TIP3   OH233030   0.164   1.618  11.676 -0.1073 -0.2388  0.1045
 3872TIP3    H133031   0.169   1.550  11.608 -1.5441 -0.9450  0.6505
 3872TIP3    H233032   0.251   1.657  11.678  0.4447 -1.3485 -0.9743
 3873TIP3   OH233033   6.255   2.695  11.220  0.4831  0.1214  0.3510
 3873TIP3    H133034   6.318   2.678  11.150 -0.6088 -0.9421 -0.4128
 3873TIP3    H233035   6.277   2.783  11.251  1.0408  0.6113 -1.3033
 3874TIP3   OH233036   0.548   5.388  13.596 -0.4296 -0.4573  0.1887
 3874TIP3    H133037   0.586   5.450  13.535 -0.0515  0.6241  1.4691
 3874TIP3    H233038   0.622   5.336  13.627  0.0934  1.4476  2.4517
 3875TIP3   OH233039   0.909   4.705   4.407  0.0430  0.1472  0.0823
 3875TIP3    H133040   0.956   4.788   4.402  2.6613 -1.2315 -0.2568
 3875TIP3    H233041   0.817   4.729   4.417  0.6289  3.0505 -0.7145
 3876TIP3   OH233042   5.972   0.718  17.155  0.2330 -0.2982 -0.0226
 3876TIP3    H133043   5.901   0.753  17.100  2.4975 -0.5706 -3.4026
 3876TIP3    H233044   6.029   0.793  17.172 -0.0262 -0.3906  1.4211
 3877TIP3   OH233045   4.376   0.717  13.203  0.1465 -0.9716 -0.5073
 3877TIP3    H133046   4.385   0.666  13.283  1.4065 -0.5023 -0.3206
 3877TIP3    H233047   4.417   0.662  13.135 -0.0532 -0.9535 -0.6434
 3878TIP3   OH233048   1.084   1.644  13.624  0.0891 -0.3872  0.3426
 3878TIP3    H133049   1.135   1.563  13.621  0.3350 -0.4117  3.0635
 3878TIP3    H233050   1.150   1.713  13.630 -0.0338  0.3064 -3.6780
 3879TIP3   OH233051   3.411   3.165  13.396 -0.2866  0.1604  0.2237
 3879TIP3    H133052   3.433   3.175  13.303 -0.2001 -2.4039 -0.1015
 3879TIP3    H233053   3.326   3.207  13.405  0.2118  1.4403 -0.7466
 3880TIP3   OH233054   5.786   0.718  13.525 -0.0599  0.1965  0.9566
 3880TIP3    H133055   5.738   0.636  13.520  1.1589 -0.4789 -0.9839
 3880TIP3    H233056   5.871   0.695  13.561  1.2100  0.0418 -1.8903
 3881TIP3   OH233057   4.141   0.825   4.503  0.2526 -0.2362  0.4267
 3881TIP3    H133058   4.129   0.746   4.449  0.7165  0.1600 -0.2693
 3881TIP3    H233059   4.142   0.792   4.593 -1.0549 -0.8450  0.2393
 3882TIP3   OH233060   2.522   4.095   3.496 -0.5069 -0.0663  0.1171
 3882TIP3    H133061   2.439   4.081   3.541 -0.5911  0.1767  0.0426
 3882TIP3    H233062   2.507   4.063   3.407 -2.1206  4.1921 -1.4202
 3883TIP3   OH233063   0.370   0.303   4.886  0.0498  0.2020  0.5414
 3883TIP3    H133064   0.462   0.328   4.876  0.6750 -2.5339 -1.3999
 3883TIP3    H233065   0.323   0.358   4.823  0.5973  0.4039  0.3082
 3884TIP3   OH233066   5.110   0.591   1.561 -0.6365  0.2418  0.0337
 3884TIP3    H133067   5.028   0.641   1.555  0.2986  1.6021 -2.7471
 3884TIP3    H233068   5.119   0.550   1.476  0.8217 -1.2032  0.8376
 3885TIP3   OH233069   3.575   6.181  13.880  0.2647 -0.5080  0.0139
 3885TIP3    H133070   3.502   6.188  13.942  0.4750  1.7705  0.0769
 3885TIP3    H233071   3.635   6.119  13.921 -0.1598  0.0233  1.5319
 3886TIP3   OH233072   0.027   2.291   4.670  0.5236 -0.3009 -0.5442
 3886TIP3    H133073   0.048   2.374   4.711 -2.5009 -0.4739  1.7111
 3886TIP3    H233074   0.091   2.229   4.705  0.2671  0.3104  1.0663
 3887TIP3   OH233075   1.488   4.361  15.316  0.2930  0.3270  0.4861
 3887TIP3    H133076   1.531   4.340  15.399 -0.2752  1.5529  1.1122
 3887TIP3    H233077   1.543   4.429  15.277  1.1074 -0.9241 -0.6491
 3888TIP3   OH233078   3.143   4.986  15.843 -0.4780  0.4598  0.2309
 3888TIP3    H133079   3.089   4.941  15.908 -1.0716  0.3554 -0.3254
 3888TIP3    H233080   3.179   5.062  15.890 -0.3616  0.0215  0.8584
 3889TIP3   OH233081   4.173   2.511   4.251 -0.6743 -0.4522  0.2817
 3889TIP3    H133082   4.220   2.527   4.332 -1.7874  2.8049  0.4430
 3889TIP3    H233083   4.176   2.594   4.205 -1.9091 -1.6009 -2.0563
 3890TIP3   OH233084   6.365   0.895  12.977  0.4883 -0.3581  0.4721
 3890TIP3    H133085   6.390   0.839  12.904 -0.4866 -0.9643  0.5859
 3890TIP3    H233086   6.323   0.836  13.040 -0.1170  0.4130  0.8099
 3891TIP3   OH233087   5.059   6.399  16.111 -0.6105  0.0709 -0.0039
 3891TIP3    H133088   5.030   6.318  16.069 -1.2182 -0.0620  0.6377
 3891TIP3    H233089   5.087   6.371  16.198  0.0738  0.4214 -0.1111
 3892TIP3   OH233090   0.035   4.601   3.173  0.2371  0.2708  0.1633
 3892TIP3    H133091   0.003   4.521   3.131  0.4635  0.3377 -0.1397
 3892TIP3    H233092   0.000   4.597   3.262 -1.4833  0.8420 -0.4382
 3893TIP3   OH233093   5.270   2.708  10.582 -0.1111 -0.3323 -0.5713
 3893TIP3    H133094   5.273   2.627  10.531 -2.4926 -0.4804 -0.5770
 3893TIP3    H233095   5.321   2.770  10.531 -1.2462 -0.8659 -2.4443
 3894TIP3   OH233096   0.962   2.167  14.327  0.1021 -0.3927  0.5619
 3894TIP3    H133097   0.890   2.135  14.381  0.2439  1.1497  1.7109
 3894TIP3    H233098   1.010   2.227  14.383  1.8460 -0.7737 -0.4374
 3895TIP3   OH233099   1.816   5.563   3.233  0.5970 -0.1271 -0.1091
 3895TIP3    H133100   1.787   5.515   3.155  0.6898  0.9178 -0.8112
 3895TIP3    H233101   1.822   5.654   3.204 -0.0874  0.4040  1.3311
 3896TIP3   OH233102   4.941   3.751   4.266 -0.1111  0.1015 -0.6593
 3896TIP3    H133103   5.017   3.806   4.246  0.2803 -0.1900  0.0005
 3896TIP3    H233104   4.965   3.664   4.234 -1.3712  0.5802 -3.2183
 3897TIP3   OH233105   2.050   2.392   2.963  0.2770  0.8233  0.1107
 3897TIP3    H133106   2.057   2.393   2.867 -0.1577  1.6839  0.0871
 3897TIP3    H233107   2.029   2.482   2.987  0.8393  0.7129  1.0573
 3898TIP3   OH233108   5.459   4.851   2.438 -0.0315  0.0420 -0.0778
 3898TIP3    H133109   5.396   4.793   2.397  0.0883 -0.4131  0.3763
 3898TIP3    H233110   5.432   4.939   2.410 -0.9512 -0.1312  0.2270
 3899TIP3   OH233111   6.438   0.726  12.241  0.1124 -0.1160  0.4842
 3899TIP3    H133112   6.456   0.819  12.231 -3.1431  0.6022  0.2628
 3899TIP3    H233113   6.422   0.695  12.151 -1.4659 -0.2050  0.7661
 3900TIP3   OH233114   3.486   1.395  15.515  0.0529 -0.0511 -0.0954
 3900TIP3    H133115   3.523   1.453  15.582 -0.7085  1.0244 -0.5758
 3900TIP3    H233116   3.457   1.454  15.446  0.9435 -1.1447 -1.4643
 3901TIP3   OH233117   4.854   5.122   1.574  0.3181 -0.3053  0.0314
 3901TIP3    H133118   4.855   5.197   1.634  1.1207 -1.1897  1.1593
 3901TIP3    H233119   4.771   5.131   1.526  0.7544  1.7495 -0.4589
 3902TIP3   OH233120   5.999   3.403   4.511 -0.3285 -0.1165 -0.1193
 3902TIP3    H133121   6.024   3.469   4.575 -0.3083 -0.2525  0.0137
 3902TIP3    H233122   5.954   3.336   4.562 -0.0839 -0.3489 -0.2067
 3903TIP3   OH233123   4.587   1.231   1.677 -0.1158  0.0025 -0.2137
 3903TIP3    H133124   4.640   1.306   1.649 -0.8542  0.2632 -0.9402
 3903TIP3    H233125   4.522   1.220   1.608  0.6241 -1.9691 -0.6391
 3904TIP3   OH233126   2.136   4.368   1.534 -0.3791 -0.2859  0.5806
 3904TIP3    H133127   2.068   4.434   1.546 -0.4762 -0.4475  0.9314
 3904TIP3    H233128   2.127   4.340   1.443 -1.0568 -0.6155  0.7498
 3905TIP3   OH233129   6.121   6.155   1.999 -0.3795 -0.4114  0.3945
 3905TIP3    H133130   6.129   6.219   1.927  1.1969 -1.3449 -0.3238
 3905TIP3    H233131   6.084   6.205   2.071  0.7298  1.3360 -0.1710
 3906TIP3   OH233132   0.394   6.111  12.892 -0.0054 -0.2416  0.0259
 3906TIP3    H133133   0.348   6.166  12.955  1.0144 -0.6929  1.1949
 3906TIP3    H233134   0.456   6.170  12.848  0.0664 -0.1620  0.2372
 3907TIP3   OH233135   3.647   3.900  15.089  0.1739 -0.6549 -0.0962
 3907TIP3    H133136   3.557   3.880  15.063 -0.0169  0.3750 -0.2575
 3907TIP3    H233137   3.644   3.990  15.119  0.9641 -0.9317  0.8594
 3908TIP3   OH233138   4.661   3.638   0.664 -0.2936 -0.2791 -0.2637
 3908TIP3    H133139   4.631   3.728   0.652  1.8175  0.2607 -2.2216
 3908TIP3    H233140   4.587   3.585   0.633 -1.1673  0.7917 -0.0861
 3909TIP3   OH233141   5.462   0.343  12.230  0.1665  0.4554  0.1132
 3909TIP3    H133142   5.410   0.304  12.301  0.4428 -1.2280 -0.5521
 3909TIP3    H233143   5.528   0.395  12.274  0.5873 -0.8884  1.1355
 3910TIP3   OH233144   4.654   5.399  16.794 -0.6504 -0.2695 -0.0621
 3910TIP3    H133145   4.648   5.304  16.782 -1.2030 -0.1959 -0.4577
 3910TIP3    H233146   4.564   5.429  16.782 -0.6446  0.2027  1.0145
 3911TIP3   OH233147   6.422   0.978   1.628 -0.1538 -0.5623  0.4032
 3911TIP3    H133148   6.494   0.916   1.629 -0.5428 -1.0258  1.6828
 3911TIP3    H233149   6.447   1.043   1.562  0.3374 -1.9614 -0.8527
 3912TIP3   OH233150   5.759   3.977   3.691  0.1788 -0.1383  0.6371
 3912TIP3    H133151   5.790   4.068   3.684 -0.1981 -0.1385 -1.4853
 3912TIP3    H233152   5.667   3.981   3.666 -0.0290 -1.0223  1.2272
 3913TIP3   OH233153   5.106   0.201   5.601  0.0098  0.0072  0.6493
 3913TIP3    H133154   5.135   0.249   5.679 -1.2015 -2.3507  2.6944
 3913TIP3    H233155   5.041   0.258   5.560 -0.6495  0.5880  2.4085
 3914TIP3   OH233156   0.469   4.007   2.796  0.1664 -0.4002  0.2047
 3914TIP3    H133157   0.495   3.932   2.849  1.4422 -0.5198 -0.5507
 3914TIP3    H233158   0.377   3.990   2.775 -0.3747 -0.3553  2.3119
 3915TIP3   OH233159   6.789   1.163  15.161  0.0679  0.1856  0.4663
 3915TIP3    H133160   6.734   1.086  15.179  0.1382  0.0740  0.2050
 3915TIP3    H233161   6.840   1.139  15.084 -0.7566  0.9232 -0.3286
 3916TIP3   OH233162   2.280   2.061   3.082  0.1295 -0.0920 -0.0482
 3916TIP3    H133163   2.252   2.052   2.991 -0.8058  2.3385 -0.0671
 3916TIP3    H233164   2.275   1.972   3.117  0.0675 -1.0110 -2.2255
 3917TIP3   OH233165   5.532   5.157  14.950  0.4021  0.5804  0.2472
 3917TIP3    H133166   5.444   5.130  14.925  0.4100  0.5741  0.2264
 3917TIP3    H233167   5.562   5.088  15.010  0.1799  0.8726  0.7046
 3918TIP3   OH233168   0.488   2.296   1.684 -0.0146  0.5459 -0.0690
 3918TIP3    H133169   0.555   2.320   1.749  0.3221 -2.0334  0.6250
 3918TIP3    H233170   0.534   2.239   1.623 -0.8228  1.3983 -1.5256
 3919TIP3   OH233171   2.052   1.449   3.995  0.4826  0.5856 -0.1952
 3919TIP3    H133172   1.965   1.488   3.991  0.5021  0.5314 -2.2459
 3919TIP3    H233173   2.067   1.415   3.907  2.0899 -0.5053  0.4480
 3920TIP3   OH233174   2.508   0.262  12.115  0.1382  0.3680  0.3745
 3920TIP3    H133175   2.592   0.221  12.095  0.4616  0.5578  1.3073
 3920TIP3    H233176   2.523   0.310  12.196 -0.2808  2.2385 -0.6021
 3921TIP3   OH233177   4.332   5.046  15.778 -0.4654  0.5434  0.2245
 3921TIP3    H133178   4.269   5.118  15.775 -2.4004 -0.9575  2.0346
 3921TIP3    H233179   4.278   4.967  15.779  1.4797 -0.8614  1.0067
 3922TIP3   OH233180   5.865   3.452   3.425  0.1127 -0.2569 -0.3229
 3922TIP3    H133181   5.834   3.374   3.378 -1.2707 -0.3961  0.7537
 3922TIP3    H233182   5.872   3.424   3.516  1.2010  0.4466 -0.1703
 3923TIP3   OH233183   0.901   3.881  12.238  0.2437 -0.0921 -0.4601
 3923TIP3    H133184   0.809   3.892  12.262  0.8062 -0.4658  2.1063
 3923TIP3    H233185   0.903   3.899  12.144 -2.2987  0.7160 -0.4388
 3924TIP3   OH233186   6.710   3.487   5.764  0.2212 -0.1927 -0.0714
 3924TIP3    H133187   6.679   3.531   5.685 -2.6840 -0.7276  0.6536
 3924TIP3    H233188   6.713   3.394   5.739 -1.2754 -0.4314  0.5687
 3925TIP3   OH233189   0.066   4.913   3.304  0.3048  0.0908 -0.0286
 3925TIP3    H133190   0.118   4.847   3.258  1.2059 -0.2993  1.4868
 3925TIP3    H233191   0.089   4.996   3.262  0.1378 -0.3945 -1.1028
 3926TIP3   OH233192   5.970   6.565   2.799 -0.4248 -0.0230  0.4899
 3926TIP3    H133193   5.953   6.480   2.840  0.4462 -1.0844 -1.1974
 3926TIP3    H233194   5.950   6.629   2.866 -0.6341 -1.5854  1.9888
 3927TIP3   OH233195   4.915   2.653  12.196 -0.0846  0.3484  0.1655
 3927TIP3    H133196   4.897   2.717  12.127  0.4952  0.8282  0.4519
 3927TIP3    H233197   4.833   2.646  12.245 -0.0925  1.0301  0.2586
 3928TIP3   OH233198   3.595   6.785   4.497 -0.1241 -0.3895 -0.0682
 3928TIP3    H133199   3.630   6.801   4.409 -0.0591 -1.0119 -0.1573
 3928TIP3    H233200   3.524   6.848   4.506  0.2060  0.0306 -0.3673
 3929TIP3   OH233201   2.356   5.786   4.051  0.2034  0.1606  0.3694
 3929TIP3    H133202   2.395   5.758   4.133  2.3668  0.1559 -0.5749
 3929TIP3    H233203   2.292   5.718   4.029  2.6350 -2.1690 -0.0021
 3930TIP3   OH233204   2.726   2.186  13.048  0.8734 -0.1539 -0.3154
 3930TIP3    H133205   2.652   2.180  13.108  1.1889  3.7965  0.6991
 3930TIP3    H233206   2.696   2.138  12.970 -1.8639 -0.5123  0.8224
 3931TIP3   OH233207   2.668   4.177  15.774 -0.1011  0.0508 -0.3760
 3931TIP3    H133208   2.740   4.222  15.729 -0.4919  0.4853 -0.5850
 3931TIP3    H233209   2.701   4.161  15.862  0.2158  0.3282 -0.4401
 3932TIP3   OH233210   3.090   3.659   2.746  0.3271 -0.3448 -0.2960
 3932TIP3    H133211   3.123   3.742   2.711 -0.0576 -1.1326 -2.7239
 3932TIP3    H233212   2.995   3.668   2.745  0.2647 -0.9727 -1.0720
 3933TIP3   OH233213   2.284   0.736   5.923 -0.1073  0.2471  0.3126
 3933TIP3    H133214   2.245   0.670   5.981 -0.3319  0.5033  0.4545
 3933TIP3    H233215   2.371   0.702   5.903 -0.1001  0.0659  0.6488
 3934TIP3   OH233216   2.754   1.618   3.615 -0.1710  0.4462  0.2458
 3934TIP3    H133217   2.719   1.617   3.704  0.8270  1.0728  0.6501
 3934TIP3    H233218   2.717   1.697   3.575  1.2754  1.4914  0.8965
 3935TIP3   OH233219   1.592   4.262   4.619 -0.4092  0.1596  0.0634
 3935TIP3    H133220   1.593   4.357   4.621  0.4056  0.1505  1.1132
 3935TIP3    H233221   1.499   4.239   4.618 -0.6242  0.9514 -1.7703
 3936TIP3   OH233222   5.884   1.508   0.724  0.2774  0.4998  0.3145
 3936TIP3    H133223   5.869   1.490   0.816  0.7778  0.5625  0.4116
 3936TIP3    H233224   5.819   1.455   0.678  0.6781 -0.3029  0.6627
 3937TIP3   OH233225   6.753   3.339   0.436 -0.3757  0.0378  0.7335
 3937TIP3    H133226   6.840   3.306   0.412 -0.0520  0.6244  1.0490
 3937TIP3    H233227   6.754   3.430   0.406 -1.1460 -0.1523  0.1073
 3938TIP3   OH233228   2.911   3.778   2.418 -0.3061  0.0999 -0.5492
 3938TIP3    H133229   2.873   3.798   2.503  0.5866 -0.2455 -0.0590
 3938TIP3    H233230   2.853   3.711   2.381 -0.6528  0.1967 -0.1862
 3939TIP3   OH233231   3.335   4.589  17.153  1.0725  0.5007  0.7379
 3939TIP3    H133232   3.295   4.506  17.177  1.8172  0.3072  1.3371
 3939TIP3    H233233   3.282   4.621  17.080 -3.3483  2.6464  4.3899
 3940TIP3   OH233234   5.914   6.158   0.527 -0.3879  0.1172 -0.0612
 3940TIP3    H133235   5.966   6.238   0.536 -1.2762  0.4962  2.1157
 3940TIP3    H233236   5.892   6.133   0.616 -1.8851 -1.4134 -0.8071
 3941TIP3   OH233237   2.883   4.636   2.351 -0.2691  0.4858 -0.5249
 3941TIP3    H133238   2.952   4.621   2.416 -0.6318 -1.9670 -0.6189
 3941TIP3    H233239   2.930   4.652   2.269  0.2419 -1.2683 -0.6103
 3942TIP3   OH233240   5.853   0.417  12.362  0.5025  0.3209  0.0429
 3942TIP3    H133241   5.928   0.469  12.335  0.2989  0.5902 -0.0050
 3942TIP3    H233242   5.886   0.363  12.434  0.3228  1.6404  1.1516
 3943TIP3   OH233243   2.701   5.147   2.930 -0.0350 -0.0007 -0.3463
 3943TIP3    H133244   2.605   5.144   2.934 -0.0091 -3.1929  0.1072
 3943TIP3    H233245   2.723   5.122   2.841  0.4420  2.4889 -1.0041
 3944TIP3   OH233246   4.197   1.358   1.216  0.0631  0.4000  0.4631
 3944TIP3    H133247   4.150   1.283   1.180 -1.9838  0.5330  2.6195
 3944TIP3    H233248   4.219   1.411   1.140 -2.4822 -0.1688 -0.7736
 3945TIP3   OH233249   3.074   5.228   5.780  0.2913 -0.3109 -0.3829
 3945TIP3    H133250   3.044   5.154   5.727  0.4869 -0.0745 -0.8359
 3945TIP3    H233251   3.166   5.238   5.756  0.1159  0.4419 -0.7692
 3946TIP3   OH233252   6.304   5.999  15.028  0.3494 -0.3567 -0.0423
 3946TIP3    H133253   6.266   5.976  15.112 -0.9562  0.1440 -0.4797
 3946TIP3    H233254   6.274   6.088  15.011 -1.2249 -1.1873 -2.0321
 3947TIP3   OH233255   2.952   2.979   1.492  0.0550  0.4231 -0.0414
 3947TIP3    H133256   3.014   2.960   1.562  0.0057  0.5564  0.0374
 3947TIP3    H233257   2.983   3.061   1.454 -1.2199  1.5786  1.3015
 3948TIP3   OH233258   5.693   1.316  13.734  0.3637  0.3401  0.2107
 3948TIP3    H133259   5.621   1.366  13.772 -0.3427  0.4230 -1.1987
 3948TIP3    H233260   5.652   1.248  13.681  1.2675  1.0375 -1.4754
 3949TIP3   OH233261   3.382   3.295   3.912 -0.0344  0.4394  0.2067
 3949TIP3    H133262   3.477   3.310   3.914 -0.1648  1.3338  0.0938
 3949TIP3    H233263   3.354   3.328   3.827 -0.5662  0.9822  0.5820
 3950TIP3   OH233264   6.376   1.529   2.457  0.0612 -0.2453 -0.1280
 3950TIP3    H133265   6.416   1.497   2.538  0.9464 -1.6489 -1.0601
 3950TIP3    H233266   6.282   1.521   2.471  0.1004  1.3236  1.4208
 3951TIP3   OH233267   4.665   2.365   2.883  0.7129 -0.4536  0.7434
 3951TIP3    H133268   4.589   2.307   2.881 -0.8441  1.5000 -0.8297
 3951TIP3    H233269   4.739   2.307   2.900 -0.9849 -2.5719  1.3263
 3952TIP3   OH233270   1.947   0.415  16.749  0.4433 -0.1956  0.1885
 3952TIP3    H133271   1.902   0.333  16.731  2.7853 -1.0938 -2.2653
 3952TIP3    H233272   1.946   0.422  16.845 -0.5401 -2.6542  0.4370
 3953TIP3   OH233273   3.630   3.255  12.095 -0.1809 -0.3067  0.0635
 3953TIP3    H133274   3.590   3.274  12.010 -0.5136 -0.0851  0.2661
 3953TIP3    H233275   3.662   3.165  12.088 -1.2690 -0.7083  0.1030
 3954TIP3   OH233276   3.411   0.812  14.233 -0.6401 -0.8745 -0.2499
 3954TIP3    H133277   3.329   0.763  14.225 -0.8306 -0.3393 -2.2312
 3954TIP3    H233278   3.384   0.904  14.230 -0.1029 -0.6381  1.1702
 3955TIP3   OH233279   5.872   5.007  16.772  0.0952  0.3335  0.6691
 3955TIP3    H133280   5.948   5.033  16.720  0.3248 -0.0719  0.7922
 3955TIP3    H233281   5.895   5.029  16.862  1.2509 -2.2772  1.1050
 3956TIP3   OH233282   3.601   5.907   5.155  0.1776 -0.1398 -0.3872
 3956TIP3    H133283   3.585   5.985   5.208  2.9119  0.0119  0.3481
 3956TIP3    H233284   3.528   5.906   5.093 -0.8910  1.9989  0.7003
 3957TIP3   OH233285   2.375   5.307  11.214 -0.3061  0.5316 -0.4068
 3957TIP3    H133286   2.326   5.375  11.259 -1.0715 -0.0732 -0.3030
 3957TIP3    H233287   2.464   5.342  11.206 -1.3008  2.8849 -3.0596
 3958TIP3   OH233288   2.701   0.633   6.402  0.6711  0.1959 -0.2617
 3958TIP3    H133289   2.790   0.598   6.404 -0.0041 -1.6379  0.2762
 3958TIP3    H233290   2.711   0.726   6.421  2.4698  0.0389 -0.2884
 3959TIP3   OH233291   6.455   5.837  11.899 -0.0080  0.1897  0.0127
 3959TIP3    H133292   6.370   5.881  11.895 -1.2750 -2.1733 -2.4241
 3959TIP3    H233293   6.447   5.776  11.972  0.5380  1.6051  1.2997
 3960TIP3   OH233294   6.643   4.402   0.244  0.0023 -0.2956  0.1179
 3960TIP3    H133295   6.646   4.399   0.339 -1.3872 -2.3678  0.1599
 3960TIP3    H233296   6.585   4.476   0.224  1.6501  1.2531  0.7619
 3961TIP3   OH233297   6.270   1.044  15.353 -0.4837 -0.5563  0.0343
 3961TIP3    H133298   6.227   1.098  15.287 -0.5346 -0.4888  0.1213
 3961TIP3    H233299   6.270   1.099  15.432 -1.6613 -1.1483  0.4656
 3962TIP3   OH233300   5.957   5.958  12.018 -0.1492  0.0614 -0.3099
 3962TIP3    H133301   5.906   6.037  12.034  0.0430  0.2669 -0.7165
 3962TIP3    H233302   5.894   5.887  12.025 -0.3860  0.2742 -0.2749
 3963TIP3   OH233303   3.123   2.352   1.362 -0.0836  0.1012  0.0068
 3963TIP3    H133304   3.134   2.408   1.439 -1.0132  0.2154  0.0606
 3963TIP3    H233305   3.200   2.295   1.363 -0.5904 -0.6109  1.6160
 3964TIP3   OH233306   4.899   3.330  16.895 -0.1804 -0.4694  0.8757
 3964TIP3    H133307   4.809   3.309  16.870 -0.1640  1.7177 -1.4672
 3964TIP3    H233308   4.944   3.246  16.898 -2.3084 -1.6319  2.3111
 3965TIP3   OH233309   6.009   1.856  16.983 -0.1886 -0.3777 -0.0263
 3965TIP3    H133310   6.000   1.949  16.967  1.1866 -0.0505  0.9625
 3965TIP3    H233311   6.103   1.840  16.986 -0.3916 -1.6298  0.6653
 3966TIP3   OH233312   1.625   6.680   5.991 -0.1955  0.4476  0.4606
 3966TIP3    H133313   1.620   6.611   6.058  2.7100 -0.3475 -0.0131
 3966TIP3    H233314   1.681   6.747   6.030  1.2006  0.1641 -0.9770
 3967TIP3   OH233315   6.387   5.623   0.472  0.0612  0.2510  0.1347
 3967TIP3    H133316   6.377   5.614   0.377  2.6310  1.1588 -0.2889
 3967TIP3    H233317   6.313   5.679   0.498 -1.4201 -1.0332 -1.0669
 3968TIP3   OH233318   3.138   3.304  11.024 -0.0553 -0.3292 -0.4713
 3968TIP3    H133319   3.212   3.338  10.973  0.3809 -0.3088  0.1721
 3968TIP3    H233320   3.062   3.347  10.986  0.4442  1.0869  0.0859
 3969TIP3   OH233321   4.360   2.689  15.752  0.3411 -0.0418  0.1005
 3969TIP3    H133322   4.340   2.725  15.666  0.5231 -0.4468 -0.1133
 3969TIP3    H233323   4.456   2.680  15.752  0.5612  1.6797  1.0320
 3970TIP3   OH233324   0.730   1.217  16.661 -1.0997 -0.3864 -0.3664
 3970TIP3    H133325   0.723   1.192  16.569 -1.2045  0.2591 -0.5349
 3970TIP3    H233326   0.764   1.138  16.704  0.0240 -0.3404 -1.1244
 3971TIP3   OH233327   6.516   2.166  16.764  0.3354 -0.3926 -0.6043
 3971TIP3    H133328   6.562   2.240  16.724  0.3291 -0.6633 -1.1256
 3971TIP3    H233329   6.428   2.169  16.726  0.1938 -0.3919 -0.2762
 3972TIP3   OH233330   2.376   5.554   2.755 -0.4604  0.0928 -0.2654
 3972TIP3    H133331   2.327   5.523   2.679 -0.0291  0.3872 -0.6788
 3972TIP3    H233332   2.462   5.513   2.747 -0.9531 -1.2630  1.0329
 3973TIP3   OH233333   5.667   4.708  11.733 -0.0727 -0.0700  0.3624
 3973TIP3    H133334   5.649   4.738  11.643 -0.6882  0.8593  0.7764
 3973TIP3    H233335   5.604   4.637  11.748 -0.0112 -0.1857  0.0756
 3974TIP3   OH233336   6.351   4.725  13.189  0.1916 -0.5228  0.6538
 3974TIP3    H133337   6.323   4.749  13.277 -2.7065 -1.0186 -0.0292
 3974TIP3    H233338   6.386   4.806  13.151 -1.8753  0.6389  1.0891
 3975TIP3   OH233339   5.321   6.439   6.044  0.0712 -0.1546  0.5071
 3975TIP3    H133340   5.349   6.392   5.966  0.4529 -0.2887  0.7201
 3975TIP3    H233341   5.225   6.438   6.041  0.0856  0.6556 -0.4442
 3976TIP3   OH233342   6.200   2.461   5.713  0.0980 -0.1278  0.3358
 3976TIP3    H133343   6.135   2.456   5.783 -1.5774  0.2059 -1.1217
 3976TIP3    H233344   6.264   2.393   5.734 -1.0382 -0.8702  1.5198
 3977TIP3   OH233345   5.004   4.141   0.639 -0.4285 -0.5213  0.9933
 3977TIP3    H133346   5.090   4.098   0.647  0.8761  1.4707 -1.1647
 3977TIP3    H233347   4.941   4.070   0.649  1.5316 -2.4511  0.3583
 3978TIP3   OH233348   2.325   4.721  14.214 -0.0486 -0.2777 -0.1508
 3978TIP3    H133349   2.279   4.640  14.191 -0.4865 -0.3481  0.9386
 3978TIP3    H233350   2.394   4.728  14.147 -1.6198 -0.1369 -1.8534
 3979TIP3   OH233351   2.820   5.525   4.476 -0.4629 -0.4520 -0.1801
 3979TIP3    H133352   2.820   5.587   4.549 -1.4298 -0.3749 -0.2410
 3979TIP3    H233353   2.728   5.510   4.456 -0.2223 -0.4195 -1.4353
 3980TIP3   OH233354   3.033   2.452   4.290 -0.0803 -0.2354 -0.5240
 3980TIP3    H133355   3.031   2.518   4.359  0.3901 -0.1047 -0.6289
 3980TIP3    H233356   3.119   2.462   4.250 -0.4547 -0.1259 -1.3130
 3981TIP3   OH233357   5.182   2.175  16.212  0.0514 -0.2541  0.4194
 3981TIP3    H133358   5.216   2.104  16.158  0.1485 -0.7826  1.1619
 3981TIP3    H233359   5.112   2.135  16.264 -0.7277  0.4864 -0.0344
 3982TIP3   OH233360   3.330   1.004  15.760 -0.2538  0.5351 -0.6913
 3982TIP3    H133361   3.239   0.973  15.755 -0.3176  0.6593 -0.3542
 3982TIP3    H233362   3.329   1.087  15.713  0.3332 -0.8306 -3.3186
 3983TIP3   OH233363   5.869   1.957  10.910  0.0803  0.0148 -0.1747
 3983TIP3    H133364   5.820   2.036  10.887  0.0905  0.2380  0.5752
 3983TIP3    H233365   5.902   1.924  10.826  0.5451  1.1042 -0.4301
 3984TIP3   OH233366   3.190   6.301   2.206  0.0253  0.2108 -0.4085
 3984TIP3    H133367   3.114   6.359   2.201 -0.6567 -0.5743  0.4524
 3984TIP3    H233368   3.179   6.242   2.131  0.4093  0.8118 -0.9465
 3985TIP3   OH233369   4.395   6.228  14.696  0.7083  0.0409 -0.8375
 3985TIP3    H133370   4.404   6.273  14.780  0.5839 -1.0595 -0.2164
 3985TIP3    H233371   4.312   6.260  14.661  0.4239  0.0055 -0.2113
 3986TIP3   OH233372   6.117   4.767   0.817  0.3188  0.8786  0.1876
 3986TIP3    H133373   6.063   4.808   0.884  0.5310 -0.1642  1.0310
 3986TIP3    H233374   6.201   4.751   0.860  0.1438 -0.6994  0.0096
 3987TIP3   OH233375   3.247   5.024   6.488 -0.5577  0.1865  0.7515
 3987TIP3    H133376   3.171   5.080   6.503 -0.6687 -0.0959  1.2720
 3987TIP3    H233377   3.271   4.993   6.575 -1.2604 -1.5843  0.3636
 3988TIP3   OH233378   5.446   3.960   2.350  1.0426  0.7946 -0.2581
 3988TIP3    H133379   5.402   3.944   2.434  0.4836  1.3305 -0.4416
 3988TIP3    H233380   5.538   3.937   2.366  0.9779  1.0817  0.5597
 3989TIP3   OH233381   4.479   4.596  12.078  0.1337 -0.1554  0.2133
 3989TIP3    H133382   4.494   4.690  12.075  2.5366 -0.4421  1.4243
 3989TIP3    H233383   4.408   4.585  12.142 -2.0545  0.9222 -1.8667
 3990TIP3   OH233384   3.105   3.933  15.648 -0.1632 -0.2197  0.5166
 3990TIP3    H133385   3.036   3.867  15.643 -2.1384  1.5895  2.1161
 3990TIP3    H233386   3.185   3.882  15.661 -1.4277 -2.3325  0.6404
 3991TIP3   OH233387   6.367   3.160  12.020  0.3441  0.2469  0.3351
 3991TIP3    H133388   6.437   3.120  12.072  2.1365  1.2753 -1.2041
 3991TIP3    H233389   6.313   3.085  11.993  1.2874 -0.6719  0.8891
 3992TIP3   OH233390   5.016   2.457  14.014 -0.7168  0.4444  0.1858
 3992TIP3    H133391   5.085   2.419  14.069 -0.8069 -1.1975 -0.7566
 3992TIP3    H233392   4.934   2.423  14.051 -0.8785  0.5896 -0.0340
 3993TIP3   OH233393   3.379   0.976  13.886  0.2125  0.0064 -0.3955
 3993TIP3    H133394   3.323   0.898  13.896 -1.5056  1.2914  0.4290
 3993TIP3    H233395   3.468   0.940  13.878 -0.5986 -2.0744 -0.8650
 3994TIP3   OH233396   4.552   5.157   1.564 -0.1443  0.7706  0.1749
 3994TIP3    H133397   4.481   5.164   1.628  0.5162 -0.4190  1.0764
 3994TIP3    H233398   4.557   5.064   1.543 -0.0112  1.0832 -1.2308
 3995TIP3   OH233399   3.085   6.674   5.007 -0.1142 -0.2139  0.3631
 3995TIP3    H133400   3.134   6.692   4.927  0.2608 -0.7129  0.4736
 3995TIP3    H233401   3.152   6.646   5.070 -0.4980 -0.5484  0.6250
 3996TIP3   OH233402   3.891   1.513   5.418 -0.6544  0.0778 -0.5206
 3996TIP3    H133403   3.857   1.478   5.336  0.2219 -0.2339 -0.7638
 3996TIP3    H233404   3.884   1.441   5.480  0.6930 -0.4192 -0.8966
 3997TIP3   OH233405   4.253   2.747   1.217 -0.2537 -0.3253 -0.0944
 3997TIP3    H133406   4.334   2.796   1.230  0.5444 -1.4859 -0.5819
 3997TIP3    H233407   4.268   2.696   1.137 -1.9026  0.3176 -0.8771
 3998TIP3   OH233408   3.921   2.558   4.813 -0.5046 -0.1126  0.0452
 3998TIP3    H133409   3.921   2.552   4.718 -0.6706 -0.5745  0.0726
 3998TIP3    H233410   3.833   2.531   4.840 -0.4045 -0.1555  0.3400
 3999TIP3   OH233411   5.579   1.721  16.578  0.4096 -0.0414  0.5133
 3999TIP3    H133412   5.660   1.746  16.622  0.0017  1.9100  0.2542
 3999TIP3    H233413   5.606   1.659  16.510  1.8980  1.5775 -0.4428
 4000TIP3   OH233414   5.168   0.127   6.437 -0.3033 -0.1423 -0.3532
 4000TIP3    H133415   5.144   0.202   6.492  0.3638  0.4016 -0.7858
 4000TIP3    H233416   5.230   0.077   6.491  0.1217  0.2323 -0.4853
 4001TIP3   OH233417   4.824   5.164  15.851  0.2152  0.0105 -0.1370
 4001TIP3    H133418   4.792   5.248  15.882 -0.0223 -0.4943  1.0402
 4001TIP3    H233419   4.845   5.179  15.758  0.8987  1.5570  0.2297
 4002TIP3   OH233420   6.645   2.391  13.269 -0.1196 -0.9736  0.0868
 4002TIP3    H133421   6.597   2.464  13.307  2.2647  1.4886 -1.1770
 4002TIP3    H233422   6.624   2.395  13.175  0.7012 -1.3451 -0.1226
 4003TIP3   OH233423   0.564   4.205  14.228  0.4030  0.2171 -0.2970
 4003TIP3    H133424   0.631   4.143  14.255  1.1529  1.5952  1.1854
 4003TIP3    H233425   0.596   4.290  14.258  0.0965  1.5893 -3.4531
 4004TIP3   OH233426   5.806   5.360  16.314 -0.1072  0.0982 -0.3876
 4004TIP3    H133427   5.778   5.305  16.388  1.4949 -0.2247  0.0334
 4004TIP3    H233428   5.901   5.365  16.324  0.1745 -0.1661 -2.6002
 4005TIP3   OH233429   5.165   6.116  11.579 -0.1017  0.0285 -0.2945
 4005TIP3    H133430   5.093   6.179  11.588  1.3182  1.8643 -1.1893
 4005TIP3    H233431   5.161   6.088  11.488 -0.0163 -0.2838 -0.2032
 4006TIP3   OH233432   1.271   2.571  15.459  0.0791  0.4848  1.1035
 4006TIP3    H133433   1.363   2.585  15.437  0.1824 -2.0452 -0.4349
 4006TIP3    H233434   1.225   2.584  15.376 -0.7080 -0.1304  1.4371
 4007TIP3   OH233435   3.613   4.954   3.117 -0.1696 -0.7639 -0.3596
 4007TIP3    H133436   3.647   4.949   3.206 -0.3091  0.9930 -0.1796
 4007TIP3    H233437   3.659   5.028   3.077 -1.7580 -0.0536 -0.9766
 4008TIP3   OH233438   2.203   0.955  13.065  0.8905 -0.0432 -0.5362
 4008TIP3    H133439   2.167   0.952  13.154  0.5266  0.8951 -0.6432
 4008TIP3    H233440   2.233   0.866  13.048 -0.1768 -0.5228  0.0552
 4009TIP3   OH233441   6.461   3.134   4.543  0.6362 -0.5868  0.7362
 4009TIP3    H133442   6.517   3.091   4.479  1.5508 -1.5202  2.0995
 4009TIP3    H233443   6.520   3.192   4.591  0.3704 -1.2522  1.9039
 4010TIP3   OH233444   2.079   6.267   3.716 -0.1780  0.2284  0.5783
 4010TIP3    H133445   2.005   6.280   3.774  0.6860 -1.0680  2.0432
 4010TIP3    H233446   2.155   6.266   3.773  0.8044 -0.1736 -0.6780
 4011TIP3   OH233447   3.532   5.189  11.864  0.1418  0.1495 -0.3667
 4011TIP3    H133448   3.493   5.263  11.818  2.0446  0.9164 -0.8335
 4011TIP3    H233449   3.599   5.156  11.805 -0.5015 -1.8505 -0.0679
 4012TIP3   OH233450   0.930   5.656   5.679 -0.5091 -0.2278  0.5699
 4012TIP3    H133451   0.905   5.607   5.758 -0.2680  0.3411  1.0024
 4012TIP3    H233452   0.960   5.741   5.712 -0.5676  0.0748 -0.1501
 4013TIP3   OH233453   1.750   3.596   2.582  0.3586  0.6026 -0.2577
 4013TIP3    H133454   1.711   3.570   2.498  2.4003  0.5891 -1.2544
 4013TIP3    H233455   1.779   3.513   2.621 -1.0514  0.5525  0.7509
 4014TIP3   OH233456   5.893   5.659  17.014  0.5422 -0.0000 -0.3750
 4014TIP3    H133457   5.943   5.608  16.951  0.7373 -0.6374  0.2872
 4014TIP3    H233458   5.900   5.749  16.982  1.5577 -0.1648 -0.6612
 4015TIP3   OH233459   6.233   1.814  15.792 -0.5026  0.1045  0.2757
 4015TIP3    H133460   6.306   1.871  15.818 -1.1254  0.6224  0.9411
 4015TIP3    H233461   6.159   1.845  15.844 -0.8259 -1.4266  0.7861
 4016TIP3   OH233462   1.800   6.623  16.371  0.7017  0.0939  0.0922
 4016TIP3    H133463   1.732   6.600  16.434  0.0440  1.6665  0.0159
 4016TIP3    H233464   1.807   6.547  16.314 -0.9991 -0.1030  0.1049
 4017TIP3   OH233465   4.198   5.964   2.982 -0.2306 -0.1859  0.0807
 4017TIP3    H133466   4.198   5.919   3.066  0.8955  0.5847  0.5349
 4017TIP3    H233467   4.129   5.923   2.931  0.8087 -2.4984  0.4168
 4018TIP3   OH233468   2.486   2.952  13.318  0.1492  0.1242  0.1486
 4018TIP3    H133469   2.394   2.978  13.314 -0.1256 -0.2440  2.8111
 4018TIP3    H233470   2.484   2.856  13.313  0.4818  0.1458 -0.5917
 4019TIP3   OH233471   3.233   1.648  12.089  0.2759  0.0069 -0.0836
 4019TIP3    H133472   3.271   1.727  12.051 -0.9992  0.1147 -1.2090
 4019TIP3    H233473   3.263   1.576  12.032 -0.7595  0.0358 -0.6926
 4020TIP3   OH233474   5.425   4.213  15.574 -0.0438  0.0657  0.3659
 4020TIP3    H133475   5.398   4.201  15.665 -0.6496 -1.1177  0.0474
 4020TIP3    H233476   5.346   4.193  15.523  0.1307  1.2410 -0.4105
 4021TIP3   OH233477   5.536   1.833   5.510 -0.1778  0.2944 -0.1254
 4021TIP3    H133478   5.595   1.905   5.533 -1.7388  1.6948 -0.3764
 4021TIP3    H233479   5.568   1.759   5.562  0.4387  1.6168  1.4583
 4022TIP3   OH233480   5.816   0.383  16.391  0.8095  0.1882  0.4166
 4022TIP3    H133481   5.878   0.397  16.319 -0.9917 -1.5300 -1.5849
 4022TIP3    H233482   5.798   0.471  16.424  2.5646  0.9219 -0.4192
 4023TIP3   OH233483   4.387   0.783   2.574 -0.2682  0.1553  0.8375
 4023TIP3    H133484   4.361   0.692   2.559 -1.8595  0.9588 -1.9967
 4023TIP3    H233485   4.339   0.809   2.653  0.6340 -1.5673  1.9958
 4024TIP3   OH233486   5.795   5.532  11.101 -0.2000 -0.0880 -0.5938
 4024TIP3    H133487   5.737   5.572  11.035  0.2460 -0.9453 -1.5365
 4024TIP3    H233488   5.841   5.463  11.053  0.3194 -0.5713  0.5733
 4025TIP3   OH233489   1.554   3.604  16.040  0.0928  0.2496  0.5708
 4025TIP3    H133490   1.578   3.691  16.009  0.1454  0.6028  1.5863
 4025TIP3    H233491   1.497   3.619  16.115 -1.6718 -0.5793 -0.5125
 4026TIP3   OH233492   5.514   2.326  14.116  0.4654 -0.4880 -0.0087
 4026TIP3    H133493   5.430   2.371  14.104 -0.0993 -1.6136 -0.4507
 4026TIP3    H233494   5.554   2.370  14.191  0.0409  0.8714 -0.5401
 4027TIP3   OH233495   4.200   5.395   1.794  0.1321 -0.3061  0.0758
 4027TIP3    H133496   4.201   5.302   1.773  2.5116 -0.2302 -0.4071
 4027TIP3    H233497   4.199   5.399   1.889 -0.6125 -0.8028  0.0923
 4028TIP3   OH233498   4.809   0.703   1.614 -0.3229  0.6573 -0.1436
 4028TIP3    H133499   4.850   0.770   1.559  0.6371  0.5348  0.4028
 4028TIP3    H233500   4.736   0.748   1.656 -1.7830  0.4895 -2.2952
 4029TIP3   OH233501   1.260   0.512   1.431 -0.2002 -0.1389  0.4449
 4029TIP3    H133502   1.250   0.429   1.479 -0.5138 -0.1845  0.3036
 4029TIP3    H233503   1.333   0.496   1.371  0.5771  0.1138  1.3143
 4030TIP3   OH233504   1.588   2.576  11.092  0.1165  0.6509 -0.1922
 4030TIP3    H133505   1.616   2.591  11.002 -0.0753  2.2424 -0.0159
 4030TIP3    H233506   1.668   2.584  11.144  0.4181 -1.2849 -0.2733
 4031TIP3   OH233507   5.960   2.829   1.580  0.0671  0.6006 -0.4152
 4031TIP3    H133508   5.930   2.920   1.585  0.7391  0.9178 -1.8150
 4031TIP3    H233509   5.984   2.807   1.671  1.1303  2.2609 -0.2516
 4032TIP3   OH233510   1.862   3.177   5.891  0.1366 -0.5324  0.4545
 4032TIP3    H133511   1.815   3.212   5.816  0.2665 -1.3748 -0.0356
 4032TIP3    H233512   1.795   3.162   5.957  0.0003  0.0639  0.4596
 4033TIP3   OH233513   0.129   0.548   5.085 -0.1650 -0.2242 -0.0483
 4033TIP3    H133514   0.061   0.592   5.136 -0.3490  0.4960 -0.9128
 4033TIP3    H233515   0.162   0.614   5.025 -1.3176 -1.5577 -2.2535
 4034TIP3   OH233516   0.887   4.995   0.275 -0.2434 -0.3718 -0.5326
 4034TIP3    H133517   0.848   4.968   0.358  0.3806 -3.1888 -1.0510
 4034TIP3    H233518   0.840   5.074   0.251  0.5571  1.4418  3.1753
 4035TIP3   OH233519   6.397   3.649  13.605  0.3904 -0.4547  0.0548
 4035TIP3    H133520   6.391   3.637  13.510  1.4608  1.5598 -0.3251
 4035TIP3    H233521   6.318   3.697  13.628  0.6087 -0.0676  0.0058
 4036TIP3   OH233522   0.085   0.862  12.660 -0.1171  0.5181 -0.1502
 4036TIP3    H133523   0.010   0.914  12.631 -0.8925  0.1929  1.1711
 4036TIP3    H233524   0.129   0.835  12.579 -1.8536  0.1023 -0.9924
 4037TIP3   OH233525   1.600   5.809  11.631  0.1210 -0.0627 -0.0100
 4037TIP3    H133526   1.639   5.792  11.546  0.0936 -1.3302  0.2229
 4037TIP3    H233527   1.655   5.878  11.669  1.9104 -1.5196  0.1581
 4038TIP3   OH233528   2.886   2.829   5.651 -0.0799  0.5583  0.0696
 4038TIP3    H133529   2.828   2.831   5.727  0.6171 -1.2604  0.7077
 4038TIP3    H233530   2.847   2.891   5.590 -1.9358  0.3859  0.9959
 4039TIP3   OH233531   2.930   5.858   1.802  0.8233  0.4054  0.0374
 4039TIP3    H133532   2.877   5.795   1.851  1.5421 -0.0138  0.2875
 4039TIP3    H233533   3.020   5.831   1.818  1.1540  1.5866  0.2629
 4040TIP3   OH233534   1.008   3.069   1.966  0.0365  0.4450  0.0849
 4040TIP3    H133535   0.930   3.034   1.923  0.0464 -0.6394  0.8864
 4040TIP3    H233536   1.032   3.001   2.029  1.0111  1.2364  0.5889
 4041TIP3   OH233537   6.518   1.556  10.334 -0.4440  0.2664  0.1076
 4041TIP3    H133538   6.510   1.557  10.239 -0.5243  1.8275  0.1107
 4041TIP3    H233539   6.532   1.648  10.359  1.3623 -0.2887  1.4501
 4042TIP3   OH233540   4.451   4.790   1.947  0.1065 -0.6990 -0.0602
 4042TIP3    H133541   4.521   4.736   1.909 -2.0255 -3.0919 -0.8863
 4042TIP3    H233542   4.371   4.739   1.932 -1.8373  1.8704  0.8867
 4043TIP3   OH233543   2.717   4.838  15.783  0.1616  0.4123 -0.1362
 4043TIP3    H133544   2.661   4.916  15.784  2.0903  1.8562  0.0664
 4043TIP3    H233545   2.788   4.859  15.723  2.4183  0.1068  2.2339
 4044TIP3   OH233546   2.191   0.221   3.825 -0.7199  0.0628 -0.1221
 4044TIP3    H133547   2.267   0.245   3.877 -1.0069 -0.1598  0.4035
 4044TIP3    H233548   2.177   0.128   3.843 -0.9033  0.0144 -0.4953
 4045TIP3   OH233549   0.250   5.757  16.583 -0.6255 -0.1851  0.4091
 4045TIP3    H133550   0.268   5.851  16.571 -2.0258  0.0252 -0.3007
 4045TIP3    H233551   0.159   5.755  16.614 -1.3980 -1.3829 -1.7582
 4046TIP3   OH233552   1.264   2.725  16.217  0.0113  0.4529  0.3484
 4046TIP3    H133553   1.306   2.806  16.246  1.1963  0.8017 -2.0728
 4046TIP3    H233554   1.249   2.738  16.124  0.4456 -2.2027 -0.1732
 4047TIP3   OH233555   4.465   1.697  12.288  0.6147 -0.1684  0.1420
 4047TIP3    H133556   4.514   1.758  12.233 -0.6712  0.5152 -0.2922
 4047TIP3    H233557   4.524   1.678  12.362  0.8154  2.1230  0.6454
 4048TIP3   OH233558   6.703   1.119  16.142  0.3416  0.1103  0.2908
 4048TIP3    H133559   6.740   1.037  16.175  2.5657  0.8191 -0.3021
 4048TIP3    H233560   6.627   1.135  16.198 -0.0149 -2.2159  0.5659
 4049TIP3   OH233561   6.170   6.615  13.011  0.2734  0.0556  0.7231
 4049TIP3    H133562   6.237   6.663  12.961 -0.1147  1.4376  1.4805
 4049TIP3    H233563   6.179   6.525  12.981  1.1429  0.5529 -0.6460
 4050TIP3   OH233564   1.093   5.121  16.011 -0.5532  0.2859 -0.6088
 4050TIP3    H133565   1.019   5.170  16.046  0.2482  1.1538 -0.0819
 4050TIP3    H233566   1.163   5.186  16.002  0.2730 -0.5922 -0.6942
 4051TIP3   OH233567   0.835   5.218   1.162 -1.0068 -0.1874 -0.4810
 4051TIP3    H133568   0.834   5.288   1.228 -1.5290 -0.4932 -0.1519
 4051TIP3    H233569   0.835   5.137   1.213  1.8559 -0.4891 -0.8193
 4052TIP3   OH233570   4.104   6.003  15.670 -0.3166  0.0838  0.0723
 4052TIP3    H133571   4.122   5.966  15.757 -0.1650 -0.6351 -0.2614
 4052TIP3    H233572   4.182   6.054  15.649 -0.3745  0.3017  0.3794
 4053TIP3   OH233573   4.321   3.478  14.372  0.6089 -0.0381 -0.2897
 4053TIP3    H133574   4.414   3.488  14.389  0.4638  0.8053  0.0450
 4053TIP3    H233575   4.313   3.488  14.277  0.8889 -0.3652 -0.3484
 4054TIP3   OH233576   1.614   4.401  16.101  0.8111  0.5476  0.3427
 4054TIP3    H133577   1.557   4.438  16.168 -0.1874  0.3958 -0.3995
 4054TIP3    H233578   1.698   4.444  16.114  0.1698  1.7371  0.6391
 4055TIP3   OH233579   0.947   3.868  14.524 -0.3348 -0.0771 -0.3561
 4055TIP3    H133580   0.995   3.786  14.508 -1.5932 -0.8006 -0.5547
 4055TIP3    H233581   0.950   3.914  14.440 -1.5498 -0.9883 -0.9423
 4056TIP3   OH233582   4.485   0.998  11.582 -0.4680 -0.0079 -0.6375
 4056TIP3    H133583   4.502   0.905  11.568 -0.1840 -0.1251  0.3634
 4056TIP3    H233584   4.397   1.001  11.619  0.7205 -0.2447  2.5403
 4057TIP3   OH233585   5.780   3.067  16.239  0.2486 -0.4893  0.0390
 4057TIP3    H133586   5.867   3.077  16.201 -0.3195 -0.0204 -1.1989
 4057TIP3    H233587   5.738   2.999  16.187 -0.3832 -0.1794  0.1223
 4058TIP3   OH233588   4.904   5.689  13.846  0.1151  0.4388 -0.3587
 4058TIP3    H133589   4.913   5.733  13.762  0.0339 -0.6209 -0.9286
 4058TIP3    H233590   4.841   5.743  13.894  0.6020  1.3760 -0.7360
 4059TIP3   OH233591   1.092   5.140   4.785 -0.1019 -0.0570 -0.4037
 4059TIP3    H133592   1.096   5.224   4.832 -0.4355  0.7178 -1.7029
 4059TIP3    H233593   1.142   5.156   4.704  2.3394 -2.0091  0.5860
 4060TIP3   OH233594   0.945   0.355  12.749  0.6605  0.1000  0.1592
 4060TIP3    H133595   0.860   0.399  12.736  1.5517  1.5761 -0.9285
 4060TIP3    H233596   0.972   0.382  12.836  0.8288  1.0946 -0.1918
 4061TIP3   OH233597   6.423   5.257   3.945  0.0497 -0.0382 -0.2607
 4061TIP3    H133598   6.364   5.252   3.870 -1.0698  1.1458  0.4941
 4061TIP3    H233599   6.435   5.351   3.959 -0.0783 -0.2333  1.2604
 4062TIP3   OH233600   2.872   5.499  15.268  0.1703 -0.7992  0.0795
 4062TIP3    H133601   2.912   5.417  15.297  0.2039 -0.9918 -0.5082
 4062TIP3    H233602   2.778   5.483  15.278  0.2083 -0.1577  1.9780
 4063TIP3   OH233603   1.124   3.741   4.664 -0.2698 -0.2790  0.1793
 4063TIP3    H133604   1.047   3.797   4.655 -0.4250 -0.0614  2.3988
 4063TIP3    H233605   1.147   3.718   4.574 -2.0310  0.8457 -0.6166
 4064TIP3   OH233606   2.814   4.304  10.740  0.1948 -0.5601  0.1553
 4064TIP3    H133607   2.757   4.354  10.681  0.4670  0.0345  0.3864
 4064TIP3    H233608   2.875   4.260  10.682 -1.2754 -2.2564 -0.1993
 4065TIP3   OH233609   0.608   6.308   2.721 -0.1344 -0.5510 -0.1800
 4065TIP3    H133610   0.642   6.392   2.689  0.4556 -1.1864 -1.3078
 4065TIP3    H233611   0.656   6.293   2.803 -2.3320  1.5476  1.6386
 4066TIP3   OH233612   2.469   0.424  11.905 -0.0102 -0.2842 -0.2076
 4066TIP3    H133613   2.480   0.363  11.978 -2.5509 -1.1128 -0.3916
 4066TIP3    H233614   2.502   0.376  11.829 -0.6979 -0.9042 -0.1299
 4067TIP3   OH233615   5.254   2.455   3.105 -0.0451  0.3869 -0.2870
 4067TIP3    H133616   5.342   2.486   3.125 -0.3238  1.1700 -0.2652
 4067TIP3    H233617   5.211   2.529   3.062 -0.0301 -0.6532 -2.2064
 4068TIP3   OH233618   2.141   3.591  12.979 -0.3039 -0.5701 -0.2012
 4068TIP3    H133619   2.125   3.683  13.002  1.4741 -0.3421  0.3349
 4068TIP3    H233620   2.236   3.586  12.968 -0.6195 -1.5395 -3.8455
 4069TIP3   OH233621   2.516   1.215   3.447 -0.1169 -0.2749 -0.3489
 4069TIP3    H133622   2.535   1.161   3.524  0.8656  0.0267 -0.3608
 4069TIP3    H233623   2.591   1.202   3.389 -0.5050  0.0588 -0.9419
 4070TIP3   OH233624   6.780   4.929  14.009 -0.8011 -0.7216  0.2398
 4070TIP3    H133625   6.795   4.996  14.075  0.8742 -0.6740 -0.1374
 4070TIP3    H233626   6.758   4.978  13.929 -0.8410 -0.6858  0.2729
 4071TIP3   OH233627   3.602   0.344  15.342 -0.2223 -0.0821 -0.1927
 4071TIP3    H133628   3.542   0.296  15.398 -0.2979 -1.0908 -1.1026
 4071TIP3    H233629   3.690   0.319  15.371 -0.2559  0.1114  0.0718
 4072TIP3   OH233630   2.548   2.478  16.085 -0.4509  0.2241 -0.1021
 4072TIP3    H133631   2.472   2.521  16.046 -0.9197  0.3630  0.9351
 4072TIP3    H233632   2.518   2.449  16.171 -0.3393 -2.7894 -0.9907
 4073TIP3   OH233633   4.101   1.502   6.492 -0.6214  0.5036 -0.8890
 4073TIP3    H133634   4.195   1.485   6.491 -0.6119  0.1686  1.2082
 4073TIP3    H233635   4.061   1.415   6.487 -0.7760  0.5313 -0.2223
 4074TIP3   OH233636   2.147   1.284   0.451 -0.4866 -0.6480  0.4806
 4074TIP3    H133637   2.087   1.229   0.501  0.3548  0.3821  2.7875
 4074TIP3    H233638   2.232   1.241   0.461 -0.2507 -0.2523  0.2128
 4075TIP3   OH233639   1.758   4.209   4.027  0.1119  0.0931 -0.0814
 4075TIP3    H133640   1.713   4.179   3.948 -0.2776 -0.3897  0.3191
 4075TIP3    H233641   1.727   4.151   4.096 -1.0911  1.7264  0.8331
 4076TIP3   OH233642   5.087   2.693   5.214  0.1530  0.3211 -0.0269
 4076TIP3    H133643   5.044   2.778   5.210 -0.8871 -0.2093 -0.8099
 4076TIP3    H233644   5.180   2.713   5.223 -0.0606  1.5430 -0.3646
 4077TIP3   OH233645   6.364   4.795   4.878  0.1507 -0.1990  0.7004
 4077TIP3    H133646   6.407   4.793   4.792 -1.4875 -1.1325 -0.1388
 4077TIP3    H233647   6.394   4.714   4.921 -0.3371 -0.5881  0.3205
 4078TIP3   OH233648   3.712   6.042  14.980 -0.3071 -0.1223  0.1443
 4078TIP3    H133649   3.637   6.003  14.935 -0.4148  0.6951 -0.3862
 4078TIP3    H233650   3.765   6.081  14.911  0.6975 -0.8187  0.4982
 4079TIP3   OH233651   6.620   6.405   3.927 -0.5307  0.9327  0.1523
 4079TIP3    H133652   6.524   6.410   3.921 -0.6582 -1.3454 -1.4582
 4079TIP3    H233653   6.650   6.433   3.841 -0.2233 -3.4137 -1.4044
 4080TIP3   OH233654   4.004   3.318   4.095  0.3505  0.1994  0.4909
 4080TIP3    H133655   4.043   3.242   4.137  0.9884 -0.7644 -1.6649
 4080TIP3    H233656   3.988   3.290   4.005 -2.0311  1.7368  0.3296
 4081TIP3   OH233657   1.849   6.099  14.938  0.1058  0.1751 -0.6923
 4081TIP3    H133658   1.792   6.094  15.015 -0.6860  0.3387 -1.2561
 4081TIP3    H233659   1.793   6.133  14.869  0.7119 -0.3095 -1.4384
 4082TIP3   OH233660   4.666   1.080  10.709 -0.6858  0.1378  0.3640
 4082TIP3    H133661   4.750   1.039  10.731 -1.1537 -1.3197 -0.4420
 4082TIP3    H233662   4.690   1.151  10.650 -0.0922 -1.5376 -1.5478
 4083TIP3   OH233663   4.476   6.329  16.665  0.3654 -0.1206  0.0478
 4083TIP3    H133664   4.447   6.412  16.702  1.3055 -0.5686  1.9105
 4083TIP3    H233665   4.495   6.349  16.573 -0.3600  1.4771  0.2174
 4084TIP3   OH233666   0.478   0.276  12.704  0.2691 -0.5604 -0.2936
 4084TIP3    H133667   0.438   0.192  12.682  0.3328 -0.6115 -0.2138
 4084TIP3    H233668   0.500   0.269  12.796  0.0563 -0.3665 -0.2278
 4085TIP3   OH233669   6.610   4.978  15.339  0.1287 -0.0255 -0.2342
 4085TIP3    H133670   6.665   5.019  15.406 -0.7457  0.4938  0.1849
 4085TIP3    H233671   6.583   5.050  15.283 -0.7760 -0.1367  0.0422
 4086TIP3   OH233672   1.663   1.658  11.248  0.6440 -0.0071  0.2817
 4086TIP3    H133673   1.584   1.609  11.224  0.6934  0.5354 -1.0359
 4086TIP3    H233674   1.711   1.599  11.305 -0.3567 -0.6340  0.5061
 4087TIP3   OH233675   1.146   6.778   0.580  0.7601  0.2231 -0.0362
 4087TIP3    H133676   1.124   6.870   0.595 -1.2252 -0.4353  1.4999
 4087TIP3    H233677   1.234   6.780   0.542  0.7254  2.7407 -0.1225
 4088TIP3   OH233678   6.739   3.574  16.005  0.4138 -1.0592  0.6083
 4088TIP3    H133679   6.713   3.661  16.037  0.7101 -0.9959  0.6886
 4088TIP3    H233680   6.676   3.553  15.937  0.8186 -0.4250  0.0291
 4089TIP3   OH233681   4.240   5.073   0.938  0.3633  0.1377 -0.0469
 4089TIP3    H133682   4.212   5.160   0.967  1.8672 -0.1860  2.8296
 4089TIP3    H233683   4.334   5.081   0.926  0.0735 -0.2524 -3.5525
 4090TIP3   OH233684   1.239   4.251  15.978  0.2556  0.3665 -0.5856
 4090TIP3    H133685   1.246   4.207  15.893  4.3231  0.3972 -0.4410
 4090TIP3    H233686   1.321   4.232  16.022 -0.9292  1.9691  2.6019
 4091TIP3   OH233687   3.144   5.713  16.522 -0.1437 -0.3988  0.1972
 4091TIP3    H133688   3.146   5.731  16.428  0.0374  0.3211  0.3391
 4091TIP3    H233689   3.072   5.766  16.556 -0.4834 -0.9737  0.4083
 4092TIP3   OH233690   2.951   2.884  15.636 -0.1961 -0.8901 -0.5924
 4092TIP3    H133691   2.862   2.898  15.605 -0.2376 -0.2433 -0.1771
 4092TIP3    H233692   3.007   2.920  15.567 -0.2552 -1.0296 -0.7142
 4093TIP3   OH233693   6.598   3.291   0.217 -0.3784 -0.7849  0.1637
 4093TIP3    H133694   6.512   3.269   0.253 -0.1659 -0.7936  0.6670
 4093TIP3    H233695   6.648   3.324   0.292 -0.4374  0.6751 -0.4000
 4094TIP3   OH233696   6.145   1.617  13.818  0.3303  0.1873 -0.1920
 4094TIP3    H133697   6.194   1.552  13.768  0.4098  0.2819 -0.2374
 4094TIP3    H233698   6.054   1.586  13.814  0.3856  0.0085 -0.1014
 4095TIP3   OH233699   0.107   5.157   6.133 -0.1006  0.0540 -0.4769
 4095TIP3    H133700   0.018   5.192   6.134 -0.1619 -0.0444  1.7621
 4095TIP3    H233701   0.096   5.063   6.124  0.0057  0.2539 -4.5159
 4096TIP3   OH233702   0.894   1.578  11.595 -0.3918 -0.2036  0.7814
 4096TIP3    H133703   0.819   1.519  11.596 -0.2105 -0.4574 -0.2038
 4096TIP3    H233704   0.971   1.520  11.598 -0.2196 -0.0225  0.1171
 4097TIP3   OH233705   6.730   0.267   3.018  0.3439  0.0424  0.1839
 4097TIP3    H133706   6.734   0.200   2.949  0.6686 -1.2349  1.3790
 4097TIP3    H233707   6.773   0.226   3.093 -1.5205  0.6843  1.7026
 4098TIP3   OH233708   6.439   6.162  14.394  0.0827 -0.8662  0.2633
 4098TIP3    H133709   6.395   6.193  14.473 -0.3157 -0.8347  0.0326
 4098TIP3    H233710   6.528   6.141  14.422 -1.0878 -4.8458  1.7122
 4099TIP3   OH233711   0.698   1.547   3.245  0.1870  0.0901  0.3804
 4099TIP3    H133712   0.621   1.504   3.210  0.8145  0.4247 -1.5621
 4099TIP3    H233713   0.673   1.639   3.252 -0.4727 -0.2193  2.4897
 4100TIP3   OH233714   2.986   2.280  14.307  0.0387 -0.1487  0.4406
 4100TIP3    H133715   3.007   2.359  14.356  0.4106 -0.5229  0.9067
 4100TIP3    H233716   3.062   2.267  14.250 -0.2379  0.0947  0.0157
 4101TIP3   OH233717   4.498   6.725  16.099  0.5642  0.1551  0.1685
 4101TIP3    H133718   4.514   6.771  16.017  1.5121 -0.8559 -0.2299
 4101TIP3    H233719   4.505   6.632  16.076 -2.7355 -0.3303  0.6274
 4102TIP3   OH233720   0.143   0.699  11.401  0.4656 -0.5075 -0.0994
 4102TIP3    H133721   0.173   0.753  11.474  0.3078 -0.8664  0.2319
 4102TIP3    H233722   0.053   0.727  11.387  0.5729 -0.2668 -0.3189
 4103TIP3   OH233723   0.176   2.395  16.784  0.2131 -0.2295  0.0270
 4103TIP3    H133724   0.105   2.411  16.845  0.2705  0.4437 -0.0796
 4103TIP3    H233725   0.163   2.458  16.713  1.4063  0.5116  0.4340
 4104TIP3   OH233726   1.280   0.497  14.774  0.8699 -0.8047  0.5061
 4104TIP3    H133727   1.290   0.576  14.827  0.7093  0.3593 -1.1263
 4104TIP3    H233728   1.189   0.471  14.786 -0.0534  1.1910 -1.4106
 4105TIP3   OH233729   5.982   1.668  12.856  0.1674  0.1315  0.0275
 4105TIP3    H133730   5.998   1.762  12.865 -1.3042  0.3649  0.5825
 4105TIP3    H233731   5.887   1.659  12.866  0.2838 -1.4175  0.0109
 4106TIP3   OH233732   6.723   0.804  14.386  0.0073  0.1478  0.1750
 4106TIP3    H133733   6.800   0.859  14.371 -0.3255  0.6475  0.2907
 4106TIP3    H233734   6.660   0.862  14.428 -0.4469 -0.2567  0.0553
 4107TIP3   OH233735   1.539   2.086   5.107  0.2176  0.7432 -0.6580
 4107TIP3    H133736   1.618   2.044   5.074 -0.4143 -0.6786 -0.4325
 4107TIP3    H233737   1.481   2.093   5.031  0.4852  1.6708 -0.7962
 4108TIP3   OH233738   1.396   5.372   1.880 -0.1129 -0.7180  0.0551
 4108TIP3    H133739   1.428   5.453   1.920 -0.0746 -0.7615  0.1128
 4108TIP3    H233740   1.371   5.397   1.791  0.8638 -0.8489 -0.2741
 4109TIP3   OH233741   0.811   5.987  13.494 -0.1574  0.1208 -0.2077
 4109TIP3    H133742   0.760   6.067  13.512 -0.4692  0.2338 -1.4844
 4109TIP3    H233743   0.746   5.924  13.463 -0.3284 -1.5063  3.0954
 4110TIP3   OH233744   1.943   1.339  15.480  0.0120  0.0825 -0.0387
 4110TIP3    H133745   1.980   1.419  15.516 -2.2242  0.8337  0.7737
 4110TIP3    H233746   1.976   1.269  15.538 -0.9973  0.9008  1.5898
 4111TIP3   OH233747   0.275   5.764  14.558 -0.4747  0.2417 -0.3059
 4111TIP3    H133748   0.311   5.691  14.608 -0.1635  1.0917  0.7437
 4111TIP3    H233749   0.222   5.812  14.621  1.4088  2.3857 -0.2351
 4112TIP3   OH233750   3.211   6.482   1.942 -0.4598  0.1640  0.0267
 4112TIP3    H133751   3.147   6.546   1.975 -0.3910  1.8801 -2.7848
 4112TIP3    H233752   3.159   6.402   1.929 -1.4237  0.7207  0.2979
 4113TIP3   OH233753   3.339   4.291  16.373  0.1475 -0.3407  0.3708
 4113TIP3    H133754   3.420   4.335  16.399 -0.5652  1.3182 -0.0361
 4113TIP3    H233755   3.276   4.316  16.440 -0.5669  0.2442 -0.4983
 4114TIP3   OH233756   1.104   2.363   2.500 -0.0522 -0.4599 -0.1708
 4114TIP3    H133757   1.093   2.373   2.594 -0.5644  0.3350 -0.3085
 4114TIP3    H233758   1.196   2.386   2.484  0.1455 -0.9909  0.1772
 4115TIP3   OH233759   6.350   3.397  13.696 -0.0110  0.5273  0.0575
 4115TIP3    H133760   6.272   3.425  13.744  0.3057  1.1946  0.2011
 4115TIP3    H233761   6.380   3.477  13.652  0.6850  0.3183  0.1424
 4116TIP3   OH233762   1.808   4.739   4.683 -0.2420 -0.4334  0.6330
 4116TIP3    H133763   1.872   4.680   4.644  0.3853 -0.7208  2.0405
 4116TIP3    H233764   1.859   4.794   4.742 -1.0594  0.4592  0.5390
 4117TIP3   OH233765   4.003   4.272   1.177  0.2094  0.2162 -0.6164
 4117TIP3    H133766   4.020   4.183   1.207 -0.2360  0.7781  1.4214
 4117TIP3    H233767   3.913   4.269   1.142  0.7709 -0.4619 -2.1057
 4118TIP3   OH233768   1.320   1.160   6.087  0.1268 -0.4940  0.0847
 4118TIP3    H133769   1.227   1.148   6.110  0.0396  1.7523  1.1706
 4118TIP3    H233770   1.365   1.089   6.134 -0.7491  0.3154  2.2861
 4119TIP3   OH233771   2.291   3.581   3.694 -0.3983 -0.1111  0.1761
 4119TIP3    H133772   2.261   3.639   3.764 -0.4698 -1.1643  1.0607
 4119TIP3    H233773   2.342   3.514   3.739 -0.4465 -0.8194 -0.7836
 4120TIP3   OH233774   2.967   1.571  15.174  0.0792  0.0342 -0.1517
 4120TIP3    H133775   2.968   1.522  15.092  1.2220 -2.3626  1.1694
 4120TIP3    H233776   3.057   1.564  15.207 -0.4581  0.4840  1.5153
 4121TIP3   OH233777   4.112   1.825   4.064 -0.0557 -0.3835  0.5069
 4121TIP3    H133778   4.036   1.849   4.117 -0.1384  0.8797 -0.1286
 4121TIP3    H233779   4.156   1.909   4.047  0.2245 -0.8107 -1.0133
 4122TIP3   OH233780   0.874   4.680  16.707 -0.8343 -0.3354 -0.2527
 4122TIP3    H133781   0.950   4.622  16.711 -0.8004 -0.4897 -2.2357
 4122TIP3    H233782   0.866   4.714  16.796  1.8855  0.1091 -0.0809
 4123TIP3   OH233783   6.011   0.316  13.451  0.1116  0.0856  0.0130
 4123TIP3    H133784   6.055   0.401  13.452  3.4685 -1.4934  0.3526
 4123TIP3    H233785   6.016   0.286  13.360  1.5484 -0.9180  0.3921
 4124TIP3   OH233786   2.312   2.156  12.065  0.1619 -0.2274  0.3062
 4124TIP3    H133787   2.343   2.066  12.066  0.5470 -0.1723 -1.8805
 4124TIP3    H233788   2.217   2.149  12.054  0.4680 -0.5434 -4.1756
 4125TIP3   OH233789   4.346   4.318  14.467 -0.3281  0.6613  0.0461
 4125TIP3    H133790   4.394   4.311  14.549 -2.0548  0.6297  1.1229
 4125TIP3    H233791   4.259   4.282  14.488 -0.7735  0.5468 -1.8304
 4126TIP3   OH233792   4.748   3.531   3.544  0.0385 -0.0938  0.5742
 4126TIP3    H133793   4.784   3.484   3.619 -1.0468  0.4198  1.4504
 4126TIP3    H233794   4.749   3.467   3.473  2.4917 -0.1459  0.5705
 4127TIP3   OH233795   3.881   0.973  16.754 -0.1408 -0.5768  0.2404
 4127TIP3    H133796   3.952   1.037  16.756  1.0863 -1.9090  1.5949
 4127TIP3    H233797   3.873   0.948  16.662  0.1439  0.6562 -0.1334
 4128TIP3   OH233798   6.732   3.982   3.539 -0.7293 -0.2941  0.6919
 4128TIP3    H133799   6.822   3.970   3.510 -0.9134  0.8987 -0.4839
 4128TIP3    H233800   6.688   4.022   3.464 -1.6210  1.4499  2.0684
 4129TIP3   OH233801   4.849   3.687  13.844 -0.4998 -0.1684 -0.4273
 4129TIP3    H133802   4.860   3.592  13.847  3.6671  0.1538  0.5760
 4129TIP3    H233803   4.827   3.706  13.752 -2.0744 -2.0669 -0.5029
 4130TIP3   OH233804   5.897   3.797   5.963 -0.1885 -0.6374  0.7353
 4130TIP3    H133805   5.806   3.789   5.991 -0.6388  2.3127  0.4212
 4130TIP3    H233806   5.941   3.840   6.037  0.1371  0.9812 -0.3297
 4131TIP3   OH233807   3.113   3.015   5.614 -0.2566  0.0902  0.7759
 4131TIP3    H133808   3.144   3.092   5.661 -1.0134  0.9087 -0.0035
 4131TIP3    H233809   3.021   3.008   5.637 -0.2931 -0.3325  0.5180
 4132TIP3   OH233810   3.977   4.634  13.771 -0.4113 -0.5032  1.0143
 4132TIP3    H133811   4.052   4.609  13.718 -0.5656 -0.0970  0.5987
 4132TIP3    H233812   4.007   4.626  13.861 -0.0947 -1.0364  0.8621
 4133TIP3   OH233813   0.528   5.431  15.733 -0.0338  0.0908 -0.0485
 4133TIP3    H133814   0.581   5.408  15.809  1.1046 -0.2840 -0.9259
 4133TIP3    H233815   0.448   5.379  15.742 -0.3566  0.7921  1.3860
 4134TIP3   OH233816   2.088   4.646  14.944  0.2567  0.1096  0.2684
 4134TIP3    H133817   2.045   4.564  14.969 -1.4408  0.7172 -0.5103
 4134TIP3    H233818   2.153   4.620  14.879  2.3607 -1.0447  2.6501
 4135TIP3   OH233819   2.243   0.583  15.092  0.0299  0.2472 -0.0957
 4135TIP3    H133820   2.257   0.587  14.997 -1.3395  0.5356 -0.3055
 4135TIP3    H233821   2.156   0.545  15.102 -0.6336  1.9248  0.9717
 4136TIP3   OH233822   0.588   5.005  16.631  0.0756 -0.3783 -0.0913
 4136TIP3    H133823   0.618   4.914  16.631 -0.8496 -0.7254  1.6788
 4136TIP3    H233824   0.547   5.016  16.545  3.8661 -0.2740 -2.0884
 4137TIP3   OH233825   1.025   0.988  15.398 -0.0137 -0.4973 -0.7291
 4137TIP3    H133826   0.977   1.070  15.411 -0.6555 -0.7388 -1.5614
 4137TIP3    H233827   1.019   0.971  15.304  1.0950 -0.9068 -0.7361
 4138TIP3   OH233828   6.615   0.894   3.837 -0.1764  0.1448 -0.0107
 4138TIP3    H133829   6.523   0.913   3.857 -0.3553 -1.4874  0.8623
 4138TIP3    H233830   6.652   0.979   3.812 -1.7598  0.9429  0.2259
 4139TIP3   OH233831   1.106   1.925  16.028  0.3931  0.1428 -0.3158
 4139TIP3    H133832   1.140   2.011  16.004  0.1294  0.2106 -0.4491
 4139TIP3    H233833   1.011   1.938  16.037  0.3104 -0.2017 -0.6511
 4140TIP3   OH233834   2.158   1.091   0.209 -0.0684  0.2627 -0.4818
 4140TIP3    H133835   2.097   1.059   0.275  2.1781 -0.7038  1.2533
 4140TIP3    H233836   2.173   1.183   0.233 -0.3189  0.3174 -0.5247
 4141TIP3   OH233837   6.762   5.426   6.643  0.4000 -0.4282  0.3111
 4141TIP3    H133838   6.685   5.475   6.671  0.6083  0.5203 -0.6866
 4141TIP3    H233839   6.830   5.450   6.707  0.0348 -0.7905  0.8389
 4142TIP3   OH233840   6.522   4.095  15.928  0.2538 -0.4464 -0.3361
 4142TIP3    H133841   6.429   4.102  15.908  0.1688 -1.0398 -0.1794
 4142TIP3    H233842   6.525   4.065  16.019  0.6068  0.1191 -0.1562
 4143TIP3   OH233843   4.125   4.406  11.191  0.5018  0.1484  0.2500
 4143TIP3    H133844   4.216   4.379  11.204  0.3274 -0.0276  1.1334
 4143TIP3    H233845   4.084   4.332  11.146  1.1046  0.7635 -1.3961
 4144TIP3   OH233846   2.083   4.794   4.756  0.1466 -0.0278  0.6537
 4144TIP3    H133847   2.119   4.730   4.694  0.7147 -0.1335  1.0856
 4144TIP3    H233848   2.143   4.791   4.831 -0.4984  0.1440  1.1823
 4145TIP3   OH233849   1.063   5.490  15.561 -0.4636 -0.0947  0.5838
 4145TIP3    H133850   0.993   5.454  15.615 -0.5267  0.5655  0.9467
 4145TIP3    H233851   1.042   5.583  15.551  0.7098  0.2745  1.2858
 4146TIP3   OH233852   5.905   6.214   2.445 -0.0085  0.9655  0.1030
 4146TIP3    H133853   5.894   6.304   2.475  1.4081  0.7890  1.2634
 4146TIP3    H233854   5.871   6.161   2.516 -1.6575  0.5501 -0.9452
 4147TIP3   OH233855   0.294   5.533  16.444 -0.3046 -0.4481  0.6213
 4147TIP3    H133856   0.284   5.622  16.477 -1.8184 -0.1648 -0.4661
 4147TIP3    H233857   0.229   5.482  16.493 -1.6961 -0.2676 -0.9262
 4148TIP3   OH233858   6.191   5.930   0.115  0.4501 -0.4416 -0.0583
 4148TIP3    H133859   6.140   5.973   0.047 -0.5054 -0.8033  0.4229
 4148TIP3    H233860   6.184   5.836   0.095  2.7166 -0.4542 -1.2483
 4149TIP3   OH233861   1.046   5.650  14.071  0.1417 -0.3387  0.4240
 4149TIP3    H133862   1.129   5.671  14.113 -1.0054  0.0207  2.7355
 4149TIP3    H233863   1.008   5.582  14.128 -0.4736 -1.6464 -1.4690
 4150TIP3   OH233864   2.707   4.457  16.845  0.1393 -0.1222 -0.1026
 4150TIP3    H133865   2.688   4.548  16.867 -1.0618 -0.2503 -0.5550
 4150TIP3    H233866   2.645   4.406  16.897  0.6116 -0.6777 -0.0658
 4151TIP3   OH233867   1.975   4.653   0.264 -0.1148 -0.6523 -0.2044
 4151TIP3    H133868   1.993   4.716   0.333 -2.0122 -2.0029  1.6561
 4151TIP3    H233869   1.892   4.682   0.225  0.6111 -0.2645 -1.5406
 4152TIP3   OH233870   1.319   2.816  12.949 -0.4437  0.4374 -0.2716
 4152TIP3    H133871   1.237   2.865  12.962 -2.2143 -2.1930 -0.6623
 4152TIP3    H233872   1.331   2.816  12.854  0.5752  1.5628 -0.1696
 4153TIP3   OH233873   0.113   4.129  13.413  0.2104 -0.0326 -0.0859
 4153TIP3    H133874   0.100   4.059  13.349  3.3722 -0.9356  0.1088
 4153TIP3    H233875   0.104   4.086  13.498  0.8742  0.0781  0.0418
 4154TIP3   OH233876   4.673   1.020  15.716 -0.0508 -0.3805  0.3455
 4154TIP3    H133877   4.713   0.978  15.640  1.4156 -0.8523  1.3258
 4154TIP3    H233878   4.580   1.003  15.706 -0.0314  0.4971 -1.8743
 4155TIP3   OH233879   2.292   3.402   5.092  0.0857  0.1110 -0.2498
 4155TIP3    H133880   2.254   3.383   5.178  1.0774 -0.8402  0.0017
 4155TIP3    H233881   2.370   3.454   5.111 -0.5982  1.3304 -0.7021
 4156TIP3   OH233882   3.728   4.985  14.198  0.6831 -0.2658 -0.0619
 4156TIP3    H133883   3.792   5.043  14.240 -1.3708  2.2798 -0.1637
 4156TIP3    H233884   3.644   5.015  14.232 -0.7173 -1.0191 -2.6491
 4157TIP3   OH233885   0.889   5.409  15.261 -0.1799 -0.4374 -0.4651
 4157TIP3    H133886   0.794   5.415  15.273 -0.0945  0.0078  0.0148
 4157TIP3    H233887   0.925   5.466  15.328  0.4598 -1.3144 -0.0444
 4158TIP3   OH233888   1.500   2.863  15.984  0.0759  0.4938 -0.4350
 4158TIP3    H133889   1.543   2.832  16.063  0.0204  1.7506  0.1066
 4158TIP3    H233890   1.499   2.787  15.926 -0.4039 -0.6084  0.9720
 4159TIP3   OH233891   3.268   3.795  16.443  0.1525  0.4500 -0.6980
 4159TIP3    H133892   3.233   3.806  16.531 -1.2727  1.6710 -1.3742
 4159TIP3    H233893   3.361   3.817  16.451  0.1145  0.2348  0.5484
 4160TIP3   OH233894   0.913   4.963   3.595  0.2892  0.3756  0.0693
 4160TIP3    H133895   0.925   4.936   3.686  0.6293 -0.1914 -0.1359
 4160TIP3    H233896   0.877   5.051   3.600 -1.3374 -0.2792  0.7933
 4161TIP3   OH233897   6.625   1.900  10.795 -0.4066  0.4383 -0.3062
 4161TIP3    H133898   6.713   1.871  10.820 -0.0953  2.1669  0.7597
 4161TIP3    H233899   6.639   1.948  10.713 -0.3214  0.8192 -0.0725
 4162TIP3   OH233900   1.063   4.056  15.113 -0.2985 -0.5678 -0.3417
 4162TIP3    H133901   1.115   4.038  15.192  0.4710 -1.0809 -0.9497
 4162TIP3    H233902   1.060   4.152  15.108  3.2984 -0.4006 -1.9721
 4163TIP3   OH233903   5.172   2.702  13.994 -0.1686  0.4290  0.1130
 4163TIP3    H133904   5.193   2.676  13.904 -0.6795 -0.8764  0.3463
 4163TIP3    H233905   5.122   2.628  14.029 -0.7619  1.3091  1.1839
 4164TIP3   OH233906   6.696   2.167   3.104 -0.1104  0.2051 -0.1117
 4164TIP3    H133907   6.650   2.235   3.152  0.6039  0.4991  0.1753
 4164TIP3    H233908   6.784   2.202   3.090 -0.3122  0.1596 -1.7061
 4165TIP3   OH233909   2.442   3.640   4.313 -0.2181  0.7907 -0.5030
 4165TIP3    H133910   2.363   3.606   4.270 -1.6218  4.1580 -0.9099
 4165TIP3    H233911   2.512   3.623   4.250 -0.6785 -1.5529 -0.4867
 4166TIP3   OH233912   5.506   5.322   0.839  0.2020 -0.2779 -0.2672
 4166TIP3    H133913   5.533   5.380   0.768  0.8617 -0.2627 -0.0079
 4166TIP3    H233914   5.579   5.324   0.901 -0.3777 -0.2634  0.4266
 4167TIP3   OH233915   2.451   3.561  10.978 -0.6134 -0.1656  0.0436
 4167TIP3    H133916   2.406   3.600  10.903  1.5545 -0.5365 -1.5594
 4167TIP3    H233917   2.544   3.562  10.953 -0.0558 -2.6771  1.6241
 4168TIP3   OH233918   3.435   5.728  14.634  0.5525 -0.2196 -0.3254
 4168TIP3    H133919   3.392   5.680  14.563  0.8804  0.7425 -1.2076
 4168TIP3    H233920   3.529   5.719  14.616  0.6197  0.6181 -0.4274
 4169TIP3   OH233921   6.391   4.299   5.727 -0.6215  0.0194 -0.6627
 4169TIP3    H133922   6.428   4.324   5.642 -0.1740  0.5133 -0.3304
 4169TIP3    H233923   6.466   4.300   5.787 -1.1327  0.8741 -0.0134
 4170TIP3   OH233924   2.603   0.585  11.277 -0.2237  0.0036  0.3385
 4170TIP3    H133925   2.662   0.640  11.329  1.3868 -0.8959 -0.4565
 4170TIP3    H233926   2.661   0.519  11.238 -1.6937 -0.5691 -0.9422
 4171TIP3   OH233927   3.176   0.512   2.629 -1.0691  0.5235  0.0492
 4171TIP3    H133928   3.201   0.422   2.651 -3.1267 -0.7149 -2.1719
 4171TIP3    H233929   3.243   0.541   2.568 -1.0371  0.0305 -0.1573
 4172TIP3   OH233930   1.545   2.477   3.683 -0.2552  0.8932 -0.0292
 4172TIP3    H133931   1.566   2.450   3.594  4.0655  1.5783  0.5671
 4172TIP3    H233932   1.534   2.395   3.731 -2.2542  0.5186 -1.0319
 4173TIP3   OH233933   4.165   4.109  16.223 -0.6808 -0.7471  0.0374
 4173TIP3    H133934   4.077   4.129  16.192 -0.9155 -1.7031  0.0664
 4173TIP3    H233935   4.187   4.181  16.281 -1.5555 -0.6488  0.2560
 4174TIP3   OH233936   4.734   0.732   0.600  0.2368 -0.3801  0.1616
 4174TIP3    H133937   4.689   0.681   0.667 -0.7444  1.9457  1.4236
 4174TIP3    H233938   4.765   0.668   0.537 -2.0412 -2.3852  0.9248
 4175TIP3   OH233939   5.850   1.711   5.594 -0.3103 -0.1169 -0.1989
 4175TIP3    H133940   5.898   1.725   5.676 -1.3625 -0.4894  0.4987
 4175TIP3    H233941   5.881   1.625   5.563  0.0217 -0.0162 -0.1493
 4176TIP3   OH233942   5.890   1.393  12.999 -0.2617 -0.1654 -0.4551
 4176TIP3    H133943   5.859   1.483  12.987 -0.3031 -0.1600 -0.3080
 4176TIP3    H233944   5.818   1.339  12.966  0.0024 -0.1394 -1.0992
 4177TIP3   OH233945   4.855   1.697   1.219  0.8802 -0.0580 -0.7325
 4177TIP3    H133946   4.903   1.613   1.222 -1.6110 -1.5521  0.9371
 4177TIP3    H233947   4.862   1.732   1.308  0.4943  0.6673 -0.9781
 4178TIP3   OH233948   5.244   3.867   1.062 -0.6906  0.3527  0.0811
 4178TIP3    H133949   5.303   3.901   0.995  1.2230 -1.5840  0.6442
 4178TIP3    H233950   5.186   3.807   1.015  1.2849 -1.7672  0.1737
 4179TIP3   OH233951   1.379   3.449  14.481 -0.1078  0.4711 -0.0280
 4179TIP3    H133952   1.377   3.425  14.389 -3.0430  0.9841 -0.1972
 4179TIP3    H233953   1.406   3.369  14.526  1.4388  0.2334 -1.2692
 4180TIP3   OH233954   2.603   6.055  12.885 -0.3350 -0.1299 -0.0124
 4180TIP3    H133955   2.605   6.124  12.818 -1.6391 -0.5388 -0.5180
 4180TIP3    H233956   2.579   5.976  12.836  1.2803 -1.0037  0.5315
 4181TIP3   OH233957   3.026   0.268  16.367  0.5688 -0.5112 -0.0647
 4181TIP3    H133958   3.053   0.359  16.375  2.7658 -1.0036 -1.0274
 4181TIP3    H233959   3.108   0.218  16.376 -0.1298 -2.2120 -2.3112
 4182TIP3   OH233960   0.146   2.794  15.166  0.1223  0.1780 -0.0035
 4182TIP3    H133961   0.230   2.781  15.121 -0.5005 -0.2817 -1.0555
 4182TIP3    H233962   0.114   2.878  15.134  0.8851  1.1208  1.5808
 4183TIP3   OH233963   2.375   1.784   1.775  0.6806  0.2231  0.1514
 4183TIP3    H133964   2.435   1.858   1.775 -0.1790  0.9350  0.2679
 4183TIP3    H233965   2.418   1.718   1.720  2.7092 -0.2530  2.1384
 4184TIP3   OH233966   6.669   6.665  14.034 -0.0266  0.3041  0.2491
 4184TIP3    H133967   6.627   6.746  14.062  0.1596  0.2004  0.8507
 4184TIP3    H233968   6.629   6.645  13.949  1.1209  1.9198 -0.7411
 4185TIP3   OH233969   6.012   1.825  10.650 -0.1323 -0.4164 -0.3357
 4185TIP3    H133970   5.942   1.761  10.664  0.6121 -0.9485  1.0284
 4185TIP3    H233971   6.058   1.793  10.572  0.2047 -1.5402  0.3010
 4186TIP3   OH233972   5.008   2.156  16.693 -0.0479 -0.2278  0.0441
 4186TIP3    H133973   4.978   2.074  16.732  3.3408 -1.1388  1.0508
 4186TIP3    H233974   5.010   2.218  16.766  1.1698 -0.4054  0.1766
 4187TIP3   OH233975   2.496   1.753  16.364 -0.2901  0.2767 -0.1238
 4187TIP3    H133976   2.563   1.752  16.295 -0.0898  0.0242  0.0716
 4187TIP3    H233977   2.431   1.689  16.335  0.7434 -1.2833  0.8353
 4188TIP3   OH233978   0.933   4.805  11.980 -0.0588 -0.4233 -0.5417
 4188TIP3    H133979   0.916   4.711  11.974 -3.4759  0.1436 -2.1006
 4188TIP3    H233980   0.944   4.834  11.890 -1.9608  1.0549 -0.3594
 4189TIP3   OH233981   5.420   5.293  15.626  0.0032 -0.1547 -0.1897
 4189TIP3    H133982   5.372   5.223  15.669 -1.1120  1.0771  0.6270
 4189TIP3    H233983   5.464   5.340  15.697  0.8444 -0.0844 -0.7367
 4190TIP3   OH233984   1.525   5.304   0.606  0.3317  0.0597  0.1319
 4190TIP3    H133985   1.449   5.362   0.608  1.2079  1.2456 -0.1509
 4190TIP3    H233986   1.551   5.301   0.514  1.0258  0.2227  0.3142
 4191TIP3   OH233987   5.110   3.123   4.062  0.1857 -0.5711 -0.4610
 4191TIP3    H133988   5.027   3.083   4.035 -0.1463  0.1400 -0.5144
 4191TIP3    H233989   5.177   3.065   4.026 -0.2862 -1.6414  0.3286
 4192TIP3   OH233990   5.940   1.444  11.342  0.1464  0.0426 -0.2325
 4192TIP3    H133991   6.021   1.474  11.299 -0.4358 -1.3598 -2.4867
 4192TIP3    H233992   5.880   1.518  11.334  0.5787  0.3947 -0.3098
 4193TIP3   OH233993   3.144   4.452   6.887 -0.7377  0.1849  0.4941
 4193TIP3    H133994   3.098   4.434   6.805  0.6333  1.8901 -0.7200
 4193TIP3    H233995   3.200   4.375   6.901 -1.5845 -0.4777  0.2878
 4194TIP3   OH233996   4.934   1.215   3.485 -0.3883  0.4646 -0.3518
 4194TIP3    H133997   4.906   1.154   3.553 -1.5113 -0.1818 -1.3382
 4194TIP3    H233998   5.001   1.166   3.436  1.0627  1.2570  0.7896
 4195TIP3   OH233999   4.588   5.292   3.382 -0.1076  0.1712  0.5625
 4195TIP3    H134000   4.673   5.255   3.407  0.2450  0.8568  0.4075
 4195TIP3    H234001   4.610   5.360   3.317 -0.8671 -0.4806 -0.4043
 4196TIP3   OH234002   5.440   5.274   4.633  0.0362  0.6291 -0.0211
 4196TIP3    H134003   5.435   5.295   4.540 -0.5931 -2.0761 -0.6764
 4196TIP3    H234004   5.362   5.316   4.671 -0.6455  0.3336 -1.0484
 4197TIP3   OH234005   4.370   5.100  14.898  0.1743  0.3874 -0.0317
 4197TIP3    H134006   4.317   5.147  14.834 -0.5674  0.4667  0.6144
 4197TIP3    H234007   4.378   5.161  14.971 -0.1910 -0.2060  0.5203
 4198TIP3   OH234008   5.676   2.198   0.202 -0.3349 -0.2058  0.6001
 4198TIP3    H134009   5.756   2.155   0.234  1.7952  1.5295 -1.8817
 4198TIP3    H234010   5.635   2.134   0.145 -1.0309 -1.2833  2.2544
 4199TIP3   OH234011   5.953   6.049  14.922 -0.5488 -0.4734  0.3045
 4199TIP3    H134012   5.928   5.993  14.848 -0.2743 -0.1404 -0.0453
 4199TIP3    H234013   6.034   6.091  14.894 -0.7893  0.1540  0.5360
 4200TIP3   OH234014   0.359   1.933   3.908  0.4615 -0.2251 -0.4965
 4200TIP3    H134015   0.433   1.909   3.964  0.0120  0.6674  0.5057
 4200TIP3    H234016   0.399   1.950   3.822  1.5248  0.7808  0.1572
 4201TIP3   OH234017   2.896   6.291  13.204  0.2316  0.2521  0.2788
 4201TIP3    H134018   2.864   6.378  13.230  0.4908  0.6087 -0.5707
 4201TIP3    H234019   2.919   6.300  13.112  2.0634 -0.2024  0.6452
 4202TIP3   OH234020   3.380   3.148   0.363 -0.7654  0.2262  0.1189
 4202TIP3    H134021   3.458   3.190   0.325  0.6329  1.0958  3.5318
 4202TIP3    H234022   3.330   3.220   0.400 -1.2447 -0.6197  1.1808
 4203TIP3   OH234023   2.137   5.878   4.289 -0.6825  0.1268 -0.0443
 4203TIP3    H134024   2.209   5.824   4.257 -2.0957 -1.2806 -1.0685
 4203TIP3    H234025   2.138   5.866   4.384  0.5872  0.3804 -0.0101
 4204TIP3   OH234026   3.574   5.998   3.674  0.2790  0.1936 -0.2203
 4204TIP3    H134027   3.666   6.017   3.657 -0.1315  0.0113 -3.0114
 4204TIP3    H234028   3.566   5.904   3.660 -0.0302 -0.1321  1.8317
 4205TIP3   OH234029   6.203   4.906  14.524 -0.1883 -0.1663 -0.5516
 4205TIP3    H134030   6.218   4.994  14.490 -0.4963  0.0671 -0.0960
 4205TIP3    H234031   6.202   4.917  14.619 -0.7802 -0.5704 -0.5046
 4206TIP3   OH234032   6.610   3.655  13.182 -0.0016  0.4030 -0.6018
 4206TIP3    H134033   6.542   3.653  13.114  0.0257  0.2170 -0.6223
 4206TIP3    H234034   6.576   3.718  13.246 -1.0388 -1.0135  0.2779
 4207TIP3   OH234035   0.817   5.989  15.353  0.2992  0.4225  0.0383
 4207TIP3    H134036   0.895   6.044  15.363  0.7606 -0.1890 -0.2091
 4207TIP3    H234037   0.783   5.979  15.443  1.8430 -1.2543  0.4851
 4208TIP3   OH234038   4.032   6.266   2.376 -0.7079 -0.3186 -0.0276
 4208TIP3    H134039   4.120   6.282   2.343 -0.7813 -0.6243 -0.3853
 4208TIP3    H234040   3.975   6.281   2.300 -0.9282 -0.4783  0.1037
 4209TIP3   OH234041   1.699   3.883  14.879 -0.0636 -0.3121 -0.3987
 4209TIP3    H134042   1.782   3.872  14.925  0.4958 -1.0297 -1.5333
 4209TIP3    H234043   1.636   3.833  14.930  0.2320  0.0949  0.3767
 4210TIP3   OH234044   4.821   3.845   4.705  0.2939 -0.3199 -0.3383
 4210TIP3    H134045   4.890   3.907   4.683  0.6694 -0.9015 -0.8324
 4210TIP3    H234046   4.768   3.890   4.770  1.1439  0.1312  0.0539
 4211TIP3   OH234047   1.274   5.211   1.548 -0.8665  0.0841  0.1767
 4211TIP3    H134048   1.290   5.153   1.474 -3.0332  0.9493 -1.0540
 4211TIP3    H234049   1.211   5.163   1.602 -0.4894  0.1143  0.6443
 4212TIP3   OH234050   1.768   0.141  10.890 -0.6237 -0.3900 -0.5754
 4212TIP3    H134051   1.832   0.073  10.867 -1.2575 -0.8878 -0.9087
 4212TIP3    H234052   1.789   0.214  10.833  0.6467  0.0583  0.4117
 4213TIP3   OH234053   4.297   1.576   0.417 -0.3177 -0.3024 -0.3589
 4213TIP3    H134054   4.307   1.522   0.495 -0.9877  0.9499  0.6295
 4213TIP3    H234055   4.383   1.576   0.376  0.6684  0.7499  1.5693
 4214TIP3   OH234056   5.571   5.419   5.140  0.0127 -0.0379  0.1273
 4214TIP3    H134057   5.495   5.366   5.166 -0.5339  0.6279 -0.0953
 4214TIP3    H234058   5.646   5.367   5.168 -0.5298 -0.1814  1.3941
 4215TIP3   OH234059   6.412   3.106   1.974  0.3421  0.0697  0.2441
 4215TIP3    H134060   6.455   3.138   1.895  0.0019  0.0745  0.0583
 4215TIP3    H234061   6.329   3.069   1.942  0.3844 -0.2907  0.5488
 4216TIP3   OH234062   5.790   6.309  15.025  0.3812 -0.2847  0.1196
 4216TIP3    H134063   5.832   6.225  15.007 -1.1197 -1.1700  0.5698
 4216TIP3    H234064   5.731   6.291  15.098 -1.6445  0.5766 -1.2182
 4217TIP3   OH234065   6.119   4.428  14.284 -0.0571  0.0192 -0.2956
 4217TIP3    H134066   6.043   4.467  14.241  0.1789  1.6014  0.6480
 4217TIP3    H234067   6.081   4.376  14.355 -0.3260 -0.8173 -1.0246
 4218TIP3   OH234068   1.364   6.232  11.750  0.1742 -0.5527  0.0278
 4218TIP3    H134069   1.329   6.150  11.786 -1.1767  0.4071  1.0041
 4218TIP3    H234070   1.320   6.241  11.665 -0.4455 -0.3563  0.3616
 4219TIP3   OH234071   3.861   6.425   2.013  0.8020  0.1598  0.1793
 4219TIP3    H134072   3.874   6.415   1.918 -0.3819  2.7102 -0.3366
 4219TIP3    H234073   3.941   6.466   2.044  0.6053  0.6590  0.0235
 4220TIP3   OH234074   5.386   5.334  16.272 -0.1305 -0.3463 -0.4951
 4220TIP3    H134075   5.433   5.371  16.197 -1.0224  0.9769 -0.4460
 4220TIP3    H234076   5.305   5.300  16.234  0.1648 -1.2006 -0.3637
 4221TIP3   OH234077   3.229   1.722   3.844 -0.0344  0.1223 -0.5428
 4221TIP3    H134078   3.180   1.675   3.912  0.0373 -0.7839 -1.0966
 4221TIP3    H234079   3.173   1.796   3.821  1.0812  2.0128  2.3230
 4222TIP3   OH234080   1.187   3.449   5.697 -0.2852  0.1669 -0.5365
 4222TIP3    H134081   1.204   3.442   5.791  1.3090  2.2519 -0.5745
 4222TIP3    H234082   1.173   3.359   5.668  0.9806 -0.7195  1.3803
 4223TIP3   OH234083   5.662   5.967  15.323 -0.1887 -0.0660  0.2283
 4223TIP3    H134084   5.645   5.895  15.385 -1.8740 -0.3616 -0.5107
 4223TIP3    H234085   5.635   5.932  15.238  1.1275  0.6846 -0.5341
 4224TIP3   OH234086   5.038   5.944   5.774 -0.3352  0.1505 -0.2078
 4224TIP3    H134087   5.011   5.878   5.710 -2.6766  1.6908 -0.9491
 4224TIP3    H234088   5.102   5.899   5.830 -0.3389 -2.0948 -1.8806
 4225TIP3   OH234089   6.613   2.191   6.012  0.0991 -0.5584  0.0732
 4225TIP3    H134090   6.703   2.170   6.037  0.1667 -1.4745 -0.8851
 4225TIP3    H234091   6.621   2.273   5.963  0.0991  0.6261  1.9267
 4226TIP3   OH234092   1.778   1.805  15.479 -0.0118  0.3545  0.2216
 4226TIP3    H134093   1.828   1.810  15.397 -1.0709 -0.1226 -0.4690
 4226TIP3    H234094   1.765   1.712  15.494  1.3401  0.3583  1.6917
 4227TIP3   OH234095   3.215   1.194   5.226 -0.3080 -0.2140 -0.5410
 4227TIP3    H134096   3.138   1.230   5.181 -0.1857  0.4910 -0.2023
 4227TIP3    H234097   3.249   1.268   5.277 -0.1064 -0.8437  0.2510
 4228TIP3   OH234098   1.994   5.308  10.378 -0.3723 -0.0123 -0.4007
 4228TIP3    H134099   1.905   5.330  10.351 -0.7626 -0.2521  0.6575
 4228TIP3    H234100   2.021   5.382  10.433  0.6223  0.7438 -1.8299
 4229TIP3   OH234101   2.243   6.512   2.939 -0.1415  0.7202 -0.0522
 4229TIP3    H134102   2.155   6.474   2.945  0.7753 -1.3471  1.3269
 4229TIP3    H234103   2.271   6.522   3.029  2.0547 -1.2751 -0.4335
 4230TIP3   OH234104   3.266   2.734   4.657 -0.0256  0.1859 -0.5770
 4230TIP3    H134105   3.332   2.784   4.704 -0.8864  1.3210 -0.5191
 4230TIP3    H234106   3.203   2.707   4.724 -0.2007  0.0747 -0.7829
 4231TIP3   OH234107   3.154   2.964   3.667  0.3496  0.7101  0.8821
 4231TIP3    H134108   3.180   3.037   3.611 -1.5329  0.9843  0.2907
 4231TIP3    H234109   3.091   3.002   3.728 -0.2749 -0.2992  0.8873
 4232TIP3   OH234110   0.490   1.700  17.086 -0.0555  0.1077 -0.0899
 4232TIP3    H134111   0.488   1.604  17.082 -0.0992  0.1439 -0.9597
 4232TIP3    H234112   0.412   1.727  17.039  0.4496  0.5995 -0.6453
 4233TIP3   OH234113   5.326   0.769  12.768 -0.3670 -0.0163  0.4165
 4233TIP3    H134114   5.376   0.696  12.731 -0.3423  0.4895 -0.5881
 4233TIP3    H234115   5.339   0.762  12.862  2.0012  0.3806  0.1704
 4234TIP3   OH234116   6.652   2.987   2.746 -0.6269  0.6623  0.0010
 4234TIP3    H134117   6.638   3.033   2.829  1.2959  1.1818  0.0854
 4234TIP3    H234118   6.612   3.043   2.680  1.1980  2.2499  0.1704
 4235TIP3   OH234119   6.337   6.382   3.946  0.0499  0.3914 -0.2625
 4235TIP3    H134120   6.251   6.387   3.905  0.6427 -0.6040 -1.7069
 4235TIP3    H234121   6.319   6.385   4.040 -1.3825  2.3777 -0.5352
 4236TIP3   OH234122   5.049   1.641   0.124  0.1835 -0.3792  0.2151
 4236TIP3    H134123   5.082   1.647   0.034 -1.0414  0.0139 -0.2185
 4236TIP3    H234124   5.029   1.731   0.149  1.4376 -0.3650  1.2561
 4237TIP3   OH234125   2.140   5.783   3.218  0.2278 -0.2645 -0.2466
 4237TIP3    H134126   2.086   5.861   3.234  0.9575  0.1488  0.3160
 4237TIP3    H234127   2.127   5.729   3.296  0.0676 -0.5035 -0.4377
 4238TIP3   OH234128   0.229   6.401   0.219 -0.1029 -0.3083 -0.3883
 4238TIP3    H134129   0.312   6.430   0.180 -0.5233  1.4967 -0.0263
 4238TIP3    H234130   0.253   6.371   0.306  0.0469  1.5267  0.2548
 4239TIP3   OH234131   5.335   4.706   0.098 -0.1750 -0.2121  0.0455
 4239TIP3    H134132   5.288   4.780   0.137 -2.2788 -1.2746 -0.3356
 4239TIP3    H234133   5.400   4.682   0.163  0.2230  1.6374  0.3856
 4240TIP3   OH234134   6.770   5.925  16.431 -0.0781  0.2528 -0.2639
 4240TIP3    H134135   6.722   5.904  16.352  0.5827  2.5481 -1.3463
 4240TIP3    H234136   6.724   5.999  16.469  2.0437  2.0122 -0.9189
 4241TIP3   OH234137   4.577   0.021   0.026  0.0204 -0.3300  0.6415
 4241TIP3    H134138   4.648  -0.040   0.048 -1.6780 -1.2406  4.4960
 4241TIP3    H234139   4.497  -0.030   0.040 -1.4568  1.3454 -1.2438
 4242TIP3   OH234140   6.042   3.579   1.732 -0.1241  0.2898  0.4831
 4242TIP3    H134141   6.013   3.489   1.715 -0.0399  0.0998  1.2752
 4242TIP3    H234142   6.040   3.622   1.647 -0.2822 -0.4324  0.1147
 4243TIP3   OH234143   1.117   4.426  12.621  0.2812  0.7022  0.1228
 4243TIP3    H134144   1.161   4.408  12.538  1.2588  0.7686  0.6126
 4243TIP3    H234145   1.188   4.439  12.683 -0.3884 -1.9079  1.5500
 4244TIP3   OH234146   1.058   5.811  16.960  1.1718  0.1284 -0.1846
 4244TIP3    H134147   1.091   5.792  17.048 -0.7788  0.0415  0.5773
 4244TIP3    H234148   0.996   5.740  16.942  0.8565  0.6532 -1.2487
 4245TIP3   OH234149   5.782   1.509  11.748  0.1915 -0.3155 -0.3678
 4245TIP3    H134150   5.874   1.533  11.760  0.4630 -0.3467 -2.2334
 4245TIP3    H234151   5.736   1.593  11.743  0.0566 -0.2990  0.7248
 4246TIP3   OH234152   6.711   0.088   2.822  0.4781 -0.0349  0.1663
 4246TIP3    H134153   6.646   0.125   2.762 -2.3307 -2.9794  1.1171
 4246TIP3    H234154   6.746   0.012   2.776 -1.5178 -2.1745  1.9612
 4247TIP3   OH234155   4.197   1.709   4.917 -0.3620 -0.3907 -0.3162
 4247TIP3    H134156   4.202   1.688   4.823 -0.3484  1.1829 -0.6942
 4247TIP3    H234157   4.184   1.803   4.919  1.8523 -0.0614  1.3392
 4248TIP3   OH234158   5.271   4.462  15.406 -0.3803 -0.4898 -0.0686
 4248TIP3    H134159   5.223   4.385  15.376 -0.5395  0.0869 -1.4020
 4248TIP3    H234160   5.209   4.535  15.395  0.1663 -0.0049 -0.0175
 4249TIP3   OH234161   1.612   4.707   6.616  0.2022 -0.4679 -0.6369
 4249TIP3    H134162   1.699   4.666   6.607  0.3573 -0.2274 -0.2736
 4249TIP3    H234163   1.621   4.765   6.692 -0.3200 -0.5479 -0.5116
 4250TIP3   OH234164   4.366   3.228  16.553 -0.0067 -0.1902 -0.0391
 4250TIP3    H134165   4.427   3.265  16.488 -1.4692  0.8724 -0.8554
 4250TIP3    H234166   4.382   3.279  16.632  0.0589  0.1829 -0.2875
 4251TIP3   OH234167   1.684   2.597   2.151  0.1445  0.1147  0.0927
 4251TIP3    H134168   1.703   2.529   2.086  0.6204  0.8427 -0.5566
 4251TIP3    H234169   1.676   2.550   2.234  0.6678 -0.7078 -0.3128
 4252TIP3   OH234170   3.292   4.573  16.498 -0.0003 -0.1774  0.5145
 4252TIP3    H134171   3.225   4.505  16.492  0.1063 -0.1539 -2.8710
 4252TIP3    H234172   3.371   4.526  16.525 -0.4101 -0.9818  0.3401
 4253TIP3   OH234173   2.376   4.169   5.915  0.6543  0.0893  0.3478
 4253TIP3    H134174   2.447   4.156   5.977  0.6150 -0.3988  0.2941
 4253TIP3    H234175   2.416   4.212   5.840  1.4413 -2.4461 -0.7665
 4254TIP3   OH234176   0.407   4.073  12.234 -0.1814  0.0284  0.2016
 4254TIP3    H134177   0.478   4.028  12.279 -0.8679 -0.4499  0.8355
 4254TIP3    H234178   0.435   4.077  12.142 -1.1064 -3.8666 -0.4173
 4255TIP3   OH234179   3.438   1.919  11.797 -0.5561  0.7030  0.4334
 4255TIP3    H134180   3.406   1.993  11.849 -1.0845  0.6139  0.2327
 4255TIP3    H234181   3.419   1.942  11.706  0.6051  0.9767  0.2417
 4256TIP3   OH234182   0.422   4.910  13.585  0.0643  0.3268 -0.0889
 4256TIP3    H134183   0.456   4.908  13.675 -2.6999  0.4763  1.0671
 4256TIP3    H234184   0.364   4.986  13.583 -1.4057 -0.7714 -1.3808
 4257TIP3   OH234185   3.881   5.461  16.462 -0.7472  0.4435 -0.1114
 4257TIP3    H134186   3.884   5.378  16.509  0.6697  0.4116 -0.2067
 4257TIP3    H234187   3.793   5.495  16.478 -0.1635  0.7452  3.0811
 4258TIP3   OH234188   2.635   6.108  15.308  0.1148 -0.0296  0.0383
 4258TIP3    H134189   2.695   6.148  15.246 -1.4235 -0.0435 -1.5533
 4258TIP3    H234190   2.572   6.177  15.329 -0.1318 -0.4040  0.5621
 4259TIP3   OH234191   2.473   4.039   2.663 -0.0477 -0.9391 -0.5662
 4259TIP3    H134192   2.407   4.063   2.598 -0.8784 -1.7348 -0.0354
 4259TIP3    H234193   2.424   4.026   2.743  1.2589  3.1438  1.1626
 4260TIP3   OH234194   1.965   4.574   1.229  0.2975  0.4696  0.1856
 4260TIP3    H134195   2.025   4.636   1.188  0.4886  0.4572  0.4469
 4260TIP3    H234196   1.878   4.598   1.195  0.5205  0.0970 -0.6810
 4261TIP3   OH234197   4.804   2.146  15.654  0.0992 -0.4156 -0.0445
 4261TIP3    H134198   4.723   2.141  15.704  0.2293  0.2126  0.2348
 4261TIP3    H234199   4.873   2.156  15.720  0.2392  0.7678 -0.3426
 4262TIP3   OH234200   2.544   5.910  12.181  0.3373 -0.4441 -0.7040
 4262TIP3    H134201   2.458   5.908  12.223 -0.7013 -1.2853 -2.7480
 4262TIP3    H234202   2.606   5.909  12.254 -1.3348  2.0976  0.9214
 4263TIP3   OH234203   1.170   5.749  17.206  0.2112  0.0283  0.3829
 4263TIP3    H134204   1.257   5.777  17.235  0.7472 -0.9028 -0.2445
 4263TIP3    H234205   1.165   5.658  17.235 -0.1074 -0.2546 -0.5342
 4264TIP3   OH234206   3.184   5.842  14.689 -0.4687  0.4075  0.7484
 4264TIP3    H134207   3.139   5.834  14.605  0.0958  0.4454  0.4420
 4264TIP3    H234208   3.263   5.789  14.680 -0.7165 -0.1003  1.4765
 4265TIP3   OH234209   5.684   3.975   4.856 -0.6677  0.5070  0.1067
 4265TIP3    H134210   5.613   3.923   4.893  0.3148 -0.2361  1.0138
 4265TIP3    H234211   5.717   3.921   4.784 -0.6351  0.5876  0.0613
 4266TIP3   OH234212   2.139   5.132   3.233  0.0222 -0.6365 -0.1278
 4266TIP3    H134213   2.132   5.169   3.321  0.6496 -0.5414 -0.1133
 4266TIP3    H234214   2.058   5.083   3.221 -0.1442 -0.5049  0.4346
 4267TIP3   OH234215   1.961   1.464  15.226  0.0105 -0.1574 -0.3736
 4267TIP3    H134216   1.973   1.427  15.314 -1.4249  0.0003 -0.0893
 4267TIP3    H234217   1.883   1.420  15.192 -0.3195  0.8648 -0.9825
 4268TIP3   OH234218   2.375   4.900  13.471  0.0238 -0.4534 -0.2599
 4268TIP3    H134219   2.338   4.815  13.448 -1.4626  0.3608 -1.0480
 4268TIP3    H234220   2.330   4.962  13.413 -0.0446  1.0467  1.3137
 4269TIP3   OH234221   2.098   3.615  14.504 -0.3013  0.1566 -0.2538
 4269TIP3    H134222   2.033   3.629  14.573 -1.5648 -2.2028 -0.8699
 4269TIP3    H234223   2.175   3.583  14.551  0.1838  2.1278  0.3890
 4270TIP3   OH234224   2.251   3.504  16.922 -0.1752  0.3042  0.1911
 4270TIP3    H134225   2.345   3.521  16.918 -0.2235  0.3183 -2.9964
 4270TIP3    H234226   2.238   3.423  16.873 -1.7638 -0.2806  1.4674
 4271TIP3   OH234227   3.766   5.367  13.519 -0.1003 -0.3786 -0.2952
 4271TIP3    H134228   3.844   5.348  13.570 -0.8063 -0.8283  0.6336
 4271TIP3    H234229   3.768   5.462  13.507 -0.2796 -0.1642  1.1840
 4272TIP3   OH234230   1.197   2.974  13.602 -0.0249  0.2613 -0.2572
 4272TIP3    H134231   1.182   3.031  13.677  0.3883 -1.1983  0.9892
 4272TIP3    H234232   1.292   2.966  13.597 -0.0771 -0.2420 -0.4830
 4273TIP3   OH234233   2.817   6.038   3.971  0.2029 -1.0400 -0.2882
 4273TIP3    H134234   2.815   6.116   3.916 -1.7460 -0.3837  0.6401
 4273TIP3    H234235   2.909   6.028   3.996  0.3120  1.9409  0.8956
 4274TIP3   OH234236   2.877   2.969   4.322  0.4279 -0.2488  0.1236
 4274TIP3    H134237   2.871   2.941   4.230  0.2037  0.2552 -0.0175
 4274TIP3    H234238   2.950   2.918   4.357  2.9357  2.0613 -1.2901
 4275TIP3   OH234239   4.430   2.761   4.252  0.4472 -0.1969  0.0250
 4275TIP3    H134240   4.465   2.673   4.247 -2.1176 -1.4279  1.3553
 4275TIP3    H234241   4.358   2.762   4.188  0.6658  1.0487 -0.2277
 4276TIP3   OH234242   6.742   0.578  14.672  0.4147 -0.1061 -0.5135
 4276TIP3    H134243   6.716   0.669  14.684  0.8015  0.1622 -1.6209
 4276TIP3    H234244   6.828   0.572  14.713 -1.1800 -0.9746  3.0849
 4277TIP3   OH234245   2.027   0.668   4.871  0.4980 -0.5954  0.2859
 4277TIP3    H134246   2.040   0.689   4.963  0.8136 -0.1271  0.1400
 4277TIP3    H234247   2.075   0.736   4.824 -0.4202 -0.2926 -0.2370
 4278TIP3   OH234248   6.473   4.642   0.235  0.0172 -0.3538  0.0000
 4278TIP3    H134249   6.477   4.731   0.271  1.3048 -1.1936  2.1286
 4278TIP3    H234250   6.424   4.593   0.301 -1.3373 -1.1259 -1.5050
 4279TIP3   OH234251   2.264   3.920  11.586  0.1908  0.3793  0.0303
 4279TIP3    H134252   2.204   3.877  11.647 -0.5532  1.5663  0.1579
 4279TIP3    H234253   2.269   3.860  11.511 -0.2197 -0.2811  0.5230
 4280TIP3   OH234254   4.993   5.009  12.269 -0.2279 -0.0930 -0.2647
 4280TIP3    H134255   5.017   5.086  12.217  2.5511  0.3827  1.5232
 4280TIP3    H234256   4.930   5.043  12.333 -0.3343  0.2931 -0.5671
 4281TIP3   OH234257   4.426   1.366   3.397 -0.0463  0.4744 -0.2095
 4281TIP3    H134258   4.408   1.460   3.405  0.8270  0.6049  0.3735
 4281TIP3    H234259   4.420   1.333   3.487 -2.2849 -0.4289 -0.6099
 4282TIP3   OH234260   1.147   5.574  11.785 -0.1180  0.2957  0.3870
 4282TIP3    H134261   1.201   5.527  11.721 -0.7678 -1.3338  0.9822
 4282TIP3    H234262   1.085   5.624  11.732 -1.5426 -2.0745 -0.3279
 4283TIP3   OH234263   4.525   1.390   3.834 -0.2340 -0.0388 -0.4520
 4283TIP3    H134264   4.543   1.418   3.744  1.3320  1.0372  0.1500
 4283TIP3    H234265   4.537   1.295   3.833  0.3066  0.0310 -1.2794
 4284TIP3   OH234266   2.968   6.323   0.966 -0.0905 -0.0759  0.2115
 4284TIP3    H134267   2.932   6.375   0.895 -1.0202  0.2109  0.8709
 4284TIP3    H234268   2.922   6.354   1.044  0.0943 -1.1549  0.7687
 4285TIP3   OH234269   5.517   2.926  14.557 -0.8071  0.2813 -0.3166
 4285TIP3    H134270   5.482   2.988  14.621 -0.0537  0.1911  0.1981
 4285TIP3    H234271   5.443   2.907  14.499 -1.3914  0.6826  0.2799
 4286TIP3   OH234272   3.225   3.984  11.075  0.2220  0.5395 -0.0925
 4286TIP3    H134273   3.222   3.941  10.990  2.8639  2.2626 -1.1952
 4286TIP3    H234274   3.170   4.062  11.064  0.0210  0.4204  0.0429
 4287TIP3   OH234275   5.973   2.969   4.495 -0.0737 -0.6029  0.4645
 4287TIP3    H134276   5.960   3.056   4.457 -0.9518 -1.6622 -1.8020
 4287TIP3    H234277   6.043   2.930   4.443  0.0406 -1.4106  1.2049
 4288TIP3   OH234278   5.750   6.252  11.531  0.1494 -0.2448 -0.0226
 4288TIP3    H134279   5.821   6.292  11.480 -0.2218 -0.0314 -0.3816
 4288TIP3    H234280   5.722   6.322  11.591 -0.9531  0.2888 -1.1111
 4289TIP3   OH234281   0.095   0.653  14.255 -0.1086  0.6641  0.6357
 4289TIP3    H134282   0.023   0.705  14.290 -0.7551  0.3051 -0.1422
 4289TIP3    H234283   0.053   0.587  14.200  0.8666  1.3528 -1.0345
 4290TIP3   OH234284   4.750   6.323   4.687  0.1407  0.4672 -0.5989
 4290TIP3    H134285   4.706   6.408   4.685  0.2829  0.5461 -2.2314
 4290TIP3    H234286   4.736   6.287   4.599  0.7096 -0.8773 -0.1667
 4291TIP3   OH234287   2.522   3.229  13.982 -0.4430 -0.9377  0.3259
 4291TIP3    H134288   2.581   3.190  13.917  0.0539 -1.4316  1.0532
 4291TIP3    H234289   2.507   3.159  14.046  0.6320  0.0782  1.7841
 4292TIP3   OH234290   3.521   2.702   3.369 -0.4135  0.0522  0.0048
 4292TIP3    H134291   3.493   2.785   3.406 -1.9365 -0.4632  0.0826
 4292TIP3    H234292   3.616   2.699   3.385 -0.4042  1.5595  0.3665
 4293TIP3   OH234293   3.766   2.851   5.358 -0.3648 -0.7497  0.9214
 4293TIP3    H134294   3.700   2.909   5.321  0.6647 -0.1532 -0.0751
 4293TIP3    H234295   3.724   2.765   5.360 -0.8652 -0.5735 -0.6042
 4294TIP3   OH234296   1.012   0.441  14.785  0.4386 -0.0192  0.0107
 4294TIP3    H134297   1.004   0.439  14.690  1.3461  0.4005 -0.0876
 4294TIP3    H234298   0.964   0.364  14.815 -0.2682  0.1117 -0.7458
 4295TIP3   OH234299   2.247   4.527   2.723 -0.3005 -0.4234 -0.1254
 4295TIP3    H134300   2.213   4.482   2.647  0.8606 -0.1433 -0.8326
 4295TIP3    H234301   2.332   4.560   2.696  0.4837 -0.9719  1.5316
 4296TIP3   OH234302   1.519   5.230  15.718 -0.1460 -0.5672 -0.4545
 4296TIP3    H134303   1.557   5.156  15.765 -1.2629 -0.6503  0.3478
 4296TIP3    H234304   1.456   5.190  15.658  0.6976 -0.4007 -1.4785
 4297TIP3   OH234305   6.089   3.067   3.356 -0.0883 -0.0333  0.8333
 4297TIP3    H134306   6.071   3.084   3.449 -0.4704 -1.0493  0.9634
 4297TIP3    H234307   6.021   3.004   3.330 -1.3044  1.8316 -0.7273
 4298TIP3   OH234308   0.332   2.897   1.162  0.2780 -0.5740 -0.3796
 4298TIP3    H134309   0.321   2.982   1.121 -2.5975 -1.1893 -1.0812
 4298TIP3    H234310   0.403   2.856   1.112  0.7711  0.8655 -0.9245
 4299TIP3   OH234311   1.607   3.267  16.290  0.9870  0.2760  0.3076
 4299TIP3    H134312   1.659   3.343  16.265  0.1920  0.9713  0.7110
 4299TIP3    H234313   1.582   3.227  16.207  3.0554 -0.7270  0.1083
 4300TIP3   OH234314   3.619   5.259  16.890 -0.1189 -0.1200 -0.4627
 4300TIP3    H134315   3.569   5.338  16.871 -0.3766 -0.3155 -0.5965
 4300TIP3    H234316   3.560   5.205  16.942 -0.0531 -0.3572 -0.6340
 4301TIP3   OH234317   1.103   6.025  13.752 -0.4763  0.4047  0.7357
 4301TIP3    H134318   1.048   5.983  13.686 -1.3314 -0.0257  1.6900
 4301TIP3    H234319   1.165   5.957  13.779  0.1840  0.7208  0.0663
 4302TIP3   OH234320   6.611   3.216   0.646  0.2623 -0.2250  0.1625
 4302TIP3    H134321   6.687   3.254   0.601 -1.2692  1.7499 -0.9111
 4302TIP3    H234322   6.565   3.167   0.579 -0.1321 -0.2763  0.4671
 4303TIP3   OH234323   2.022   0.796  16.877 -0.0389 -0.4049 -0.2107
 4303TIP3    H134324   2.010   0.783  16.971  2.5116 -0.4088  0.1751
 4303TIP3    H234325   2.094   0.737  16.853 -0.1988  0.0722 -2.0540
 4304TIP3   OH234326   6.044   3.626   2.396 -0.3244 -0.4278 -0.0168
 4304TIP3    H134327   6.054   3.697   2.333 -1.2849 -0.9083 -0.7564
 4304TIP3    H234328   5.974   3.655   2.455  0.0003 -0.3239  0.3166
 4305TIP3   OH234329   0.427   3.776  11.641 -0.7404 -0.3459 -0.3774
 4305TIP3    H134330   0.443   3.786  11.547  0.7523  1.0972 -0.0273
 4305TIP3    H234331   0.473   3.696  11.665 -0.1714 -0.1242 -0.7033
 4306TIP3   OH234332   4.076   1.571  14.547 -0.0250  0.4414  0.3815
 4306TIP3    H134333   4.130   1.643  14.580  1.5590 -0.6703  0.3401
 4306TIP3    H234334   4.024   1.610  14.478 -0.5486  1.9421  1.5645
 4307TIP3   OH234335   5.300   5.105  12.805  0.0358 -0.7901 -0.4131
 4307TIP3    H134336   5.211   5.083  12.831 -0.0518 -0.2535 -0.2546
 4307TIP3    H234337   5.309   5.198  12.825  0.0613 -0.4085 -2.0006
 4308TIP3   OH234338   0.148   1.716  15.572  0.1496 -0.1559  0.3215
 4308TIP3    H134339   0.146   1.725  15.477 -1.3519 -0.4067  0.3059
 4308TIP3    H234340   0.170   1.803  15.604  0.3915 -0.0057 -0.2466
 4309TIP3   OH234341   5.327   5.110  11.173 -0.1909 -0.3428 -0.4227
 4309TIP3    H134342   5.294   5.030  11.133 -1.1216 -1.5203  2.4457
 4309TIP3    H234343   5.379   5.152  11.104 -1.7047 -2.1174 -2.8009
 4310TIP3   OH234344   3.366   1.373   3.716 -0.0619 -0.8820  0.2648
 4310TIP3    H134345   3.351   1.310   3.646 -0.6638 -0.2481 -0.1905
 4310TIP3    H234346   3.384   1.455   3.671  2.0519 -0.9794  0.8310
 4311TIP3   OH234347   1.942   3.239  12.631 -0.1894 -0.2245 -0.5206
 4311TIP3    H134348   2.021   3.251  12.684 -0.4224 -0.3498 -0.1428
 4311TIP3    H234349   1.956   3.296  12.555 -0.2481  0.6453  0.1078
 4312TIP3   OH234350   2.486   0.837   4.317  0.4366 -0.1345  0.0359
 4312TIP3    H134351   2.446   0.896   4.253  0.1719 -0.0834  0.2483
 4312TIP3    H234352   2.498   0.755   4.270 -0.2697 -0.2697  0.0853
 4313TIP3   OH234353   0.417   0.830  11.232 -0.4031 -0.6499  0.4707
 4313TIP3    H134354   0.443   0.806  11.143 -0.6929 -0.1965  0.2567
 4313TIP3    H234355   0.499   0.828  11.282 -0.1851 -0.6001  0.1231
 4314TIP3   OH234356   5.624   3.474   2.675 -0.2478 -0.4390 -0.3493
 4314TIP3    H134357   5.669   3.483   2.759 -1.1024 -0.6250  0.1423
 4314TIP3    H234358   5.651   3.389   2.642  0.5443 -0.1204 -0.5464
 4315TIP3   OH234359   2.384   2.227  11.800 -0.3631 -0.1310  0.4084
 4315TIP3    H134360   2.340   2.249  11.882  0.8155  1.7190  0.6035
 4315TIP3    H234361   2.352   2.140  11.779 -1.3455 -0.3160  2.3873
 4316TIP3   OH234362   0.145   6.462  12.926 -0.0250 -0.1015 -0.0458
 4316TIP3    H134363   0.221   6.514  12.949 -0.7455  0.3125  1.5674
 4316TIP3    H234364   0.135   6.473  12.832  0.5477  1.7260  0.0735
 4317TIP3   OH234365   0.388   5.211   0.741 -0.1297  0.2873  0.0535
 4317TIP3    H134366   0.425   5.181   0.825 -0.8073  0.5851  0.4672
 4317TIP3    H234367   0.358   5.300   0.760  0.9095  0.8588 -0.8704
 4318TIP3   OH234368   4.731   4.076  12.009  0.2046 -0.1705  0.0940
 4318TIP3    H134369   4.827   4.080  12.006  0.2062 -0.2737  0.0151
 4318TIP3    H234370   4.702   4.145  11.950  0.2263  0.8828  1.2867
 4319TIP3   OH234371   1.338   5.083   4.023  0.5635 -0.2437 -0.5152
 4319TIP3    H134372   1.289   5.124   3.951 -1.0254 -0.2258  0.5394
 4319TIP3    H234373   1.430   5.104   4.003  0.3495 -1.5392 -3.3357
 4320TIP3   OH234374   5.272   2.381  16.027 -0.1271 -0.3058 -0.2608
 4320TIP3    H134375   5.307   2.313  15.969  1.1519 -1.0338  1.3131
 4320TIP3    H234376   5.203   2.338  16.077  0.2914 -0.2961  0.3317
 4321TIP3   OH234377   5.806   4.118  14.725  0.0887 -0.4092  0.3826
 4321TIP3    H134378   5.804   4.160  14.811  0.0615  0.9377 -0.2594
 4321TIP3    H234379   5.824   4.026  14.744  0.9605  0.0213  1.7808
 4322TIP3   OH234380   0.540   1.340   2.512  0.1217  0.0321  0.0454
 4322TIP3    H134381   0.473   1.286   2.552  0.6701 -0.4044  0.3764
 4322TIP3    H234382   0.613   1.281   2.494 -0.7435 -0.2468 -3.3127
 4323TIP3   OH234383   1.475   6.110  14.137  0.1491  0.3257  0.0201
 4323TIP3    H134384   1.541   6.180  14.137  0.6479 -0.1349  0.7021
 4323TIP3    H234385   1.506   6.049  14.070 -0.3567  0.8056 -0.6690
 4324TIP3   OH234386   4.139   3.580  13.948 -0.5709 -0.3215  0.2480
 4324TIP3    H134387   4.080   3.609  13.879  0.0018  1.2084  0.3750
 4324TIP3    H234388   4.164   3.660  13.994  1.1887 -0.9951  0.5236
 4325TIP3   OH234389   5.601   2.546  12.790 -0.7338 -0.2471 -0.3110
 4325TIP3    H134390   5.661   2.592  12.730 -0.7936 -1.0560 -1.0111
 4325TIP3    H234391   5.571   2.470  12.740 -1.3236 -0.5688  0.5135
 4326TIP3   OH234392   5.633   1.707   4.220 -0.5334 -0.2468  0.4011
 4326TIP3    H134393   5.607   1.722   4.129  0.8046 -2.0702 -0.3337
 4326TIP3    H234394   5.553   1.677   4.263 -1.1162  0.3872 -0.2167
 4327TIP3   OH234395   4.116   5.622   2.984 -0.6576  0.3566 -0.8418
 4327TIP3    H134396   4.065   5.549   2.949 -0.3755  0.2374 -0.9987
 4327TIP3    H234397   4.173   5.583   3.050 -0.3783  0.4070 -1.0523
 4328TIP3   OH234398   3.101   5.740   4.069  0.0242  0.3894 -0.1231
 4328TIP3    H134399   3.141   5.666   4.023 -0.7655  0.2015 -0.5226
 4328TIP3    H234400   3.018   5.705   4.103 -0.4821  1.1601 -0.5521
 4329TIP3   OH234401   4.747   2.457   1.013 -0.0864 -0.2972 -0.0252
 4329TIP3    H134402   4.830   2.485   1.051  0.8035 -0.6458 -1.6330
 4329TIP3    H234403   4.766   2.443   0.920 -2.3140  1.1822 -0.7948
 4330TIP3   OH234404   4.560   3.266   3.725 -0.2669  0.2936  0.1407
 4330TIP3    H134405   4.493   3.201   3.742  0.2128  0.0453  1.1209
 4330TIP3    H234406   4.539   3.299   3.637 -1.4293 -0.0483  0.2731
 4331TIP3   OH234407   5.221   0.092   5.358  0.4555 -0.5059 -1.0214
 4331TIP3    H134408   5.165   0.015   5.347 -1.3280  0.9198 -2.5566
 4331TIP3    H234409   5.186   0.135   5.436 -1.0712  0.6917 -2.3071
 4332TIP3   OH234410   3.748   4.682   5.290  0.5790 -0.5934  0.1322
 4332TIP3    H134411   3.673   4.654   5.343  0.8207 -2.8752 -0.5983
 4332TIP3    H234412   3.824   4.644   5.334  0.9568 -0.9821 -0.8220
 4333TIP3   OH234413   5.202   5.698   1.433  0.2463  0.4526 -0.2084
 4333TIP3    H134414   5.139   5.692   1.361  0.6128  3.5185 -0.9388
 4333TIP3    H234415   5.279   5.651   1.400 -0.9248 -1.5959 -0.1274
 4334TIP3   OH234416   1.486   0.114   1.185 -0.0935  0.7652 -0.3438
 4334TIP3    H134417   1.460   0.136   1.275  1.0760  2.9270 -0.4744
 4334TIP3    H234418   1.572   0.072   1.195  0.7447  2.3619 -0.4882
 4335TIP3   OH234419   4.440   3.038   3.833  0.4255 -0.2893 -0.2950
 4335TIP3    H134420   4.436   2.951   3.792 -0.6498 -1.7384  2.6197
 4335TIP3    H234421   4.506   3.029   3.902 -0.1758  1.0056  0.4813
 4336TIP3   OH234422   3.030   1.032   4.034  0.6733  0.3036 -0.1790
 4336TIP3    H134423   3.124   1.020   4.048  0.4019 -2.2344  0.0501
 4336TIP3    H234424   3.022   1.109   3.979  2.8491  0.8577  0.2178
 4337TIP3   OH234425   2.465   3.977   3.246 -0.7286  0.3714  0.0562
 4337TIP3    H134426   2.423   3.913   3.189 -1.3419 -0.6853  1.6573
 4337TIP3    H234427   2.559   3.963   3.232 -0.8637 -0.3097 -0.2118
 4338TIP3   OH234428   5.723   5.839  11.697 -0.6879  0.3885 -0.1409
 4338TIP3    H134429   5.650   5.900  11.707 -2.6393 -1.8642  0.3559
 4338TIP3    H234430   5.681   5.753  11.690  1.9240 -0.9561 -0.4257
 4339TIP3   OH234431   1.028   0.611   6.542  0.2848 -0.3742  0.0359
 4339TIP3    H134432   1.109   0.615   6.592 -1.2641 -0.7897  2.7913
 4339TIP3    H234433   1.009   0.702   6.519 -0.1024  0.1937  2.3394
 4340TIP3   OH234434   2.738   2.897   6.555 -0.7259 -0.5904  0.6975
 4340TIP3    H134435   2.699   2.978   6.587  1.0053  0.8982 -0.7593
 4340TIP3    H234436   2.669   2.831   6.564 -2.6016  1.3020  0.7455
 4341TIP3   OH234437   5.497   4.073  13.416  0.2651 -0.3919  0.1839
 4341TIP3    H134438   5.536   3.986  13.425  3.9491  1.1134  0.5826
 4341TIP3    H234439   5.491   4.086  13.321  1.4533 -0.4382  0.0847
 4342TIP3   OH234440   1.158   0.609  15.047 -0.2214 -0.4203  0.4995
 4342TIP3    H134441   1.200   0.525  15.026 -1.6008 -0.6893 -1.4211
 4342TIP3    H234442   1.174   0.664  14.970  2.1700  1.8111  2.3776
 4343TIP3   OH234443   4.394   5.636   3.921 -0.3145  0.3603  0.1213
 4343TIP3    H134444   4.357   5.563   3.971 -0.8247  1.1883  0.9793
 4343TIP3    H234445   4.486   5.638   3.946 -0.0520 -0.6264 -0.7006
 4344TIP3   OH234446   4.404   5.600   2.802  0.0436  0.5754 -0.2267
 4344TIP3    H134447   4.374   5.523   2.754 -1.9792  0.6431  0.8167
 4344TIP3    H234448   4.326   5.656   2.809  1.5274  2.8750 -1.2039
 4345TIP3   OH234449   1.975   2.906  13.239  0.0192  0.0642  1.0540
 4345TIP3    H134450   1.898   2.962  13.243  0.2082  0.3730  0.4724
 4345TIP3    H234451   1.974   2.869  13.150  0.6178  0.1850  0.9935
 4346TIP3   OH234452   2.551   4.661   6.371 -0.0752 -0.0685  0.3453
 4346TIP3    H134453   2.551   4.748   6.411 -0.3401 -0.3407  0.9652
 4346TIP3    H234454   2.614   4.611   6.423 -0.0701 -0.3002  0.1172
 4347TIP3   OH234455   1.522   0.129   4.415  0.6274  0.0104  0.6609
 4347TIP3    H134456   1.609   0.129   4.376  0.8619  0.9473  1.1524
 4347TIP3    H234457   1.532   0.177   4.497 -0.0184 -1.2485  1.5240
 4348TIP3   OH234458   3.724   1.397  13.830 -0.7133  0.7540  0.1411
 4348TIP3    H134459   3.695   1.407  13.739 -0.1921 -0.8818 -0.2289
 4348TIP3    H234460   3.768   1.313  13.832 -1.8710  0.1279  2.2207
 4349TIP3   OH234461   5.129   5.269   1.105 -0.0796 -0.4752 -0.3924
 4349TIP3    H134462   5.095   5.294   1.190  0.9961  1.4156 -0.4697
 4349TIP3    H234463   5.055   5.227   1.061 -0.8277 -0.9117  1.2029
 4350TIP3   OH234464   6.543   6.707   4.745 -0.0344 -0.0841 -0.3407
 4350TIP3    H134465   6.571   6.737   4.832 -0.0004 -0.6040 -0.1650
 4350TIP3    H234466   6.488   6.777   4.712 -0.6797 -0.2161  0.4297
 4351TIP3   OH234467   1.866   4.794  12.615 -0.2237 -0.2166  0.6393
 4351TIP3    H134468   1.865   4.838  12.530  0.0928 -1.2394  0.0971
 4351TIP3    H234469   1.956   4.806  12.647 -0.4448  0.5070  1.0316
 4352TIP3   OH234470   5.913   3.176  15.131  0.1606 -0.1873  0.1160
 4352TIP3    H134471   5.829   3.221  15.122  0.6520  0.7222 -0.1364
 4352TIP3    H234472   5.948   3.174  15.042 -0.6181 -2.6903 -0.2101
 4353TIP3   OH234473   4.674   0.045  16.264  0.0553  0.1754  0.6872
 4353TIP3    H134474   4.683  -0.014  16.339  1.0866  0.0385  0.4673
 4353TIP3    H234475   4.618  -0.003  16.203 -0.7053  0.2438  1.3062
 4354TIP3   OH234476   2.694   1.225  12.923  0.1745  0.8834 -0.2211
 4354TIP3    H134477   2.678   1.158  12.989  1.2698  0.3914 -0.4358
 4354TIP3    H234478   2.742   1.294  12.969  0.6462  0.6914 -0.4238
 4355TIP3   OH234479   3.255   6.314  13.358  0.0841  0.3584  0.3191
 4355TIP3    H134480   3.204   6.241  13.322  1.1878  0.0211 -0.6441
 4355TIP3    H234481   3.219   6.392  13.316  1.2065 -0.0079 -1.4328
 4356TIP3   OH234482   0.995   5.086  11.483 -0.2551  0.1021 -0.0651
 4356TIP3    H134483   1.026   5.028  11.553  1.2849  2.4117  1.3407
 4356TIP3    H234484   0.907   5.112  11.511 -0.5427 -0.7302 -0.1768
 4357TIP3   OH234485   6.045   4.775   3.345  0.3389 -0.3647  0.2291
 4357TIP3    H134486   6.044   4.803   3.254 -0.5631 -0.3774  0.2259
 4357TIP3    H234487   6.076   4.852   3.393 -2.6581  0.9233  0.2808
 4358TIP3   OH234488   4.261   3.421   4.087  0.0317 -0.0274  0.4085
 4358TIP3    H134489   4.170   3.406   4.110  0.3687  0.6670  2.4444
 4358TIP3    H234490   4.278   3.360   4.015 -1.7615 -0.8472  0.6282
 4359TIP3   OH234491   5.152   3.725  15.738  0.4029  0.6532 -0.6079
 4359TIP3    H134492   5.085   3.703  15.672  1.5714  1.5805 -2.1686
 4359TIP3    H234493   5.196   3.642  15.756  0.2344  0.4258 -1.2038
 4360TIP3   OH234494   2.684   1.754  14.313  0.3163  0.2402  0.5069
 4360TIP3    H134495   2.697   1.741  14.220 -0.5603  2.0760  0.0775
 4360TIP3    H234496   2.772   1.753  14.351  0.5843 -1.8754 -0.1038
 4361TIP3   OH234497   5.842   0.057  16.342 -0.0763 -0.3699  1.0249
 4361TIP3    H134498   5.783   0.056  16.266 -0.2764  0.0517  1.1685
 4361TIP3    H234499   5.919   0.105  16.311  0.4048 -1.3457  0.6886
 4362TIP3   OH234500   2.830   0.657  16.727  0.4010 -0.8783 -0.6328
 4362TIP3    H134501   2.864   0.572  16.756  2.3983  0.3820  0.9173
 4362TIP3    H234502   2.873   0.721  16.783  0.2622  1.3293 -2.8799
 4363TIP3   OH234503   3.473   2.836  16.770 -0.0349 -0.5576  0.3525
 4363TIP3    H134504   3.453   2.778  16.843 -0.8181  0.5359  1.0406
 4363TIP3    H234505   3.461   2.924  16.805 -0.2706 -0.0002 -1.0429
 4364TIP3   OH234506   5.473   4.841  16.561 -0.1125  0.2767  0.5867
 4364TIP3    H134507   5.504   4.908  16.621  2.6789 -0.6727  0.3339
 4364TIP3    H234508   5.542   4.832  16.495 -1.7019 -0.8346 -1.0653
 4365TIP3   OH234509   3.975   0.103  13.071  0.4712  0.3811  0.0240
 4365TIP3    H134510   4.069   0.095  13.089  0.1216  0.6115  2.2192
 4365TIP3    H234511   3.933   0.054  13.141 -1.0706 -0.1605 -1.2199
 4366TIP3   OH234512   1.638   5.685  15.925  0.1513 -0.3694  0.0402
 4366TIP3    H134513   1.600   5.627  15.858 -0.0275  0.1514 -0.3159
 4366TIP3    H234514   1.690   5.626  15.981 -0.8003 -1.0297  0.2611
 4367TIP3   OH234515   0.297   1.365   2.947 -0.5916  0.1076  0.0035
 4367TIP3    H134516   0.339   1.301   2.889  0.9425 -1.9730  3.0703
 4367TIP3    H234517   0.370   1.407   2.993 -1.7103  2.0064  0.1263
 4368TIP3   OH234518   0.940   6.467   2.622  0.4377 -0.3730  0.0086
 4368TIP3    H134519   0.937   6.373   2.609  0.6898 -0.3107 -0.5173
 4368TIP3    H234520   1.025   6.494   2.589  1.1043 -0.1882  1.7384
 4369TIP3   OH234521   0.363   1.609  10.965  0.2101 -0.3917  0.2905
 4369TIP3    H134522   0.353   1.701  10.940  1.8568 -0.0888  0.6028
 4369TIP3    H234523   0.434   1.610  11.030 -0.3368 -1.7894  0.9400
 4370TIP3   OH234524   3.232   6.679   4.772  0.2517  0.1579 -0.0276
 4370TIP3    H134525   3.224   6.632   4.689  1.1931 -1.0041  0.5163
 4370TIP3    H234526   3.318   6.654   4.806  0.0296  0.8959  1.1371
 4371TIP3   OH234527   6.496   1.631  14.777 -0.0998  0.3602 -0.9624
 4371TIP3    H134528   6.548   1.621  14.697  0.8966 -0.9011 -0.2043
 4371TIP3    H234529   6.526   1.560  14.834 -3.5066 -1.2894 -0.9390
 4372TIP3   OH234530   1.473   1.140   4.169  0.8034  0.1783  0.1842
 4372TIP3    H134531   1.478   1.054   4.209 -1.1125  0.1969  0.5742
 4372TIP3    H234532   1.563   1.163   4.148  1.2471 -2.6508 -1.5415
 4373TIP3   OH234533   2.258   1.592  13.064  0.2332  0.1256 -0.2915
 4373TIP3    H134534   2.342   1.601  13.019 -0.5187  1.3944 -1.5222
 4373TIP3    H234535   2.271   1.634  13.149  0.6806  0.8820 -0.7209
 4374TIP3   OH234536   3.353   3.109  17.177  0.0530  0.1359  0.0188
 4374TIP3    H134537   3.424   3.046  17.167  1.2292  1.0018  2.1453
 4374TIP3    H234538   3.284   3.060  17.221 -0.2211 -0.3987 -0.9787
 4375TIP3   OH234539   0.540   5.885  14.448 -0.2716  0.1252  0.1196
 4375TIP3    H134540   0.515   5.977  14.446 -1.3878 -0.1577  0.1901
 4375TIP3    H234541   0.465   5.841  14.488 -0.9628 -1.1696 -2.3835
 4376TIP3   OH234542   5.004   2.486  11.349 -0.1889 -0.4851 -0.3596
 4376TIP3    H134543   4.924   2.518  11.307 -0.7225 -0.0361  0.9462
 4376TIP3    H234544   5.046   2.564  11.384 -0.1527 -0.9102  0.5823
 4377TIP3   OH234545   6.476   5.793  15.943  0.1765  0.5373 -0.4861
 4377TIP3    H134546   6.480   5.756  15.855  0.8970  0.2006 -0.3169
 4377TIP3    H234547   6.425   5.730  15.993 -1.3848  1.3751 -0.9637
 4378TIP3   OH234548   0.177   1.469  11.461 -0.6095  0.0979 -0.3555
 4378TIP3    H134549   0.124   1.390  11.460 -0.1126 -0.4014  2.7975
 4378TIP3    H234550   0.220   1.471  11.375 -0.3946 -3.2155 -0.4378
 4379TIP3   OH234551   3.409   4.705   2.533 -0.0853 -0.4014 -0.5190
 4379TIP3    H134552   3.404   4.754   2.451 -1.7330  2.6752  1.2255
 4379TIP3    H234553   3.503   4.696   2.549  0.2760  0.8527 -1.7031
 4380TIP3   OH234554   0.376   3.057  14.919  0.0934 -0.0825 -0.1593
 4380TIP3    H134555   0.320   2.985  14.891  0.7637 -0.0507 -1.6675
 4380TIP3    H234556   0.362   3.125  14.853  1.7842 -0.0225 -0.4947
 4381TIP3   OH234557   1.297   4.039   6.112  0.2162  0.1532 -0.5430
 4381TIP3    H134558   1.368   3.980   6.088 -0.4432 -0.1780 -1.7708
 4381TIP3    H234559   1.283   4.022   6.205  0.8624 -0.7345 -0.5854
 4382TIP3   OH234560   5.793   0.002   1.481 -0.2320  0.2767 -0.2691
 4382TIP3    H134561   5.799   0.042   1.394  1.9697 -1.5696 -1.0722
 4382TIP3    H234562   5.755  -0.085   1.464  1.1171 -0.4817  0.4112
 4383TIP3   OH234563   5.196   0.160   0.033  0.4629 -0.0422 -0.2917
 4383TIP3    H134564   5.278   0.137   0.077 -0.8748 -3.7457  0.5946
 4383TIP3    H234565   5.134   0.093   0.061 -2.7166  2.1421 -1.5550
 4384TIP3   OH234566   4.545   3.359  16.405  0.0494 -0.3970  0.1659
 4384TIP3    H134567   4.593   3.333  16.326 -1.6988  0.4116 -1.2498
 4384TIP3    H234568   4.535   3.454  16.395 -1.3191 -0.4726  0.6959
 4385TIP3   OH234569   1.245   2.992   5.669  0.4889 -0.1002 -0.2054
 4385TIP3    H134570   1.327   3.037   5.692  0.1774 -0.0267  0.8369
 4385TIP3    H234571   1.261   2.901   5.694  0.7422 -0.3708 -1.3202
 4386TIP3   OH234572   0.916   4.167   0.656 -0.0695  0.3970  0.4369
 4386TIP3    H134573   0.970   4.163   0.735 -0.7429 -0.6303  0.8648
 4386TIP3    H234574   0.923   4.080   0.617  0.3523  0.9299 -0.7271
 4387TIP3   OH234575   2.707   3.124  16.181 -0.2575 -0.7521 -0.0771
 4387TIP3    H134576   2.612   3.139  16.180  0.0262  1.4727  0.1555
 4387TIP3    H234577   2.717   3.029  16.177 -2.4245 -1.0297 -4.1658
 4388TIP3   OH234578   5.781   4.892  14.527  0.3050 -0.4470  0.0432
 4388TIP3    H134579   5.809   4.878  14.436  0.4036 -2.3654  0.3227
 4388TIP3    H234580   5.801   4.984  14.544  1.1722 -0.2885 -1.5737
 4389TIP3   OH234581   4.003   5.320  13.296  0.0908 -0.2068  0.2259
 4389TIP3    H134582   4.038   5.409  13.290 -2.1735  0.6609 -1.2295
 4389TIP3    H234583   3.919   5.330  13.340 -1.5620 -1.1198 -2.4749
 4390TIP3   OH234584   3.224   6.126   4.595  0.1900  0.8289  0.2062
 4390TIP3    H134585   3.175   6.125   4.513 -0.7791  1.1909  0.7724
 4390TIP3    H234586   3.206   6.041   4.636  0.6341  0.6680  0.0829
 4391TIP3   OH234587   4.216   2.591   6.176  0.2823  0.2649 -0.1168
 4391TIP3    H134588   4.206   2.618   6.267  0.0647  1.8748 -0.5735
 4391TIP3    H234589   4.171   2.659   6.126  3.0172  1.1742 -1.5844
 4392TIP3   OH234590   2.658   0.342  16.517  0.3607  0.9096 -0.1709
 4392TIP3    H134591   2.636   0.252  16.494  1.8356  0.4058  0.2740
 4392TIP3    H234592   2.673   0.339  16.612  1.2313  1.4317 -0.2807
 4393TIP3   OH234593   5.788   0.230   6.590 -0.1919 -0.0680  0.0208
 4393TIP3    H134594   5.808   0.320   6.616  0.9482 -0.3954  0.3373
 4393TIP3    H234595   5.784   0.233   6.494 -3.0955  0.8781  0.0684
 4394TIP3   OH234596   0.475   6.626   4.324  0.1104  0.0959 -0.4328
 4394TIP3    H134597   0.458   6.552   4.266  0.3974  1.1956 -1.9809
 4394TIP3    H234598   0.569   6.620   4.343  0.9097  1.8470 -3.2655
 4395TIP3   OH234599   6.419   3.871  11.669 -0.1785  0.4474 -0.8137
 4395TIP3    H134600   6.474   3.949  11.671  1.7730 -0.8835  0.3282
 4395TIP3    H234601   6.453   3.819  11.596 -0.4927 -0.0110 -0.6400
 4396TIP3   OH234602   5.658   2.127  10.796 -0.0056 -0.3061 -1.0467
 4396TIP3    H134603   5.587   2.096  10.740 -1.5533  1.5442 -0.2228
 4396TIP3    H234604   5.645   2.222  10.800  3.0054  0.2054 -1.4760
 4397TIP3   OH234605   1.859   5.716  15.196 -0.1793 -0.0875 -0.1204
 4397TIP3    H134606   1.876   5.753  15.283  0.3520  1.1224 -0.7070
 4397TIP3    H234607   1.932   5.747  15.142 -0.6064 -0.6395 -1.0529
 4398TIP3   OH234608   0.880   2.880   4.672 -0.5082  0.0894  0.4122
 4398TIP3    H134609   0.786   2.878   4.688 -0.5717 -0.5551  0.0175
 4398TIP3    H234610   0.912   2.954   4.724 -1.3788  0.9696 -0.2831
 4399TIP3   OH234611   4.232   0.565  12.149  0.0201  0.6911  0.1527
 4399TIP3    H134612   4.159   0.626  12.138  0.6239  1.4183  0.1832
 4399TIP3    H234613   4.194   0.492  12.199 -0.0785  2.1674  2.3471
 4400TIP3   OH234614   5.726   0.563   0.498 -0.2119 -0.2615  0.3008
 4400TIP3    H134615   5.821   0.559   0.514 -0.3198 -0.5745  0.9441
 4400TIP3    H234616   5.690   0.600   0.579 -0.6998 -0.8197  0.3477
 4401TIP3   OH234617   4.186   1.675   5.887  0.5546  0.5522  0.1348
 4401TIP3    H134618   4.107   1.659   5.836  0.4541  0.6233  0.2667
 4401TIP3    H234619   4.258   1.655   5.827  0.4387 -0.4488  0.3144
 4402TIP3   OH234620   5.278   4.794  16.029  0.0478  0.3337  0.1537
 4402TIP3    H134621   5.332   4.866  16.059 -0.3014  0.5948  0.1600
 4402TIP3    H234622   5.192   4.833  16.011  0.3359  0.2521 -1.5430
 4403TIP3   OH234623   5.537   4.552  14.105  0.5808  0.9301 -0.4789
 4403TIP3    H134624   5.582   4.521  14.026 -0.9942  0.6993 -1.3301
 4403TIP3    H234625   5.529   4.474  14.160  1.3874  1.0201 -0.2201
 4404TIP3   OH234626   4.276   0.793  16.787 -0.1563 -0.5212  0.0886
 4404TIP3    H134627   4.268   0.783  16.692 -0.5184 -0.0185  0.0588
 4404TIP3    H234628   4.367   0.818  16.801 -0.6846  1.9706 -0.3942
 4405TIP3   OH234629   2.472   4.203  13.829  0.7757  0.0802  0.0310
 4405TIP3    H134630   2.451   4.167  13.743 -1.6911  0.1031  0.5730
 4405TIP3    H234631   2.466   4.128  13.889  4.1170 -0.3195  0.0814
 4406TIP3   OH234632   3.639   1.117   4.752 -0.4784  0.1321 -0.4652
 4406TIP3    H134633   3.680   1.048   4.805 -1.4769 -1.2357 -1.3801
 4406TIP3    H234634   3.651   1.087   4.662 -3.3885 -0.3386 -0.7974
 4407TIP3   OH234635   1.755   1.203  13.360 -0.2734  0.2617  0.2631
 4407TIP3    H134636   1.673   1.200  13.409  0.5687  1.6161  1.8669
 4407TIP3    H234637   1.823   1.202  13.427  0.9145  3.8160 -0.6665
 4408TIP3   OH234638   0.317   5.334  11.765 -0.2316 -0.0728  0.0220
 4408TIP3    H134639   0.232   5.301  11.796  0.2600 -2.0686 -0.6675
 4408TIP3    H234640   0.294   5.395  11.695 -1.0741 -1.3558 -0.8506
 4409TIP3   OH234641   1.798   3.727  12.911 -0.0704  0.4685 -0.0360
 4409TIP3    H134642   1.840   3.654  12.867 -1.1710  0.1303 -0.5693
 4409TIP3    H234643   1.704   3.710  12.902 -0.4124  2.5683 -1.3244
 4410TIP3   OH234644   4.464   2.217   2.304 -0.3485 -0.3427 -0.5609
 4410TIP3    H134645   4.417   2.135   2.290  0.5558 -0.7369 -1.3846
 4410TIP3    H234646   4.421   2.279   2.246 -0.5183 -0.4319 -0.5340
 4411TIP3   OH234647   0.367   1.146   5.055  0.2081  0.5905  0.0810
 4411TIP3    H134648   0.283   1.104   5.070  0.0770  0.8627  0.1191
 4411TIP3    H234649   0.371   1.216   5.120  1.3933 -0.7314  1.5014
 4412TIP3   OH234650   4.861   1.690   2.985  0.3036  0.4039 -0.4081
 4412TIP3    H134651   4.832   1.781   2.977  0.8995  0.8450  1.7368
 4412TIP3    H234652   4.927   1.692   3.054  0.0604 -1.7325 -0.0357
 4413TIP3   OH234653   3.464   6.705  13.060  0.1268 -0.2224 -0.4414
 4413TIP3    H134654   3.513   6.721  12.979 -0.7756 -0.8378 -1.1222
 4413TIP3    H234655   3.492   6.618  13.088  0.8061  0.1835  0.2002
 4414TIP3   OH234656   6.574   2.806  11.336  0.2627  0.1999 -0.2644
 4414TIP3    H134657   6.623   2.865  11.279  0.9082  0.9580  1.0282
 4414TIP3    H234658   6.525   2.864  11.395  0.4318 -0.5446  0.6358
 4415TIP3   OH234659   4.911   0.933   3.211  1.3228 -0.2152  0.3167
 4415TIP3    H134660   4.952   1.001   3.158  0.0133  0.8187  0.5511
 4415TIP3    H234661   4.983   0.895   3.262  2.1820  0.5829 -0.2704
 4416TIP3   OH234662   2.755   5.412  12.343  0.2272 -0.1878 -0.5478
 4416TIP3    H134663   2.677   5.467  12.338  0.1630 -0.0610  1.2100
 4416TIP3    H234664   2.733   5.334  12.292 -0.3220  0.6572 -1.6321
 4417TIP3   OH234665   4.088   5.347   2.841 -0.3311  0.0490  0.5369
 4417TIP3    H134666   4.039   5.284   2.790  2.6981 -1.3670 -0.8463
 4417TIP3    H234667   4.117   5.299   2.919  1.0454  0.0015  0.0291
 4418TIP3   OH234668   3.560   6.086   6.447  0.4619  0.1287  0.1213
 4418TIP3    H134669   3.639   6.034   6.432  0.2041 -0.7639  1.6529
 4418TIP3    H234670   3.489   6.030   6.415  0.4390  1.2086 -1.9051
 4419TIP3   OH234671   5.233   6.148  13.573  0.0620  0.3631  0.2540
 4419TIP3    H134672   5.177   6.115  13.502  1.0780 -1.0383  0.0483
 4419TIP3    H234673   5.225   6.082  13.642 -0.0602  1.1513  1.0002
 4420TIP3   OH234674   3.362   4.630   1.061 -0.2455 -0.0623 -0.0259
 4420TIP3    H134675   3.280   4.626   1.012  0.4427  0.5900 -1.2734
 4420TIP3    H234676   3.336   4.620   1.153 -1.9066  1.9648 -0.2210
 4421TIP3   OH234677   3.935   2.817  12.519 -0.0004 -0.0584 -0.0224
 4421TIP3    H134678   3.990   2.777  12.586  0.8317  0.2034 -0.5301
 4421TIP3    H234679   3.898   2.743  12.471 -2.1377 -0.3286  1.8522
 4422TIP3   OH234680   2.904   4.993  12.109 -0.3051 -0.0657  0.4750
 4422TIP3    H134681   2.897   4.978  12.203 -0.8258 -1.6130  0.2163
 4422TIP3    H234682   2.960   5.070  12.101  0.0430 -0.1288  2.0313
 4423TIP3   OH234683   6.265   2.944  14.924 -0.5069 -0.2153  0.3248
 4423TIP3    H134684   6.293   2.863  14.967 -0.1426 -1.1267 -1.5223
 4423TIP3    H234685   6.337   2.965  14.864 -1.6708  0.0832 -1.0144
 4424TIP3   OH234686   6.061   3.347  11.670  0.6088 -0.1697  0.2646
 4424TIP3    H134687   6.026   3.430  11.704  2.6700  1.6004 -1.5812
 4424TIP3    H234688   6.155   3.353  11.684  0.8153 -2.2310  0.0531
 4425TIP3   OH234689   2.671   2.256  12.632  0.6596  0.0073 -0.1354
 4425TIP3    H134690   2.690   2.248  12.538  1.4723 -2.4332  0.1652
 4425TIP3    H234691   2.748   2.301  12.668  1.0024 -0.3237 -0.4462
 4426TIP3   OH234692   5.263   2.754  10.236  0.0138 -0.2468 -0.3781
 4426TIP3    H134693   5.259   2.683  10.301 -3.4170 -0.0168 -0.1205
 4426TIP3    H234694   5.312   2.824  10.280 -0.9990 -0.6120  1.4648
 4427TIP3   OH234695   3.661   1.250  15.339 -0.4709  0.5514 -0.5691
 4427TIP3    H134696   3.593   1.296  15.389  0.9036  0.5016  1.4979
 4427TIP3    H234697   3.743   1.291  15.369  0.5248 -0.5892 -1.6509
 4428TIP3   OH234698   6.539   4.619  14.936  0.3027  0.3975  0.4085
 4428TIP3    H134699   6.561   4.685  15.002 -0.9753  0.2910  0.9611
 4428TIP3    H234700   6.446   4.602  14.948  1.0083 -3.4013  2.0721
 4429TIP3   OH234701   1.882   4.167  12.654  0.2706 -0.0575  0.0308
 4429TIP3    H134702   1.840   4.082  12.666  1.6649 -0.9592 -1.1140
 4429TIP3    H234703   1.950   4.170  12.722  0.2149  0.1365  0.0769
 4430TIP3   OH234704   1.466   1.879   2.531  0.5044  0.0630  0.3405
 4430TIP3    H134705   1.549   1.926   2.522  0.5872 -0.4583 -2.4229
 4430TIP3    H234706   1.401   1.939   2.496  0.0886 -0.4929  0.1457
 4431TIP3   OH234707   3.605   5.433   5.783 -0.3451  0.2020  0.0890
 4431TIP3    H134708   3.601   5.421   5.878  1.8421  2.3724  0.5692
 4431TIP3    H234709   3.663   5.509   5.771  1.3931 -1.4197 -3.0695
 4432TIP3   OH234710   4.141   4.146  15.458 -0.5234 -0.1728 -0.1242
 4432TIP3    H134711   4.207   4.086  15.424 -1.3582 -0.7957 -0.6872
 4432TIP3    H234712   4.179   4.233  15.447 -0.0208 -0.4850 -0.9484
 4433TIP3   OH234713   3.814   5.460  16.791  0.2635  0.5958 -0.3162
 4433TIP3    H134714   3.767   5.526  16.842  1.2873  0.4968  0.8013
 4433TIP3    H234715   3.776   5.377  16.819  0.5041  0.5710 -0.0628
 4434TIP3   OH234716   0.754   5.231   5.947 -0.6764 -0.1277 -0.8383
 4434TIP3    H134717   0.738   5.139   5.971 -0.3904 -0.3592 -1.5316
 4434TIP3    H234718   0.791   5.269   6.027  0.2690 -0.8984 -0.8754
 4435TIP3   OH234719   5.851   1.699   0.292 -0.3747  0.0548 -0.2919
 4435TIP3    H134720   5.787   1.731   0.355  0.1742 -0.4530  0.5434
 4435TIP3    H234721   5.901   1.633   0.340  1.3271  1.0161 -0.6571
 4436TIP3   OH234722   3.039   2.077  17.091  0.1700  0.0478 -0.0091
 4436TIP3    H134723   3.036   2.049  17.182  0.1950 -0.5035 -0.1766
 4436TIP3    H234724   3.120   2.039  17.057 -0.4672 -0.8072 -0.6020
 4437TIP3   OH234725   6.333   2.896  14.599 -0.2693  0.2622  0.3976
 4437TIP3    H134726   6.363   2.959  14.664  3.0822 -0.2764 -0.4771
 4437TIP3    H234727   6.349   2.811  14.639 -1.1916 -0.0759  0.0791
 4438TIP3   OH234728   5.757   2.123  14.649  0.0817 -0.1214  0.3484
 4438TIP3    H134729   5.672   2.166  14.647 -0.8365 -1.8821 -0.2177
 4438TIP3    H234730   5.748   2.053  14.713  1.1057 -0.3491  0.2634
 4439TIP3   OH234731   4.483   2.306  13.649 -0.2374  0.1495  0.6480
 4439TIP3    H134732   4.455   2.242  13.584 -0.2302  0.1245  0.6692
 4439TIP3    H234733   4.402   2.329  13.696 -0.2811  0.3316  0.4872
 4440TIP3   OH234734   2.983   1.835  11.870  0.4397  0.1902 -0.6024
 4440TIP3    H134735   3.057   1.786  11.833 -0.7348 -0.4076 -2.2973
 4440TIP3    H234736   2.979   1.806  11.961  1.9060 -0.2282 -0.6357
 4441TIP3   OH234737   6.221   0.114  15.992  0.1465 -0.6655 -0.0409
 4441TIP3    H134738   6.306   0.079  16.019  1.5942  2.0893 -0.5863
 4441TIP3    H234739   6.230   0.128  15.897 -1.4478 -1.5984 -0.3672
 4442TIP3   OH234740   3.689   4.592  11.679 -0.5671  0.1694  0.4234
 4442TIP3    H134741   3.722   4.618  11.593 -0.7375  0.2112  0.3700
 4442TIP3    H234742   3.627   4.661  11.703  0.2702  0.7168  1.0619
 4443TIP3   OH234743   4.675   3.136  17.198 -0.1745  0.2971 -0.2930
 4443TIP3    H134744   4.667   3.230  17.186  0.6018  0.5281  0.8288
 4443TIP3    H234745   4.605   3.113  17.259 -0.4919  0.1003 -0.7223
 4444TIP3   OH234746   1.556   6.254   3.761 -0.1406 -0.1834  0.1988
 4444TIP3    H134747   1.605   6.337   3.762  0.7398 -0.6739 -0.5800
 4444TIP3    H234748   1.615   6.191   3.802 -1.5473 -0.0709  2.5510
 4445TIP3   OH234749   3.967   4.051   3.895  0.3446 -0.0455  0.1590
 4445TIP3    H134750   3.888   4.035   3.843 -0.2116  1.1674  0.5987
 4445TIP3    H234751   4.030   4.086   3.831  0.0473  0.3449  0.0741
 4446TIP3   OH234752   1.134   1.644  11.369  0.1369  0.5115  0.4490
 4446TIP3    H134753   1.092   1.568  11.409 -0.6923  1.0015  0.5300
 4446TIP3    H234754   1.137   1.623  11.276 -0.4874  0.5529  0.4116
 4447TIP3   OH234755   5.616   0.044   4.706  0.3165 -0.4164  0.4261
 4447TIP3    H134756   5.523   0.037   4.684  0.5778  0.2870 -1.0125
 4447TIP3    H234757   5.641   0.132   4.678  1.4469 -0.6439  0.6705
 4448TIP3   OH234758   5.643   3.901   1.677  0.1075 -0.0725  0.2323
 4448TIP3    H134759   5.573   3.958   1.645  0.0430  1.2754  2.5228
 4448TIP3    H234760   5.720   3.958   1.680  0.4950 -0.6180  0.8418
 4449TIP3   OH234761   6.731   4.170  14.129  0.1362  0.0322  0.0442
 4449TIP3    H134762   6.745   4.109  14.201  2.4727  1.4615  0.9219
 4449TIP3    H234763   6.636   4.179  14.123 -0.2255 -2.6175  0.7305
 4450TIP3   OH234764   0.709   0.189   5.647  0.2608 -0.4303  0.4231
 4450TIP3    H134765   0.651   0.265   5.648 -1.5389 -1.6600 -1.6278
 4450TIP3    H234766   0.735   0.179   5.556  3.4412 -0.2123  1.1972
 4451TIP3   OH234767   5.629   4.332   5.592 -0.0354  0.1364  1.0016
 4451TIP3    H134768   5.558   4.376   5.544  0.7301 -0.2961 -0.6221
 4451TIP3    H234769   5.703   4.393   5.585  1.1242 -1.4007 -1.5178
 4452TIP3   OH234770   4.091   4.556   6.356  0.2806  0.0690 -0.0456
 4452TIP3    H134771   4.153   4.512   6.297 -0.7067  0.1565 -1.1876
 4452TIP3    H234772   4.018   4.494   6.365  0.2057  0.2533  0.7268
 4453TIP3   OH234773   2.472   1.852  14.496  0.1424 -0.8306 -0.0996
 4453TIP3    H134774   2.534   1.908  14.542 -1.4769  0.4268  0.6280
 4453TIP3    H234775   2.512   1.838  14.410  0.6836  1.3315 -0.2498
 4454TIP3   OH234776   1.044   5.450   4.509  0.1616  0.1086  0.6600
 4454TIP3    H134777   1.049   5.545   4.506 -1.4670  0.2947  2.2210
 4454TIP3    H234778   1.025   5.429   4.600  1.0784 -1.7728  0.4807
 4455TIP3   OH234779   5.123   4.536  13.311 -0.1411 -0.0345 -0.0237
 4455TIP3    H134780   5.204   4.492  13.286 -0.2472  0.0864 -0.6041
 4455TIP3    H234781   5.078   4.475  13.369 -0.2434 -0.6530 -0.7450
 4456TIP3   OH234782   1.686   1.609   4.919  0.2881  0.1260 -0.2154
 4456TIP3    H134783   1.727   1.526   4.942  0.2868  0.6087  1.7112
 4456TIP3    H234784   1.747   1.650   4.859  1.8912  0.1120  1.3129
 4457TIP3   OH234785   5.500   6.197   2.922 -0.5849  0.2269  0.1519
 4457TIP3    H134786   5.541   6.117   2.954 -1.1478 -1.5345 -3.1340
 4457TIP3    H234787   5.572   6.257   2.906  0.1303 -0.6123  0.1580
 4458TIP3   OH234788   0.975   6.758   3.162 -0.1373 -0.0150  0.1979
 4458TIP3    H134789   0.916   6.809   3.107  0.2316  1.1811  0.8588
 4458TIP3    H234790   1.053   6.814   3.171  0.3841 -0.8102  0.7502
 4459TIP3   OH234791   1.695   4.000  17.012  0.5137 -1.3340 -0.0496
 4459TIP3    H134792   1.644   3.941  17.068  1.7240 -2.9224 -0.5379
 4459TIP3    H234793   1.783   3.964  17.014  1.3883  0.6662 -0.1530
 4460TIP3   OH234794   0.844   3.675   3.274 -0.4295  0.1435  0.0391
 4460TIP3    H134795   0.899   3.750   3.295  1.4938 -1.0174 -0.5834
 4460TIP3    H234796   0.814   3.642   3.359 -3.2220  2.8524  0.2719
 4461TIP3   OH234797   4.200   3.242  13.205 -0.1088  0.3558 -0.3202
 4461TIP3    H134798   4.175   3.150  13.218  1.4740 -0.1498 -0.6927
 4461TIP3    H234799   4.292   3.246  13.228  0.1611  1.6009 -1.4715
 4462TIP3   OH234800   0.617   1.835   2.094 -0.2489  0.0752 -0.7711
 4462TIP3    H134801   0.526   1.805   2.100 -0.6202  0.5337 -3.2120
 4462TIP3    H234802   0.654   1.817   2.181 -2.2189 -1.5645 -0.2013
 4463TIP3   OH234803   4.242   5.886   5.979  0.4509  0.2924  0.1250
 4463TIP3    H134804   4.177   5.857   6.043 -0.6799  0.4972 -0.8817
 4463TIP3    H234805   4.196   5.883   5.895  1.1930  2.0906 -0.4111
 4464TIP3   OH234806   6.060   0.494  13.872 -0.2676  0.9155  0.3236
 4464TIP3    H134807   6.138   0.457  13.831 -0.5256 -0.4737  1.0360
 4464TIP3    H234808   6.093   0.566  13.926  0.1135  2.5889 -1.9620
 4465TIP3   OH234809   4.293   3.872   3.772  0.3242 -0.2806  0.1327
 4465TIP3    H134810   4.217   3.909   3.725  1.7274  2.6589 -0.0280
 4465TIP3    H234811   4.263   3.786   3.802 -2.1374 -0.3928 -2.2760
 4466TIP3   OH234812   6.746   0.652   5.258  0.5193  0.6850 -0.5205
 4466TIP3    H134813   6.661   0.611   5.263  0.3957  1.0241  0.5612
 4466TIP3    H234814   6.727   0.746   5.255  0.8577  0.8012  0.6021
 4467TIP3   OH234815   4.417   2.987   1.899  0.2411  0.1200 -0.7402
 4467TIP3    H134816   4.438   2.899   1.868 -1.3152 -0.3382 -0.5467
 4467TIP3    H234817   4.498   3.036   1.885  0.2781 -0.5596 -3.6092
 4468TIP3   OH234818   6.040   6.343  12.583  0.5698  0.1189  0.0661
 4468TIP3    H134819   6.101   6.314  12.515 -0.7960 -0.1666 -1.0824
 4468TIP3    H234820   6.094   6.395  12.643  1.6869  1.0683 -1.6673
 4469TIP3   OH234821   4.839   6.247  14.047 -0.1563 -0.0766 -0.0861
 4469TIP3    H134822   4.882   6.244  13.961  0.8675  1.6590  0.3126
 4469TIP3    H234823   4.874   6.172  14.094 -1.0184 -1.2758 -1.2768
 4470TIP3   OH234824   5.649   4.694  16.942  0.1845 -0.5232 -0.0384
 4470TIP3    H134825   5.701   4.755  16.996  1.7115 -2.2318  0.5324
 4470TIP3    H234826   5.679   4.710  16.853 -0.7742  0.8074 -0.1484
 4471TIP3   OH234827   5.552   0.038  13.170  0.0287 -0.2200  0.0845
 4471TIP3    H134828   5.513  -0.038  13.214 -1.3081 -0.1422 -0.8963
 4471TIP3    H234829   5.549   0.108  13.234 -0.8894 -0.3970  0.2453
 4472TIP3   OH234830   0.875   0.768   3.147  0.3119  0.3340  0.3058
 4472TIP3    H134831   0.837   0.857   3.146 -0.6503 -0.0642 -0.5469
 4472TIP3    H234832   0.964   0.780   3.116  0.0853  0.9635 -0.1369
 4473TIP3   OH234833   6.220   2.252   0.041  0.3634  0.1288  0.5378
 4473TIP3    H134834   6.291   2.237  -0.021 -0.0801 -0.0959  0.0810
 4473TIP3    H234835   6.193   2.165   0.068 -2.1019 -0.0272 -1.9857
 4474TIP3   OH234836   6.564   2.239  14.322 -0.5020  0.7120 -0.0628
 4474TIP3    H134837   6.607   2.324  14.309  0.1705  0.0151 -3.1369
 4474TIP3    H234838   6.612   2.199  14.394  1.4811  1.5727 -0.8339
 4475TIP3   OH234839   6.007   5.071   4.357  0.3894 -0.3000  0.4020
 4475TIP3    H134840   6.078   5.132   4.335  0.4304 -1.1709 -2.2104
 4475TIP3    H234841   5.929   5.110   4.319 -0.3141 -0.0967  1.9673
 4476TIP3   OH234842   6.451   3.029  13.347 -0.1488 -0.7759 -0.3433
 4476TIP3    H134843   6.488   3.090  13.411  2.1315 -2.6109  0.2136
 4476TIP3    H234844   6.407   2.963  13.400 -2.1166  0.0308 -0.9169
 4477TIP3   OH234845   6.395   1.799   2.566  0.4959 -0.0164  0.1550
 4477TIP3    H134846   6.305   1.825   2.545  0.3224 -0.6047  0.1472
 4477TIP3    H234847   6.397   1.705   2.550  0.5738 -0.3619  2.0268
 4478TIP3   OH234848   1.745   5.606   5.767 -0.6347  0.2672 -0.0777
 4478TIP3    H134849   1.701   5.548   5.704  2.3008 -1.1222 -1.0115
 4478TIP3    H234850   1.743   5.557   5.849  0.6390 -0.6075 -0.5413
 4479TIP3   OH234851   3.540   2.841   3.108 -0.0631 -0.0970  0.0525
 4479TIP3    H134852   3.459   2.858   3.156  0.1455 -2.1892  1.2575
 4479TIP3    H234853   3.531   2.891   3.027 -2.4764 -0.1091  0.2537
 4480TIP3   OH234854   1.593   5.086  16.903  0.0064  0.4244  0.4928
 4480TIP3    H134855   1.589   5.015  16.967  0.1862  0.7019  0.8132
 4480TIP3    H234856   1.574   5.043  16.819  1.0151 -0.1684  0.5559
 4481TIP3   OH234857   3.932   3.704   1.204 -0.0136 -0.3789 -0.0517
 4481TIP3    H134858   3.836   3.706   1.208  0.0310 -0.7029  2.4410
 4481TIP3    H234859   3.955   3.783   1.155 -1.5203  0.3983  0.4266
 4482TIP3   OH234860   3.589   1.676   3.791  0.2490 -0.7496  0.0452
 4482TIP3    H134861   3.594   1.601   3.850  2.2227 -1.1585 -0.5470
 4482TIP3    H234862   3.505   1.666   3.746 -0.0995 -1.8744  0.9009
 4483TIP3   OH234863   6.340   0.290  13.205 -0.7804  0.2997  0.0538
 4483TIP3    H134864   6.426   0.331  13.195  0.0705 -1.6612 -1.1152
 4483TIP3    H234865   6.304   0.286  13.117 -2.0372  0.9485  0.5104
 4484TIP3   OH234866   2.109   1.760  11.664  1.0354 -0.6752  0.5935
 4484TIP3    H134867   2.122   1.797  11.577  2.4683  0.1175  1.1116
 4484TIP3    H234868   2.074   1.672  11.648  2.2563 -0.9421 -0.8362
 4485TIP3   OH234869   2.657   4.494   4.855  0.0261 -0.0146 -0.0957
 4485TIP3    H134870   2.711   4.573   4.858  0.7972 -0.4954 -0.8802
 4485TIP3    H234871   2.655   4.470   4.762 -1.6658  0.0589 -0.1106
 4486TIP3   OH234872   6.498   6.487   0.781  0.0104  0.8860 -0.1398
 4486TIP3    H134873   6.537   6.530   0.705 -1.0404  2.1139 -0.0135
 4486TIP3    H234874   6.418   6.448   0.748  1.8942 -2.9238 -0.7380
 4487TIP3   OH234875   0.493   1.649   5.156 -0.6835  0.2645 -0.2513
 4487TIP3    H134876   0.402   1.678   5.162 -0.7566  0.5046 -2.0442
 4487TIP3    H234877   0.536   1.716   5.102  0.8073  0.6641  1.3446
 4488TIP3   OH234878   2.751   2.160  12.396 -0.2459  0.3371 -0.6103
 4488TIP3    H134879   2.698   2.223  12.348  0.1207 -1.2136 -3.2337
 4488TIP3    H234880   2.829   2.148  12.342  0.7822 -0.6390  0.9986
 4489TIP3   OH234881   0.228   6.559  13.793  0.3739  0.3806  0.0666
 4489TIP3    H134882   0.215   6.483  13.737  1.5133  1.1053 -1.2510
 4489TIP3    H234883   0.256   6.628  13.733  0.0817  1.6440  1.3256
 4490TIP3   OH234884   3.278   4.315  12.086  0.7759  0.4510  0.1208
 4490TIP3    H134885   3.282   4.221  12.068  0.6590  0.3499  0.6017
 4490TIP3    H234886   3.260   4.320  12.180 -1.5373  0.9307 -0.2987
 4491TIP3   OH234887   2.091   3.481  11.915 -0.7178  0.5772 -0.1812
 4491TIP3    H134888   2.086   3.412  11.849  0.0275  0.4191 -0.0860
 4491TIP3    H234889   2.110   3.560  11.866  1.9757  0.1176 -0.0314
 4492TIP3   OH234890   1.630   3.436  10.961  0.1581  0.3622 -0.1464
 4492TIP3    H134891   1.569   3.483  11.017  1.5817  2.2140 -0.0448
 4492TIP3    H234892   1.606   3.461  10.872  1.2082  1.7412 -0.0723
 4493TIP3   OH234893   0.390   1.224   4.455 -0.7176 -0.0449 -0.2323
 4493TIP3    H134894   0.366   1.312   4.483 -2.1999 -0.3535 -0.4840
 4493TIP3    H234895   0.459   1.237   4.390  0.1218  0.8455  0.7922
 4494TIP3   OH234896   0.578   5.286   1.369 -0.0624  0.2533  0.1227
 4494TIP3    H134897   0.529   5.344   1.426  0.1400 -0.7200  1.3350
 4494TIP3    H234898   0.668   5.320   1.371  0.7247 -1.6145  3.1270
 4495TIP3   OH234899   2.086   2.617  16.712 -0.0081  0.4247  0.6907
 4495TIP3    H134900   2.061   2.693  16.765 -0.4474  1.7893 -1.3342
 4495TIP3    H234901   2.104   2.654  16.625  1.1247 -1.6287 -0.0208
 4496TIP3   OH234902   2.998   5.533  14.977  1.1103  0.0374  0.1704
 4496TIP3    H134903   3.032   5.575  15.057 -0.2445  1.0373  0.2722
 4496TIP3    H234904   2.908   5.565  14.971  0.7121 -1.2278 -0.9520
 4497TIP3   OH234905   5.504   5.831   3.822 -0.5927 -0.3355  0.4784
 4497TIP3    H134906   5.497   5.794   3.910 -0.4921  0.5378  0.8645
 4497TIP3    H234907   5.426   5.798   3.776 -2.1242  1.3321  1.7147
 4498TIP3   OH234908   4.850   5.861   4.883 -0.0395 -0.5045 -0.4858
 4498TIP3    H134909   4.944   5.869   4.900 -0.1068 -0.4552 -0.1250
 4498TIP3    H234910   4.841   5.778   4.835  0.2469 -0.2375 -1.0005
 4499TIP3   OH234911   4.936   4.055  10.741  0.5451 -0.7711 -0.5122
 4499TIP3    H134912   5.019   4.025  10.781  0.8543  0.2264 -0.3831
 4499TIP3    H234913   4.900   3.976  10.700  0.9853 -1.4839  0.4174
 4500TIP3   OH234914   1.034   0.468  15.470  0.0744  0.3403 -0.1817
 4500TIP3    H134915   0.968   0.458  15.402 -0.8247 -0.5896  0.7791
 4500TIP3    H234916   1.109   0.417  15.438 -1.0404 -1.7656  0.3303
 4501TIP3   OH234917   0.360   5.676  12.570  0.5652 -0.2369 -0.0351
 4501TIP3    H134918   0.354   5.653  12.663 -1.2037 -0.4944 -0.1796
 4501TIP3    H234919   0.294   5.622  12.527  2.1106 -0.9331 -1.6464
 4502TIP3   OH234920   1.594   6.453  12.924 -0.3633 -0.4727  0.0026
 4502TIP3    H134921   1.534   6.380  12.935  0.0643 -0.7185  0.7751
 4502TIP3    H234922   1.597   6.494  13.011  0.4750 -0.3818 -0.0665
 4503TIP3   OH234923   1.246   4.616  16.655  0.0129  0.3082  0.7593
 4503TIP3    H134924   1.212   4.530  16.680  0.8270 -0.3815 -0.4062
 4503TIP3    H234925   1.341   4.608  16.668 -0.0640  1.6548  2.4027
 4504TIP3   OH234926   5.808   0.147  14.679 -0.0236 -0.7936  0.2229
 4504TIP3    H134927   5.807   0.242  14.677  1.1202 -0.7784 -0.5305
 4504TIP3    H234928   5.769   0.120  14.596 -2.3824 -1.0581  1.3242
 4505TIP3   OH234929   3.617   4.558  13.447  0.2844  0.3443 -0.0679
 4505TIP3    H134930   3.631   4.547  13.541  0.7186  0.6966 -0.0838
 4505TIP3    H234931   3.619   4.470  13.412  1.5661  0.2910  0.0698
 4506TIP3   OH234932   3.221   4.026  15.262 -0.2965 -0.6208 -0.5855
 4506TIP3    H134933   3.303   3.983  15.236 -0.3038 -0.6031 -0.6395
 4506TIP3    H234934   3.245   4.080  15.337  0.1995  1.0019 -1.8555
 4507TIP3   OH234935   0.073   6.360   1.568 -1.2199  0.3104 -0.0781
 4507TIP3    H134936  -0.004   6.306   1.585  0.7634 -2.1250  1.9394
 4507TIP3    H234937   0.072   6.427   1.636 -2.0164  0.9128 -0.6601
 4508TIP3   OH234938   4.847   1.048  16.430 -0.2642 -0.4051 -0.0890
 4508TIP3    H134939   4.898   1.109  16.483 -0.8837  0.0282  0.0203
 4508TIP3    H234940   4.870   1.071  16.339 -1.1136  0.5682 -0.0781
 4509TIP3   OH234941   6.449   1.662   3.028 -0.7058 -0.3544  0.4084
 4509TIP3    H134942   6.375   1.690   2.974 -1.2125 -1.5711  0.4460
 4509TIP3    H234943   6.498   1.742   3.045 -1.5263  0.3273 -0.3613
 4510TIP3   OH234944   1.343   6.159  12.699  0.2078 -0.4411 -0.0005
 4510TIP3    H134945   1.256   6.148  12.662  0.0821 -0.6731  0.3544
 4510TIP3    H234946   1.397   6.188  12.626 -0.5100  1.3569  0.1373
 4511TIP3   OH234947   0.731   1.164  14.774 -0.0667  0.5671 -0.2465
 4511TIP3    H134948   0.740   1.102  14.846  0.4402  0.8178 -0.0920
 4511TIP3    H234949   0.797   1.137  14.710 -0.5917  0.2752 -0.6739
 4512TIP3   OH234950   4.129   2.271  13.625 -0.6675 -0.0377  0.6231
 4512TIP3    H134951   4.065   2.247  13.692 -1.8344  0.4834 -0.2741
 4512TIP3    H234952   4.180   2.342  13.665 -2.4765  1.4768  0.3861
 4513TIP3   OH234953   5.838   4.281   2.702 -0.1019 -0.3039  0.1274
 4513TIP3    H134954   5.879   4.280   2.616  1.1578  0.3545  0.6928
 4513TIP3    H234955   5.893   4.224   2.755 -0.8793 -0.7214  0.5033
 4514TIP3   OH234956   0.642   4.235  13.066 -0.1825 -0.1212  0.3800
 4514TIP3    H134957   0.551   4.204  13.072 -0.5334  1.0173  1.4342
 4514TIP3    H234958   0.686   4.192  13.140  0.2738 -1.0551 -0.4193
 4515TIP3   OH234959   3.603   2.422   6.361  0.1147  0.7421  0.0745
 4515TIP3    H134960   3.659   2.399   6.288 -1.0148 -0.2110 -0.5271
 4515TIP3    H234961   3.602   2.344   6.417 -0.2894  0.8939  0.2832
 4516TIP3   OH234962   0.272   0.443  11.930  0.6697  0.3177  0.2330
 4516TIP3    H134963   0.260   0.358  11.972 -0.2115  0.4039  0.1727
 4516TIP3    H234964   0.201   0.497  11.964  0.6191  0.7273 -0.4988
 4517TIP3   OH234965   2.290   3.413  15.201  0.3613 -0.4835 -0.7066
 4517TIP3    H134966   2.265   3.488  15.148  0.6812 -1.0711 -1.7315
 4517TIP3    H234967   2.385   3.421  15.210  0.3575 -0.5954 -0.5691
 4518TIP3   OH234968   4.247   6.786   1.291  0.1614  0.1837 -0.0189
 4518TIP3    H134969   4.338   6.810   1.270 -0.1196  0.6363 -0.7620
 4518TIP3    H234970   4.229   6.833   1.373  0.7826 -0.3966  0.4699
 4519TIP3   OH234971   3.813   3.845  11.856  0.4518 -0.0656 -0.0961
 4519TIP3    H134972   3.859   3.813  11.934  1.5998 -0.3463 -0.8573
 4519TIP3    H234973   3.760   3.771  11.827 -0.5568  0.2701  0.8066
 4520TIP3   OH234974   5.662   3.750   1.282  0.1962 -0.1861  0.9369
 4520TIP3    H134975   5.572   3.757   1.252  0.3777  1.9982  0.7410
 4520TIP3    H234976   5.709   3.819   1.235  2.1116 -1.6214  0.6092
 4521TIP3   OH234977   4.424   5.636  12.191  0.2270  0.3745 -0.4338
 4521TIP3    H134978   4.518   5.639  12.210  0.2515 -1.3392 -0.1106
 4521TIP3    H234979   4.409   5.546  12.161 -1.4499  0.3584  0.3491
 4522TIP3   OH234980   3.239   2.212  14.135  0.0168 -0.4298  0.2178
 4522TIP3    H134981   3.262   2.133  14.086 -0.2155 -0.2762 -0.1441
 4522TIP3    H234982   3.310   2.273  14.116 -0.4337 -0.1168 -0.5253
 4523TIP3   OH234983   6.677   2.394   5.843  0.1862  0.4607 -0.1608
 4523TIP3    H134984   6.734   2.390   5.766  0.6822 -0.6091  0.2538
 4523TIP3    H234985   6.711   2.467   5.894  1.6531 -0.6021  0.4345
 4524TIP3   OH234986   4.505   5.192   5.219 -0.1249  0.2298  0.3373
 4524TIP3    H134987   4.534   5.268   5.168 -0.7717  0.3905  0.1916
 4524TIP3    H234988   4.574   5.178   5.283  0.3679  0.4636 -0.1355
 4525TIP3   OH234989   3.738   0.921  14.592 -0.2037 -0.0660  0.0343
 4525TIP3    H134990   3.807   0.985  14.609  1.2978 -1.5813 -0.0417
 4525TIP3    H234991   3.747   0.902  14.498 -0.8245 -0.1909 -0.0016
 4526TIP3   OH234992   5.658   5.940   3.013  0.5283 -0.1077 -0.5854
 4526TIP3    H134993   5.586   5.880   3.029  0.6365 -0.1063 -0.0622
 4526TIP3    H234994   5.737   5.889   3.032  0.6384  0.0698 -0.5620
 4527TIP3   OH234995   1.447   6.413   4.183  0.0139 -0.5475 -0.8907
 4527TIP3    H134996   1.362   6.453   4.164  0.8472  0.0528 -4.0157
 4527TIP3    H234997   1.504   6.487   4.205  0.1171 -0.7404 -0.5053
 4528TIP3   OH234998   6.678   3.819  15.849 -0.1922  0.3443  0.6765
 4528TIP3    H134999   6.732   3.845  15.774  0.4954 -1.0716  0.6526
 4528TIP3    H235000   6.635   3.900  15.876 -0.2834  0.9456 -1.1012
 4529TIP3   OH235001   4.003   6.640   5.541  0.4001 -0.1100  0.2728
 4529TIP3    H135002   4.054   6.699   5.486 -0.5046 -0.0546 -0.5439
 4529TIP3    H235003   3.912   6.666   5.526 -0.2622 -3.1200 -1.9714
 4530TIP3   OH235004   5.146   6.323  16.352  0.2816  0.4028  0.2255
 4530TIP3    H135005   5.227   6.372  16.362 -0.0688  0.8310  1.0790
 4530TIP3    H235006   5.173   6.239  16.313  1.4780 -0.4068  2.5743
 4531TIP3   OH235007   1.926   0.363  14.298 -0.2212  0.2760 -0.2258
 4531TIP3    H135008   1.956   0.345  14.209 -2.9227 -2.4406 -0.7674
 4531TIP3    H235009   1.949   0.455  14.313  1.5611  0.4277 -3.1599
 4532TIP3   OH235010   1.175   2.510   4.396  0.2978 -0.0299 -0.2637
 4532TIP3    H135011   1.149   2.587   4.448  1.5256  0.3782 -0.2319
 4532TIP3    H235012   1.251   2.540   4.346  1.2261 -1.4296  0.2715
 4533TIP3   OH235013   0.617   0.587  11.578 -0.3645  0.3148  0.3225
 4533TIP3    H135014   0.549   0.588  11.511  0.2647 -2.7949 -0.5367
 4533TIP3    H235015   0.577   0.542  11.653  0.3951 -0.7677  0.1194
 4534TIP3   OH235016   1.809   6.609   2.098 -0.5478 -0.3093  0.0296
 4534TIP3    H135017   1.849   6.694   2.113  0.8037 -1.3640  3.6172
 4534TIP3    H235018   1.798   6.572   2.186 -2.7959 -3.1120 -1.2363
 4535TIP3   OH235019   4.062   0.558   0.991  0.2044 -0.2869  0.8109
 4535TIP3    H135020   4.142   0.576   0.941 -1.3204  1.3390 -1.1871
 4535TIP3    H235021   4.058   0.629   1.055  0.0275  0.0156  0.4673
 4536TIP3   OH235022   4.849   6.467   0.662  0.2389  0.2951  0.6660
 4536TIP3    H135023   4.907   6.543   0.672 -0.8722  1.3176 -0.3460
 4536TIP3    H235024   4.828   6.465   0.568 -2.6768  0.9920  1.2047
 4537TIP3   OH235025   0.191   2.611  13.086  0.2621  0.1511  0.2374
 4537TIP3    H135026   0.172   2.559  13.008  2.0702 -0.9766  0.5019
 4537TIP3    H235027   0.218   2.548  13.152  0.2271  1.2274  1.3191
 4538TIP3   OH235028   0.660   2.099  11.536 -0.1157 -0.0213 -0.2153
 4538TIP3    H135029   0.678   2.005  11.531 -0.3491 -0.0095 -2.1397
 4538TIP3    H235030   0.746   2.141  11.526  0.0038 -0.0119  0.7615
 4539TIP3   OH235031   0.996   3.521  13.330 -0.4589  0.6004 -0.5265
 4539TIP3    H135032   1.007   3.438  13.377 -0.1512 -1.5632 -4.1189
 4539TIP3    H235033   1.085   3.556  13.322  0.1124 -1.1510 -2.8832
 4540TIP3   OH235034   0.646   4.115   3.926 -0.1812  0.6746 -0.5096
 4540TIP3    H135035   0.701   4.190   3.902  1.1938 -0.1129  0.0285
 4540TIP3    H235036   0.698   4.039   3.901 -1.4723 -0.1090 -0.8716
 4541TIP3   OH235037   1.453   3.554   3.618 -0.4655 -0.1293 -0.0855
 4541TIP3    H135038   1.508   3.610   3.672 -0.8202 -2.5784  3.1509
 4541TIP3    H235039   1.510   3.482   3.591 -0.8914 -0.1383 -1.0336
 4542TIP3   OH235040   1.466   0.569   0.841  0.3995 -0.1869 -0.9680
 4542TIP3    H135041   1.415   0.529   0.771 -0.0508 -1.9238  0.3118
 4542TIP3    H235042   1.441   0.523   0.920  2.9848 -0.2490 -0.0679
 4543TIP3   OH235043   6.517   5.426  13.198  0.2832 -0.3334  0.4522
 4543TIP3    H135044   6.493   5.449  13.108 -2.6640  0.4702  1.3214
 4543TIP3    H235045   6.443   5.374  13.230  0.5820  0.5482  2.8140
 4544TIP3   OH235046   2.905   0.955  11.909 -0.2088 -0.4689  0.4571
 4544TIP3    H135047   2.839   0.914  11.854 -0.4883  1.1669 -0.4780
 4544TIP3    H235048   2.918   0.893  11.981  0.4211 -2.8255 -1.5618
 4545TIP3   OH235049   0.992   5.385   1.775 -0.4065 -0.3339  0.3109
 4545TIP3    H135050   1.067   5.327   1.768 -0.0324  0.2077 -0.3182
 4545TIP3    H235051   1.023   5.468   1.738 -0.3631  0.8186  2.7482
 4546TIP3   OH235052   1.967   3.082  10.465 -0.3018  0.2402  0.9953
 4546TIP3    H135053   1.985   3.176  10.464  0.4195  0.1172 -0.2062
 4546TIP3    H235054   2.051   3.041  10.487 -0.1687 -0.1659 -0.1625
 4547TIP3   OH235055   6.580   2.148   5.607  0.2514  0.2428 -0.1420
 4547TIP3    H135056   6.674   2.165   5.597  0.1809  1.1597  0.6780
 4547TIP3    H235057   6.575   2.053   5.622  1.0738  0.2392  0.1739
 4548TIP3   OH235058   1.852   4.937  10.134  0.2208  0.5929  0.0861
 4548TIP3    H135059   1.852   4.867  10.069 -1.0840  0.0556  0.6263
 4548TIP3    H235060   1.943   4.945  10.161  0.5159 -0.3074 -0.5955
 4549TIP3   OH235061   4.786   1.548   2.285  0.1762  0.0882  0.3730
 4549TIP3    H135062   4.775   1.458   2.255 -0.3186  0.4293 -0.5394
 4549TIP3    H235063   4.880   1.559   2.297  0.1929 -0.6954  0.9749
 4550TIP3   OH235064   3.684   2.207  13.772  0.0749 -0.4551  0.0041
 4550TIP3    H135065   3.626   2.179  13.843 -0.8555  0.1738 -0.4971
 4550TIP3    H235066   3.626   2.242  13.705  1.1118  2.5108  0.4911
 4551TIP3   OH235067   4.362   3.768   5.307  0.0566  0.6414 -0.4000
 4551TIP3    H135068   4.268   3.779   5.293  0.2378  3.0340 -0.2956
 4551TIP3    H235069   4.376   3.674   5.308 -2.7924  0.0614  2.4902
 4552TIP3   OH235070   3.207   4.726   4.863 -0.8234  0.2156 -0.2523
 4552TIP3    H135071   3.270   4.763   4.925 -1.0082  1.2606 -0.6739
 4552TIP3    H235072   3.164   4.655   4.911 -1.0601  1.0981  0.8562
 4553TIP3   OH235073   6.469   3.233  13.859  0.2745 -0.4607  0.1321
 4553TIP3    H135074   6.421   3.291  13.800 -1.2124 -2.3964 -0.6775
 4553TIP3    H235075   6.559   3.264  13.855 -0.4830  1.9322 -0.0219
 4554TIP3   OH235076   4.384   3.146  11.414  0.4027  0.2695 -0.0696
 4554TIP3    H135077   4.379   3.177  11.324  0.6237 -0.3979 -0.3120
 4554TIP3    H235078   4.475   3.161  11.440  0.3270  0.5096  0.0664
 4555TIP3   OH235079   1.902   3.536   3.006  0.2079 -0.5827  0.2280
 4555TIP3    H135080   1.835   3.473   2.978  0.0201 -0.4523  0.3835
 4555TIP3    H235081   1.959   3.545   2.929 -0.2444 -0.3120 -0.0807
 4556TIP3   OH235082   1.188   0.092  15.007  0.0004 -0.1665 -0.0562
 4556TIP3    H135083   1.109   0.144  14.989  0.9115  0.9057 -1.0911
 4556TIP3    H235084   1.196   0.033  14.932 -0.4188 -1.0610  0.5877
 4557TIP3   OH235085   2.091   5.089   5.412  0.5649  0.1289 -0.2930
 4557TIP3    H135086   2.029   5.060   5.479  0.5018  1.7525  0.3937
 4557TIP3    H235087   2.137   5.009   5.387 -0.0527 -0.6854  1.0186
 4558TIP3   OH235088   2.352   6.749  12.113 -0.0840 -0.0057  0.6718
 4558TIP3    H135089   2.402   6.826  12.139 -1.8808  0.8433  1.7902
 4558TIP3    H235090   2.316   6.714  12.196 -1.2596 -0.6176 -0.0609
 4559TIP3   OH235091   5.665   1.398  14.887 -0.0870 -0.1855 -0.1884
 4559TIP3    H135092   5.582   1.365  14.853 -0.4720  0.4180  0.1297
 4559TIP3    H235093   5.677   1.352  14.970 -0.6677  0.5210  0.2994
 4560TIP3   OH235094   6.224   6.531   2.799  0.4334  0.2712  0.6597
 4560TIP3    H135095   6.134   6.553   2.822  0.2291 -1.3648  1.5143
 4560TIP3    H235096   6.219   6.497   2.710  0.0570 -0.6524  1.0240
 4561TIP3   OH235097   5.333   4.281  13.497  0.4166  0.2963 -0.6946
 4561TIP3    H135098   5.322   4.343  13.424 -1.8858 -1.0422 -1.5902
 4561TIP3    H235099   5.389   4.212  13.461  0.0670  0.1164 -0.9074
 4562TIP3   OH235100   0.756   0.685  15.736 -0.2882  0.2917  0.3135
 4562TIP3    H135101   0.788   0.744  15.668 -0.7309 -0.2956 -0.4126
 4562TIP3    H235102   0.671   0.721  15.761 -0.6562 -0.1399 -0.2813
 4563TIP3   OH235103   4.697   2.001   5.357  0.0607  0.1681  0.1963
 4563TIP3    H135104   4.738   1.975   5.275 -1.7502 -2.2207 -0.0488
 4563TIP3    H235105   4.629   2.063   5.330  1.7009  2.1646  0.3558
 4564TIP3   OH235106   5.636   1.303   4.379 -0.0262  0.0183 -0.3172
 4564TIP3    H135107   5.650   1.340   4.466  1.7405  0.1755 -0.6192
 4564TIP3    H235108   5.725   1.290   4.344 -0.6870 -0.0062 -2.1075
 4565TIP3   OH235109   2.315   0.541  14.837 -0.2241 -0.1212  0.4469
 4565TIP3    H135110   2.394   0.488  14.851  0.0408  0.0019 -0.4970
 4565TIP3    H235111   2.271   0.498  14.763 -0.9238 -0.0516  0.8212
 4566TIP3   OH235112   2.811   1.796   3.270  0.0057  0.6136 -0.3802
 4566TIP3    H135113   2.831   1.807   3.177 -1.2899 -0.0423 -0.7604
 4566TIP3    H235114   2.860   1.717   3.295 -0.2752  0.3330 -0.7072
 4567TIP3   OH235115   1.376   2.170  15.664 -0.8942  0.0750  0.0956
 4567TIP3    H135116   1.348   2.182  15.573 -0.2438  2.1736  0.1163
 4567TIP3    H235117   1.348   2.081  15.686  1.6877 -1.7973 -3.1478
 4568TIP3   OH235118   2.169   1.692  12.502 -0.9560 -0.4565 -0.2403
 4568TIP3    H135119   2.162   1.775  12.550 -1.2723  0.6280 -2.0844
 4568TIP3    H235120   2.247   1.650  12.538 -1.7262 -0.1881  1.9159
 4569TIP3   OH235121   4.718   6.246  14.446 -0.0082 -0.1916  0.3622
 4569TIP3    H135122   4.780   6.310  14.481 -0.1369  0.0863  0.0862
 4569TIP3    H235123   4.733   6.167  14.498  2.2332 -0.9078 -1.2234
 4570TIP3   OH235124   4.750   1.718  17.101 -0.0656 -0.0286 -0.3308
 4570TIP3    H135125   4.801   1.747  17.177 -0.3330 -0.6591  0.0994
 4570TIP3    H235126   4.702   1.642  17.132 -0.6622  0.0806 -0.9643
 4571TIP3   OH235127   1.198   6.697  13.121  0.7171  0.2286 -0.2581
 4571TIP3    H135128   1.146   6.619  13.109  0.7903  0.2134 -0.4853
 4571TIP3    H235129   1.193   6.716  13.215 -1.2432  1.3118 -0.5394
 4572TIP3   OH235130   2.792   5.936   4.499 -0.6231  0.4609  0.0318
 4572TIP3    H135131   2.738   5.965   4.425  0.0109  0.9807 -0.2381
 4572TIP3    H235132   2.864   5.999   4.502 -1.4400  1.3641  2.0623
 4573TIP3   OH235133   0.827   6.093  17.161  0.0718 -0.2783  0.0863
 4573TIP3    H135134   0.834   6.164  17.224  1.7899  0.1468 -0.5284
 4573TIP3    H235135   0.856   6.131  17.078 -2.5886 -0.6863 -1.1438
 4574TIP3   OH235136   1.023   4.442  15.933 -0.3780 -0.0988 -0.5674
 4574TIP3    H135137   1.048   4.517  15.987 -0.1545  2.0785 -3.4547
 4574TIP3    H235138   1.104   4.391  15.925  0.4807  1.3096 -1.4107
 4575TIP3   OH235139   3.021   1.436  17.069  0.5212 -0.0431  0.2628
 4575TIP3    H135140   3.082   1.467  17.136 -0.5639 -0.5201  1.5108
 4575TIP3    H235141   3.068   1.367  17.024  1.4341  0.5854  0.2207
 4576TIP3   OH235142   3.076   5.497  12.177 -0.2091 -0.5627  0.0557
 4576TIP3    H135143   3.019   5.540  12.114  0.2287  0.3706  0.2796
 4576TIP3    H235144   3.060   5.542  12.260  1.1231  0.0107  0.0406
 4577TIP3   OH235145   1.338   3.417  12.982  0.1390  0.3642  0.3785
 4577TIP3    H135146   1.363   3.362  12.908 -0.3095  1.4214 -0.5890
 4577TIP3    H235147   1.415   3.419  13.038  0.2005 -1.1298  0.3714
 4578TIP3   OH235148   0.271   6.691  10.627  0.3007 -0.7697  0.3965
 4578TIP3    H135149   0.366   6.680  10.623  0.4283  0.0002  1.0312
 4578TIP3    H235150   0.256   6.775  10.583  0.1270  0.0402  1.9214
 4579TIP3   OH235151   1.584   3.420  13.119 -0.3985 -0.0030 -0.3250
 4579TIP3    H135152   1.667   3.469  13.112 -0.9701  1.3212  1.4388
 4579TIP3    H235153   1.549   3.444  13.205 -2.0625 -1.4515 -0.5452
 4580TIP3   OH235154   0.696   0.727   2.521  0.2632 -0.4266 -0.0783
 4580TIP3    H135155   0.766   0.751   2.460 -1.3137 -0.5231 -2.0762
 4580TIP3    H235156   0.734   0.659   2.577  1.9324 -0.0193 -0.6765
 4581TIP3   OH235157   3.642   3.429  11.795 -1.0165  0.3841  0.4494
 4581TIP3    H135158   3.585   3.369  11.747  0.2599  1.2574 -2.3704
 4581TIP3    H235159   3.729   3.415  11.757 -0.8240  4.6896 -1.2580
 4582TIP3   OH235160   1.407   3.386  14.967  0.1569  0.2145 -0.0592
 4582TIP3    H135161   1.365   3.352  15.047  0.7232 -2.0735 -0.6496
 4582TIP3    H235162   1.335   3.419  14.914 -0.5552 -0.7342  0.2831
 4583TIP3   OH235163   5.565   6.391   2.355 -0.1395  0.6708  0.1300
 4583TIP3    H135164   5.536   6.468   2.405 -0.0586  0.6791  0.1643
 4583TIP3    H235165   5.522   6.317   2.397 -0.0107  0.6699  0.2586
 4584TIP3   OH235166   2.879   3.721  16.529  0.5035 -0.2099  0.2386
 4584TIP3    H135167   2.908   3.640  16.488  0.0114  0.3489 -1.2650
 4584TIP3    H235168   2.911   3.790  16.471 -1.1510  0.5519  0.1885
 4585TIP3   OH235169   0.449   5.958   3.854 -0.4067 -0.1919  0.2952
 4585TIP3    H135170   0.522   5.939   3.794  0.7706  0.8696  1.3447
 4585TIP3    H235171   0.439   6.053   3.850 -0.9562 -0.2149  1.0532
 4586TIP3   OH235172   6.474   1.926   6.451  0.2045  0.0092  0.1307
 4586TIP3    H135173   6.541   1.876   6.405  0.5607 -0.6785  1.3582
 4586TIP3    H235174   6.401   1.864   6.461  0.1867  0.1029  0.6011
 4587TIP3   OH235175   0.353   1.229  13.367 -0.3269 -0.1693 -0.5134
 4587TIP3    H135176   0.444   1.254  13.376 -0.0457 -0.8005 -1.4311
 4587TIP3    H235177   0.306   1.310  13.349 -0.1125  0.3036  0.9439
 4588TIP3   OH235178   2.038   4.813  13.168 -0.2412  0.2218  0.1839
 4588TIP3    H135179   1.980   4.741  13.193  1.1413 -1.3072 -0.7967
 4588TIP3    H235180   2.000   4.848  13.088 -1.1532  0.9039  0.8937
 4589TIP3   OH235181   0.053   3.634  15.524 -0.7927  0.6939 -0.1607
 4589TIP3    H135182   0.015   3.559  15.478 -0.0112  0.1909  0.0014
 4589TIP3    H235183   0.145   3.632  15.501 -0.4068  0.5180  1.2930
 4590TIP3   OH235184   0.913   1.402   6.139  0.5892 -0.1639 -0.2254
 4590TIP3    H135185   0.887   1.430   6.051 -1.9822  0.5932  0.6978
 4590TIP3    H235186   0.915   1.307   6.135  3.8303 -0.1825 -1.8991
 4591TIP3   OH235187   4.768   4.227  10.929  0.2196 -0.3194 -0.1178
 4591TIP3    H135188   4.825   4.190  10.861 -1.3620 -1.3369 -0.9793
 4591TIP3    H235189   4.731   4.150  10.972  0.8541  0.3259  1.6462
 4592TIP3   OH235190   5.467   1.039   3.089  0.4238  0.1699 -0.3883
 4592TIP3    H135191   5.464   0.994   3.005 -0.7314 -0.1121 -0.2096
 4592TIP3    H235192   5.401   1.109   3.081  1.0282  0.7906 -0.0734
 4593TIP3   OH235193   5.217   0.697   1.073  0.3789  0.0931  0.4248
 4593TIP3    H135194   5.214   0.616   1.124 -0.6781 -0.4165 -0.4017
 4593TIP3    H235195   5.308   0.726   1.080  0.7194 -1.0255  0.9567
 4594TIP3   OH235196   3.849   5.712   0.485 -0.4322 -0.1461 -0.0662
 4594TIP3    H135197   3.839   5.802   0.453 -0.4257 -0.8068 -2.0718
 4594TIP3    H235198   3.852   5.720   0.580 -0.6225  1.9532 -0.2012
 4595TIP3   OH235199   5.609   3.234   2.565  0.2036  0.2909 -0.3546
 4595TIP3    H135200   5.609   3.156   2.620  0.3551  0.3522 -0.2677
 4595TIP3    H235201   5.587   3.201   2.477 -0.1341  0.2084 -0.2411
 4596TIP3   OH235202   6.307   2.639   4.955 -0.0255  0.0772  0.2872
 4596TIP3    H135203   6.278   2.604   5.039 -1.3157  2.2756  0.8565
 4596TIP3    H235204   6.357   2.569   4.915  1.9981 -0.5399  3.5687
 4597TIP3   OH235205   1.151   2.790  15.606 -0.2148 -0.2511 -0.7939
 4597TIP3    H135206   1.196   2.874  15.598 -0.1450  0.2398  2.8418
 4597TIP3    H235207   1.196   2.732  15.544  5.2931  0.3283  2.0282
 4598TIP3   OH235208   6.758   0.363   3.446 -0.2157  0.0329 -0.0091
 4598TIP3    H135209   6.767   0.408   3.362  1.0116 -0.8915 -0.4032
 4598TIP3    H235210   6.767   0.433   3.511 -0.5390  0.6691 -0.6367
 4599TIP3   OH235211   0.364   5.717   0.650 -0.3834 -0.2733 -0.0752
 4599TIP3    H135212   0.458   5.707   0.636 -0.4300  1.0752 -1.7153
 4599TIP3    H235213   0.353   5.809   0.674 -1.1889 -0.7059  1.3308
 4600TIP3   OH235214   3.561   2.432  13.563 -0.4663 -0.4791  0.3033
 4600TIP3    H135215   3.601   2.352  13.530  0.5543 -0.0231  0.3967
 4600TIP3    H235216   3.517   2.470  13.487  2.5233  0.9783 -0.8246
 4601TIP3   OH235217   1.837   0.929   4.993 -0.2173  0.2774  0.0323
 4601TIP3    H135218   1.754   0.971   4.968 -0.2395  0.6382  0.6882
 4601TIP3    H235219   1.830   0.917   5.088  0.0652 -0.6269 -0.0554
 4602TIP3   OH235220   4.432   0.491   1.661 -0.0270 -0.0685 -0.1355
 4602TIP3    H135221   4.455   0.558   1.726  1.5817 -0.2716 -0.4573
 4602TIP3    H235222   4.404   0.541   1.585 -1.9450  0.1730  0.6764
 4603TIP3   OH235223   6.238   4.809  15.207 -0.4269  0.2728 -0.7778
 4603TIP3    H135224   6.317   4.828  15.258  0.0549 -2.2469 -0.4776
 4603TIP3    H235225   6.166   4.837  15.263  0.1881  0.3556 -0.0054
 4604TIP3   OH235226   1.127   0.848   3.096  1.0389 -0.7916  0.0509
 4604TIP3    H135227   1.112   0.940   3.076  0.5234 -0.8452  0.1640
 4604TIP3    H235228   1.221   0.835   3.084  0.8402 -0.7292 -1.9884
 4605TIP3   OH235229   1.083   0.163   3.702 -0.4236  1.1055 -0.5221
 4605TIP3    H135230   1.173   0.194   3.692 -0.7805  2.2076 -0.5361
 4605TIP3    H235231   1.034   0.214   3.636 -1.2951  1.6308  0.5060
 4606TIP3   OH235232   1.073   3.364  11.171  0.3936  0.5987  0.1935
 4606TIP3    H135233   1.116   3.446  11.198 -1.1369  1.2013  0.9955
 4606TIP3    H235234   0.981   3.377  11.196 -0.0854 -0.9656 -0.6351
 4607TIP3   OH235235   3.243   1.720  11.771  0.1169  0.6665  0.4521
 4607TIP3    H135236   3.255   1.683  11.684 -0.1234 -0.5383  0.9051
 4607TIP3    H235237   3.318   1.778  11.784  0.3419  0.5703 -0.4076
 4608TIP3   OH235238   5.140   1.932  15.855 -0.2341 -0.6495  0.5816
 4608TIP3    H135239   5.163   1.845  15.823  0.1918 -0.2037 -0.3820
 4608TIP3    H235240   5.051   1.924  15.887 -0.4451 -1.2859 -0.1380
 4609TIP3   OH235241   6.075   3.017  13.825  0.3804  0.0652  0.3321
 4609TIP3    H135242   6.094   2.924  13.840 -0.7073 -0.2511 -0.1615
 4609TIP3    H235243   6.151   3.062  13.860  0.1248 -0.9092  2.2797
 4610TIP3   OH235244   1.100   5.286   3.613  0.2840  0.1360 -0.2562
 4610TIP3    H135245   1.152   5.274   3.693  0.9978  0.0178 -0.7237
 4610TIP3    H235246   1.122   5.210   3.559 -0.1944  0.2125 -0.5591
 4611TIP3   OH235247   0.301   2.840   5.362 -0.0145  0.3596  0.4464
 4611TIP3    H135248   0.282   2.798   5.279  0.7996  2.4775 -0.8852
 4611TIP3    H235249   0.359   2.913   5.340  0.5375  0.7711  2.9155
 4612TIP3   OH235250   2.674   5.626  16.755  0.4551  0.2449  0.4731
 4612TIP3    H135251   2.678   5.549  16.699 -0.9842 -1.8797  3.0533
 4612TIP3    H235252   2.645   5.697  16.697 -1.0948 -1.8158 -1.4173
 4613TIP3   OH235253   6.580   6.448  13.825  0.1787 -0.3186  0.4316
 4613TIP3    H135254   6.635   6.470  13.750  1.4526 -2.6551  0.6020
 4613TIP3    H235255   6.503   6.407  13.787 -0.2991  0.6584  0.3171
 4614TIP3   OH235256   0.135   0.904   2.035 -0.3003 -0.3179  0.4051
 4614TIP3    H135257   0.218   0.928   2.077 -0.3556  0.7486 -0.0552
 4614TIP3    H235258   0.088   0.855   2.102  0.5803 -0.7013  0.7688
 4615TIP3   OH235259   3.952   2.220  11.353 -0.2428 -0.3902  0.1227
 4615TIP3    H135260   4.047   2.227  11.345 -0.4281  0.8349 -2.0769
 4615TIP3    H235261   3.937   2.192  11.443  2.1653 -0.1822  0.6637
 4616TIP3   OH235262   3.531   4.335   2.840  0.1411  0.3433  0.0371
 4616TIP3    H135263   3.469   4.408   2.832  1.0493  1.0544 -0.8971
 4616TIP3    H235264   3.525   4.289   2.756 -0.5206 -0.7635  0.6708
 4617TIP3   OH235265   5.897   2.753  13.039  0.1323  0.1620  0.7062
 4617TIP3    H135266   5.987   2.735  13.011 -0.5885 -2.1534 -0.3106
 4617TIP3    H235267   5.861   2.667  13.062 -2.0387  0.9355  0.4212
 4618TIP3   OH235268   2.669   2.477  16.962 -0.0143 -0.5383 -0.0088
 4618TIP3    H135269   2.610   2.439  16.897 -0.9927 -0.6345  0.9184
 4618TIP3    H235270   2.709   2.402  17.006  0.0397 -0.4793  0.0437
 4619TIP3   OH235271   2.145   2.105   3.346  0.1637  0.2404 -0.1222
 4619TIP3    H135272   2.170   2.137   3.260 -0.0195 -0.8172 -0.5853
 4619TIP3    H235273   2.092   2.027   3.329  0.6803 -0.3786  0.9574
 4620TIP3   OH235274   4.239   2.272   4.672 -0.2540 -0.5246  1.0016
 4620TIP3    H135275   4.301   2.246   4.604  1.0555  0.9264  1.5692
 4620TIP3    H235276   4.171   2.320   4.626  0.9499  0.9935  0.7399
 4621TIP3   OH235277   5.771   3.184  13.348 -0.3576  0.1299 -0.2807
 4621TIP3    H135278   5.863   3.156  13.351 -0.5583 -0.4734  2.0455
 4621TIP3    H235279   5.775   3.279  13.351  0.1839  0.1253 -0.6056
 4622TIP3   OH235280   4.722   5.643  12.179 -0.1332 -0.1990 -0.2995
 4622TIP3    H135281   4.706   5.553  12.205 -1.8650  0.6364  1.8128
 4622TIP3    H235282   4.764   5.683  12.255 -0.9039  1.1685 -0.5650
 4623TIP3   OH235283   4.164   4.777   0.370 -0.5817 -0.3990  0.0451
 4623TIP3    H135284   4.215   4.700   0.396 -2.6165 -1.9628 -0.2654
 4623TIP3    H235285   4.137   4.758   0.280 -3.1301 -0.5413  0.7479
 4624TIP3   OH235286   4.074   3.219   0.452 -0.0192 -0.4062 -0.2421
 4624TIP3    H135287   4.160   3.193   0.486 -0.7081 -0.2391  1.7559
 4624TIP3    H235288   4.080   3.202   0.357  2.0603 -0.7722 -0.1039
 4625TIP3   OH235289   0.427   3.263   3.018 -0.2208 -0.5212 -0.2445
 4625TIP3    H135290   0.376   3.228   2.944  1.3457  0.3730 -1.8237
 4625TIP3    H235291   0.494   3.197   3.034  0.4887  0.0437 -0.7953
 4626TIP3   OH235292   2.929   6.581  16.226  0.3020  1.0391  0.0033
 4626TIP3    H135293   2.958   6.593  16.317  0.9752  0.3402 -0.1112
 4626TIP3    H235294   2.957   6.661  16.182  2.7064  0.1487 -0.2450
 4627TIP3   OH235295   5.726   3.032   5.081  0.1752 -0.2998 -0.1966
 4627TIP3    H135296   5.819   3.039   5.105  0.2305  0.1040 -0.5324
 4627TIP3    H235297   5.710   3.106   5.023 -0.0782 -1.0043 -1.0415
 4628TIP3   OH235298   1.259   2.889  14.929  0.2982 -0.0373 -0.1814
 4628TIP3    H135299   1.310   2.965  14.954  0.9818 -0.6035  0.1669
 4628TIP3    H235300   1.169   2.912  14.952  0.5535  0.4983  0.3054
 4629TIP3   OH235301   5.097   4.003   1.481  0.7581 -0.8128  0.0053
 4629TIP3    H135302   5.056   4.065   1.542  1.5975 -1.2668  1.0760
 4629TIP3    H235303   5.030   3.986   1.416 -0.3160 -0.5836  1.0111
 4630TIP3   OH235304   3.736   0.331  11.679 -0.5764  0.0449  0.0737
 4630TIP3    H135305   3.715   0.358  11.769 -0.3610 -0.7061  0.3593
 4630TIP3    H235306   3.704   0.403  11.624 -1.2823  0.2262  0.7021
 4631TIP3   OH235307   5.024   3.668   2.468  0.1230  0.2703 -0.6938
 4631TIP3    H135308   5.056   3.638   2.384  0.8159  1.8494 -1.0321
 4631TIP3    H235309   5.019   3.589   2.522  2.4236 -0.3680 -1.3266
 4632TIP3   OH235310   3.047   5.141  16.807 -0.0415  0.3972 -0.0308
 4632TIP3    H135311   2.984   5.084  16.762 -1.0445  0.9948  0.5777
 4632TIP3    H235312   3.051   5.107  16.896  0.3536  0.4891 -0.0123
 4633TIP3   OH235313   4.500   3.071  13.522 -0.0698  0.5919  0.4023
 4633TIP3    H135314   4.545   2.987  13.532  1.2749  1.3757  1.2685
 4633TIP3    H235315   4.477   3.076  13.429 -0.4347 -0.8395  0.3952
 4634TIP3   OH235316   0.890   6.762  14.302 -0.5293  0.0211 -0.1512
 4634TIP3    H135317   0.794   6.757  14.311 -0.5316  0.2741 -0.0022
 4634TIP3    H235318   0.913   6.844  14.346 -0.4055  0.7403 -1.5222
 4635TIP3   OH235319   0.209   2.201   2.562  0.1877  0.1779  0.1619
 4635TIP3    H135320   0.180   2.276   2.509  0.7222  1.3401  1.4416
 4635TIP3    H235321   0.300   2.188   2.536  0.2657  0.3514  0.3437
 4636TIP3   OH235322   4.622   3.144   1.450 -0.6699  0.2055 -0.0533
 4636TIP3    H135323   4.646   3.126   1.359  0.6739 -0.2276  0.3622
 4636TIP3    H235324   4.549   3.206   1.444  0.6775  1.7327 -1.4101
 4637TIP3   OH235325   4.319   1.474   6.179  0.5193  0.7520  0.2615
 4637TIP3    H135326   4.378   1.521   6.238  2.0630  0.0503 -0.6871
 4637TIP3    H235327   4.242   1.531   6.173  0.6648  1.2308  2.2762
 4638TIP3   OH235328   0.684   3.205   4.410 -0.3490  0.3922  0.0748
 4638TIP3    H135329   0.639   3.167   4.486  0.1010  0.4972  0.3920
 4638TIP3    H235330   0.643   3.161   4.335 -1.1967  0.7020  0.3384
 4639TIP3   OH235331   1.871   0.955   3.597 -0.0927  0.0561  0.0017
 4639TIP3    H135332   1.826   0.886   3.645  0.0843  0.1707  0.3376
 4639TIP3    H235333   1.960   0.922   3.585  0.0232  0.2662  0.2587
 4640TIP3   OH235334   3.280   2.751  13.772 -0.0993 -0.4071  0.3188
 4640TIP3    H135335   3.190   2.784  13.776  0.4346  0.9998  2.6450
 4640TIP3    H235336   3.285   2.685  13.841  0.4729 -0.9969 -0.2755
 4641TIP3   OH235337   1.942   2.348   0.559  0.3194  0.4679 -0.2969
 4641TIP3    H135338   1.940   2.443   0.571 -1.4165  0.6260 -1.5216
 4641TIP3    H235339   1.900   2.313   0.637  1.7762  0.6205  0.5902
 4642TIP3   OH235340   3.318   2.762   0.382  0.3036  0.3014 -0.0384
 4642TIP3    H135341   3.242   2.796   0.334 -0.2321  0.2523  0.7632
 4642TIP3    H235342   3.333   2.825   0.452  1.7535  0.9404 -0.8907
 4643TIP3   OH235343   5.906   2.095  16.223  0.0114  0.4376 -0.2772
 4643TIP3    H135344   5.882   2.134  16.307 -1.3196  0.1727 -0.5168
 4643TIP3    H235345   5.958   2.162  16.180  0.5406  0.6511  0.6742
 4644TIP3   OH235346   1.143   6.346   2.468 -0.4118  0.2049 -0.0951
 4644TIP3    H135347   1.171   6.281   2.533 -0.6175 -1.4410 -1.5904
 4644TIP3    H235348   1.144   6.300   2.385  0.4324  2.4341 -1.4112
 4645TIP3   OH235349   6.370   5.395   4.312  0.5611  0.8386  0.0331
 4645TIP3    H135350   6.398   5.437   4.231  0.6017  1.5372  0.4016
 4645TIP3    H235351   6.323   5.317   4.283  0.4233  1.1713 -0.6695
 4646TIP3   OH235352   4.442   0.519  11.407  0.0561  0.4690  0.3164
 4646TIP3    H135353   4.530   0.515  11.444  0.3207  1.3347 -0.1949
 4646TIP3    H235354   4.453   0.562  11.323 -0.4472 -1.9584 -1.0893
 4647TIP3   OH235355   6.230   2.400  11.603  0.0149  0.6913 -0.2793
 4647TIP3    H135356   6.172   2.466  11.641  0.4663 -0.3051  2.3595
 4647TIP3    H235357   6.300   2.389  11.667  0.5649 -1.5118 -1.1479
 4648TIP3   OH235358   0.123   0.318   3.980  0.2091 -0.2300 -0.1183
 4648TIP3    H135359   0.182   0.368   4.037  0.2676  0.3778 -0.7087
 4648TIP3    H235360   0.163   0.231   3.975  0.4664 -0.1483  0.3654
 4649TIP3   OH235361   1.342   4.759  14.136 -0.3682 -0.2081  0.2625
 4649TIP3    H135362   1.286   4.777  14.060 -0.8512 -0.3781  0.5751
 4649TIP3    H235363   1.300   4.685  14.179  0.1160 -0.3535  0.4888
 4650TIP3   OH235364   2.461   4.725  15.678  0.0591  0.0513 -0.4638
 4650TIP3    H135365   2.491   4.779  15.751  0.1663  0.9465 -1.1581
 4650TIP3    H235366   2.510   4.757  15.602 -1.7472  0.7811 -1.3944
 4651TIP3   OH235367   3.935   0.299  14.831 -0.4725 -0.2262 -0.2942
 4651TIP3    H135368   3.973   0.318  14.917 -1.1703 -0.3438  0.0451
 4651TIP3    H235369   3.994   0.343  14.769 -2.2866  3.7313  0.4549
 4652TIP3   OH235370   2.561   3.874   0.274  0.3408 -0.4768 -0.0396
 4652TIP3    H135371   2.598   3.928   0.204 -0.8233 -0.8439 -0.9690
 4652TIP3    H235372   2.619   3.890   0.349  1.5647  0.0097 -1.0363
 4653TIP3   OH235373   2.577   5.353  14.855 -0.6150 -1.0052 -0.5970
 4653TIP3    H135374   2.562   5.335  14.948  0.0015 -0.3738 -0.3650
 4653TIP3    H235375   2.555   5.445  14.845  0.8737 -0.6361 -0.7121
 4654TIP3   OH235376   3.231   5.874   0.505 -0.5797 -0.5566 -0.4186
 4654TIP3    H135377   3.206   5.795   0.554 -1.6447 -0.3128 -0.5411
 4654TIP3    H235378   3.246   5.940   0.573  1.4157 -1.1160 -0.2413
 4655TIP3   OH235379   2.039   6.690   1.508 -0.3994  0.4492 -0.1396
 4655TIP3    H135380   1.986   6.770   1.513  1.8676  2.0116  0.9079
 4655TIP3    H235381   2.088   6.689   1.591 -0.8553 -2.4502  0.2021
 4656TIP3   OH235382   1.665   6.195  15.562 -0.1429  0.1796 -0.2151
 4656TIP3    H135383   1.735   6.173  15.625 -0.7428  0.1890  0.4728
 4656TIP3    H235384   1.649   6.288  15.577 -0.8299  0.0060  0.1854
 4657TIP3   OH235385   1.916   6.116   4.327  0.6781  0.5136 -0.0343
 4657TIP3    H135386   1.964   6.033   4.318  1.1515  0.6525  1.0250
 4657TIP3    H235387   1.943   6.167   4.250 -1.1268 -0.9936 -1.7866
 4658TIP3   OH235388   0.019   0.383   4.882  0.0034 -0.1202 -0.1637
 4658TIP3    H135389   0.099   0.351   4.839 -0.3859 -3.9081  1.5464
 4658TIP3    H235390   0.050   0.445   4.947  1.7331 -1.9220  0.8386
 4659TIP3   OH235391   1.855   5.585  11.731 -0.0956 -0.4097 -0.1231
 4659TIP3    H135392   1.834   5.611  11.821  0.1299 -0.3727 -0.0802
 4659TIP3    H235393   1.951   5.581  11.729 -0.0437  0.7066 -0.6722
 4660TIP3   OH235394   4.488   5.217  15.620  0.7721  0.4454  0.1678
 4660TIP3    H135395   4.434   5.166  15.681  1.9078 -0.5657  0.3527
 4660TIP3    H235396   4.539   5.151  15.573  1.8069  1.3861 -0.0413
 4661TIP3   OH235397   5.777   1.994  11.766 -0.2428  0.1151 -0.4143
 4661TIP3    H135398   5.863   1.968  11.734 -0.6428 -0.2625 -1.1970
 4661TIP3    H235399   5.751   1.923  11.825 -0.7052 -0.5828 -1.4274
 4662TIP3   OH235400   2.387   5.115  14.213 -0.0606  0.0014  0.0354
 4662TIP3    H135401   2.397   5.063  14.293 -0.0129 -0.3524 -0.2003
 4662TIP3    H235402   2.435   5.196  14.231 -0.9037  0.3589  0.7489
 4663TIP3   OH235403   2.099   6.378   1.674 -0.3976 -0.1646  0.0937
 4663TIP3    H135404   2.045   6.354   1.600 -0.9439  1.1456  0.0329
 4663TIP3    H235405   2.051   6.346   1.751 -0.3954 -0.5245 -0.0550
 4664TIP3   OH235406   0.644   2.499   6.117 -0.0896  0.6726  0.5851
 4664TIP3    H135407   0.627   2.484   6.024 -0.0436  1.4601  0.4434
 4664TIP3    H235408   0.630   2.414   6.158 -2.2219  0.7659  0.1677
 4665TIP3   OH235409   4.257   4.499  11.674  1.2766  0.1893 -0.3484
 4665TIP3    H135410   4.305   4.490  11.756 -1.4994 -1.4077  1.2515
 4665TIP3    H235411   4.234   4.410  11.650 -2.5985  0.8889  0.1700
 4666TIP3   OH235412   1.810   2.954   5.615 -0.5753  0.2049  0.5310
 4666TIP3    H135413   1.769   3.012   5.551  1.8830 -1.5032 -2.9017
 4666TIP3    H235414   1.746   2.885   5.630 -1.4979  1.0513  0.5853
 4667TIP3   OH235415   5.233   1.039   5.404  0.5031  0.0636 -0.4778
 4667TIP3    H135416   5.291   0.965   5.390 -0.5549 -0.8147 -0.3238
 4667TIP3    H235417   5.163   1.005   5.460  0.9350  1.6378  1.1436
 4668TIP3   OH235418   2.632   5.030  12.580 -0.1009  0.3792 -0.0443
 4668TIP3    H135419   2.628   4.981  12.662 -0.2795 -0.1500 -0.3626
 4668TIP3    H235420   2.559   5.092  12.585 -1.5594 -1.1794 -0.7423
 4669TIP3   OH235421   1.775   0.543   4.909  0.1465  0.6151 -0.3911
 4669TIP3    H135422   1.854   0.585   4.875  0.7956 -0.4398 -0.2443
 4669TIP3    H235423   1.799   0.451   4.918 -0.9527  0.3605  0.1211
 4670TIP3   OH235424   1.301   3.237   1.540  0.5143 -0.1770  0.0738
 4670TIP3    H135425   1.246   3.163   1.516  1.9130 -0.5575 -2.1988
 4670TIP3    H235426   1.369   3.239   1.474  2.9331  0.6383  2.4106
 4671TIP3   OH235427   3.090   3.199  15.294  1.0075  0.4223  0.1478
 4671TIP3    H135428   3.054   3.154  15.217 -0.4403  1.4842  0.1478
 4671TIP3    H235429   3.175   3.232  15.265  0.9401 -0.0941 -0.6598
 4672TIP3   OH235430   1.274   5.990  11.844  0.6430  0.0438  0.1630
 4672TIP3    H135431   1.238   5.942  11.770  0.3511 -0.0512  0.3662
 4672TIP3    H235432   1.327   5.926  11.890  0.9286  0.1356 -0.0323
 4673TIP3   OH235433   3.949   1.007  12.612 -0.4306  0.2341 -0.3246
 4673TIP3    H135434   4.006   0.997  12.536  1.5790 -0.0795  1.1505
 4673TIP3    H235435   3.989   1.078  12.662  1.7546 -3.1354  3.2632
 4674TIP3   OH235436   2.338   6.594   2.457 -0.1512  0.3703 -0.0714
 4674TIP3    H135437   2.379   6.538   2.522  0.6183  0.5729 -0.3628
 4674TIP3    H235438   2.402   6.598   2.386 -0.4710  1.0943 -0.3284
 4675TIP3   OH235439   3.896   2.290  15.858 -0.5433 -0.0988 -0.0509
 4675TIP3    H135440   3.848   2.363  15.898  1.8302  1.3198  0.3900
 4675TIP3    H235441   3.927   2.325  15.774 -0.8974 -1.2258 -0.6634
 4676TIP3   OH235442   5.085   0.750  13.135 -0.3041 -0.0614  0.5045
 4676TIP3    H135443   5.092   0.780  13.226 -1.0828  1.4716  0.1024
 4676TIP3    H235444   5.044   0.823  13.089  1.2192 -0.2863 -1.3533
 4677TIP3   OH235445   4.737   4.587  11.654  0.3383  0.5903  0.5011
 4677TIP3    H135446   4.816   4.621  11.612 -0.0292 -0.6887 -1.3803
 4677TIP3    H235447   4.764   4.503  11.692 -0.2415 -0.3371 -0.9973
 4678TIP3   OH235448   3.391   6.729   2.323 -0.5231  0.2578  0.0393
 4678TIP3    H135449   3.393   6.648   2.273  2.8333  1.2813 -1.8364
 4678TIP3    H235450   3.366   6.702   2.411 -1.8507 -2.3977 -1.0366
 4679TIP3   OH235451   0.386   0.383   0.085  0.3579 -0.1333  0.1616
 4679TIP3    H135452   0.298   0.349   0.100 -0.0331  1.3296  1.3875
 4679TIP3    H235453   0.434   0.363   0.165  0.9595 -0.2790 -0.2219
 4680TIP3   OH235454   3.844   1.473  15.619  0.3019 -0.1660  0.1873
 4680TIP3    H135455   3.871   1.528  15.692 -1.6517  1.8707 -0.5326
 4680TIP3    H235456   3.811   1.534  15.553 -2.4941 -2.1982 -0.4767
 4681TIP3   OH235457   1.919   2.546  13.137 -0.5074 -0.3886 -0.3553
 4681TIP3    H135458   1.892   2.607  13.068 -1.8567 -0.2920  0.2280
 4681TIP3    H235459   1.951   2.603  13.207  0.1957 -0.4611 -0.6029
 4682TIP3   OH235460   3.690   1.297   0.215  0.0047 -0.0042  0.5018
 4682TIP3    H135461   3.732   1.220   0.175  0.4779  0.5915 -0.1683
 4682TIP3    H235462   3.735   1.372   0.176 -0.6697  0.6224  0.9088
 4683TIP3   OH235463   6.362   0.477   1.785  0.1429 -0.2885  0.7571
 4683TIP3    H135464   6.289   0.530   1.753  1.5008  1.1883 -0.0488
 4683TIP3    H235465   6.348   0.391   1.746 -0.9411  0.0640  0.3215
 4684TIP3   OH235466   0.812   0.529  10.285  0.0538  0.6943  0.1463
 4684TIP3    H135467   0.887   0.552  10.229  0.9809  0.8078  1.3998
 4684TIP3    H235468   0.849   0.523  10.373 -1.2005 -0.4043  0.6239
 4685TIP3   OH235469   5.959   1.479   5.515  0.1388 -0.0561  0.0859
 4685TIP3    H135470   6.022   1.510   5.450  0.2851  0.4391  0.4568
 4685TIP3    H235471   6.004   1.407   5.560 -0.0899 -0.6286 -0.5761
 4686TIP3   OH235472   5.216   3.359   5.871  1.0323  0.1435  0.2038
 4686TIP3    H135473   5.208   3.325   5.782 -1.5809 -0.9988  0.7758
 4686TIP3    H235474   5.251   3.287   5.922 -0.6423 -0.3917  0.6635
 4687TIP3   OH235475   4.825   1.665  12.332  0.2794 -0.2110  0.1275
 4687TIP3    H135476   4.773   1.610  12.390  1.3591 -0.7526  0.6132
 4687TIP3    H235477   4.849   1.608  12.259 -0.4306  0.2532 -0.4846
 4688TIP3   OH235478   4.712   5.343  13.650  0.3913  0.2438  0.1389
 4688TIP3    H135479   4.659   5.301  13.582 -0.0266 -0.2756  0.7686
 4688TIP3    H235480   4.680   5.434  13.653 -0.7122 -0.1417  0.7250
 4689TIP3   OH235481   6.469   6.525  15.084  0.2524  0.1205 -0.0821
 4689TIP3    H135482   6.386   6.545  15.127 -2.3970 -2.7914 -3.2817
 4689TIP3    H235483   6.456   6.551  14.993  2.8738 -0.4476 -0.6997
 4690TIP3   OH235484   4.776   4.254   3.340  0.0903  0.5930 -0.3793
 4690TIP3    H135485   4.718   4.269   3.266 -0.7052  1.2297  0.3622
 4690TIP3    H235486   4.824   4.336   3.350  0.9835  0.1457 -0.8503
 4691TIP3   OH235487   6.618   5.715  12.234 -0.1098 -0.4503  0.5420
 4691TIP3    H135488   6.576   5.798  12.260  0.0250 -0.3839  0.5501
 4691TIP3    H235489   6.549   5.650  12.241 -1.1722  0.1699 -2.6864
 4692TIP3   OH235490   4.644   6.050  15.541  0.5088 -0.0252  0.2600
 4692TIP3    H135491   4.688   6.095  15.613 -2.0707 -0.1180  2.0087
 4692TIP3    H235492   4.649   6.111  15.468  0.4693  1.4612  1.4426
 4693TIP3   OH235493   0.616   6.570  11.907 -0.1813  0.1236 -0.1946
 4693TIP3    H135494   0.645   6.630  11.975 -1.4255 -0.2230  0.6530
 4693TIP3    H235495   0.616   6.623  11.827 -0.2149  0.9457  0.3439
 4694TIP3   OH235496   0.086   3.399  10.826 -0.1574 -0.2379  0.2863
 4694TIP3    H135497   0.124   3.469  10.880 -0.5407  0.6599 -0.5756
 4694TIP3    H235498  -0.008   3.408  10.837 -0.2239 -0.3658 -0.1365
 4695TIP3   OH235499   5.913   4.843  13.485  0.3168 -0.2355 -1.1908
 4695TIP3    H135500   5.928   4.928  13.442 -0.7643 -0.0262 -1.1973
 4695TIP3    H235501   5.843   4.803  13.433  0.5669 -0.9742 -0.9598
 4696TIP3   OH235502   3.050   3.215   4.776  0.4527 -0.2361 -0.1437
 4696TIP3    H135503   3.038   3.270   4.854 -0.4747 -0.9534  0.2357
 4696TIP3    H235504   3.004   3.261   4.706 -0.9854 -0.8723  0.3468
 4697TIP3   OH235505   6.523   1.098  13.102  0.0087  0.0450 -0.4313
 4697TIP3    H135506   6.469   1.023  13.076 -0.7614 -0.0929  1.4297
 4697TIP3    H235507   6.460   1.167  13.122  0.5671  0.2338  0.7308
 4698TIP3   OH235508   5.079   0.889   4.634 -0.2663  0.1938  0.2439
 4698TIP3    H135509   5.094   0.869   4.727 -1.4119  1.0354  0.6438
 4698TIP3    H235510   4.990   0.857   4.618 -0.6363  1.3574 -0.1483
 4699TIP3   OH235511   6.586   6.151   0.526 -0.2934 -0.4167  0.0636
 4699TIP3    H135512   6.576   6.210   0.451  1.7764 -1.3857 -1.0351
 4699TIP3    H235513   6.657   6.189   0.578 -0.5013 -0.7407  0.6016
 4700TIP3   OH235514   3.630   6.389   2.512 -0.1248  0.2732 -0.3722
 4700TIP3    H135515   3.714   6.384   2.558  0.7677  0.7313 -1.8797
 4700TIP3    H235516   3.611   6.299   2.487 -2.1624 -0.5593  3.3489
 4701TIP3   OH235517   2.261   5.377   0.791 -0.5490 -0.0693 -0.2184
 4701TIP3    H135518   2.179   5.418   0.815 -0.5946 -0.3766  0.1592
 4701TIP3    H235519   2.240   5.283   0.786  0.0086 -0.2685  0.8914
 4702TIP3   OH235520   6.736   2.375   4.415  0.2650  0.1416  0.1823
 4702TIP3    H135521   6.760   2.343   4.502  1.6440  0.5223 -0.0330
 4702TIP3    H235522   6.723   2.469   4.428 -2.1835 -0.1724  0.4862
 4703TIP3   OH235523   0.318   4.814   1.449 -0.0016 -0.1064 -0.1607
 4703TIP3    H135524   0.226   4.838   1.437  0.3513  1.5215  0.0312
 4703TIP3    H235525   0.347   4.869   1.523  0.7093 -1.8051  0.8784
 4704TIP3   OH235526   3.009   3.437  13.177  0.0230  0.6930 -0.0504
 4704TIP3    H135527   2.916   3.436  13.199  0.1027 -0.4838  0.2931
 4704TIP3    H235528   3.013   3.392  13.092  0.1236  2.0985 -0.8268
 4705TIP3   OH235529   6.462   5.683   3.420  0.0403  0.7011 -0.1324
 4705TIP3    H135530   6.391   5.739   3.388 -1.0817 -0.5097  0.1566
 4705TIP3    H235531   6.493   5.637   3.343  1.1495  1.8810 -0.4195
 4706TIP3   OH235532   4.536   3.048   3.035  0.2296  0.0537 -0.1657
 4706TIP3    H135533   4.443   3.029   3.041  0.2732 -0.0466  0.2230
 4706TIP3    H235534   4.563   3.068   3.124  1.1843 -2.7714  0.2894
 4707TIP3   OH235535   3.157   0.346  15.653  0.2460  0.4151  0.0729
 4707TIP3    H135536   3.105   0.388  15.721  0.4952  1.8574 -0.5695
 4707TIP3    H235537   3.235   0.314  15.698 -1.4216 -2.4093  1.1772
 4708TIP3   OH235538   3.469   0.880   2.284  0.7205  0.9196  0.3041
 4708TIP3    H135539   3.477   0.860   2.190  0.8905 -0.0113  0.5022
 4708TIP3    H235540   3.497   0.971   2.292 -0.6937  1.4872 -0.7477
 4709TIP3   OH235541   3.449   4.855   3.853 -0.3085 -0.1585 -0.2376
 4709TIP3    H135542   3.368   4.856   3.802 -0.7555  0.2424  0.4716
 4709TIP3    H235543   3.505   4.793   3.807 -0.7896  0.0193 -1.0869
 4710TIP3   OH235544   6.093   5.901   5.202 -0.1729  0.0811 -0.1298
 4710TIP3    H135545   6.173   5.872   5.246  1.1215 -0.4684 -2.6012
 4710TIP3    H235546   6.028   5.911   5.271  1.0838 -2.7281  1.6174
 4711TIP3   OH235547   4.185   2.867  11.233 -0.6442  0.1783  0.0899
 4711TIP3    H135548   4.230   2.887  11.150 -0.0348  0.2297  0.4244
 4711TIP3    H235549   4.216   2.779  11.255  0.9682  1.0112  1.3916
 4712TIP3   OH235550   4.110   3.930   1.869  0.6281 -0.1905  0.0918
 4712TIP3    H135551   4.129   3.837   1.882  0.1693 -0.7625 -2.6242
 4712TIP3    H235552   4.020   3.941   1.901  0.4320 -0.8710 -0.2028
 4713TIP3   OH235553   6.494   3.901   5.604 -0.4286  0.2689 -0.2750
 4713TIP3    H135554   6.517   3.979   5.553  0.2410  0.1402 -0.1806
 4713TIP3    H235555   6.575   3.851   5.608 -0.7277 -0.1879  0.0994
 4714TIP3   OH235556   1.019   5.317  16.992 -0.9537  0.0029 -0.1763
 4714TIP3    H135557   0.986   5.255  17.057 -1.2907 -0.7976 -1.0784
 4714TIP3    H235558   1.104   5.280  16.965  0.3352  1.5818  1.4865
 4715TIP3   OH235559   1.659   4.298  13.353  0.4242  0.0744  0.6940
 4715TIP3    H135560   1.627   4.259  13.272 -2.0125 -1.9166  2.4676
 4715TIP3    H235561   1.604   4.375  13.366  1.6831  1.1624 -0.1052
 4716TIP3   OH235562   3.623   4.563   4.711 -0.4090  0.0834  0.0529
 4716TIP3    H135563   3.648   4.543   4.621  2.2882  0.8157  0.5562
 4716TIP3    H235564   3.644   4.655   4.723 -2.1896  0.4166  1.0296
 4717TIP3   OH235565   3.421   1.578  13.865 -0.0521  0.4641  0.1265
 4717TIP3    H135566   3.328   1.562  13.879 -0.4325  0.8337 -1.6484
 4717TIP3    H235567   3.464   1.495  13.885 -0.7940  0.2176  0.7071
 4718TIP3   OH235568   3.096   3.475  14.457 -0.4955 -0.8651 -0.3053
 4718TIP3    H135569   3.071   3.546  14.397 -1.7791 -1.5428 -0.6080
 4718TIP3    H235570   3.089   3.396  14.404  1.1626 -1.2314 -0.0433
 4719TIP3   OH235571   3.499   5.898   5.879 -0.1318  0.6048 -0.0369
 4719TIP3    H135572   3.459   5.852   5.953  1.8352 -2.7738 -0.8554
 4719TIP3    H235573   3.593   5.895   5.897  0.4247 -0.3941 -2.5831
 4720TIP3   OH235574   3.296   0.147   5.857 -0.1932  0.3890 -0.1871
 4720TIP3    H135575   3.299   0.206   5.781 -2.9813 -0.2566 -0.9099
 4720TIP3    H235576   3.280   0.205   5.931  0.2856  0.8150 -0.4081
 4721TIP3   OH235577   5.122   1.687   5.246 -0.0629  0.3878  0.2624
 4721TIP3    H135578   5.059   1.619   5.222  0.7187  0.0673 -1.0201
 4721TIP3    H235579   5.186   1.686   5.175  1.0938  1.0775  1.2511
 4722TIP3   OH235580   3.896   6.052  14.327  0.1139 -0.7619  0.5155
 4722TIP3    H135581   3.912   5.958  14.341 -0.1163 -0.7705  0.7292
 4722TIP3    H235582   3.983   6.089  14.315  0.2235 -0.9669  0.6648
 4723TIP3   OH235583   5.058   1.427  14.216  0.7855  0.4012  0.1024
 4723TIP3    H135584   5.106   1.460  14.291  1.3112 -0.0034 -0.0498
 4723TIP3    H235585   5.014   1.505  14.180 -0.5795  0.3739  1.6010
 4724TIP3   OH235586   5.287   1.691  15.226 -0.2515  0.1745  0.0532
 4724TIP3    H135587   5.217   1.692  15.292 -0.3326  5.2115  0.2915
 4724TIP3    H235588   5.243   1.668  15.145 -1.8058  1.1318  0.5808
 4725TIP3   OH235589   1.446   6.378   4.503  0.1311  0.6849 -0.2205
 4725TIP3    H135590   1.475   6.377   4.594  0.7089  0.9783 -0.3935
 4725TIP3    H235591   1.430   6.471   4.483  1.4421  0.8009 -0.8448
 4726TIP3   OH235592   6.648   1.400   1.145  0.7368  0.3050 -0.3339
 4726TIP3    H135593   6.569   1.384   1.094  0.2428  1.5639  0.0020
 4726TIP3    H235594   6.643   1.492   1.170  1.3876 -0.0494  1.2553
 4727TIP3   OH235595   2.510   2.883  16.061  0.7244 -0.1226 -0.2578
 4727TIP3    H135596   2.515   2.912  16.152 -0.8138 -0.0037 -0.1880
 4727TIP3    H235597   2.504   2.788  16.066  0.3359 -0.0972 -0.2132
 4728TIP3   OH235598   3.401   1.026  16.613  0.6015 -0.2167  0.0715
 4728TIP3    H135599   3.459   1.041  16.689  1.2139 -1.2063 -0.1850
 4728TIP3    H235600   3.401   1.110  16.567  2.5169 -0.4135 -0.3670
 4729TIP3   OH235601   0.283   4.837  12.458  0.2253  0.0970  0.5065
 4729TIP3    H135602   0.208   4.878  12.416 -0.1835 -1.9252 -0.8687
 4729TIP3    H235603   0.357   4.893  12.435 -0.8332  2.4387  2.3471
 4730TIP3   OH235604   0.424   5.817  10.505  0.8213  0.1310  0.2727
 4730TIP3    H135605   0.497   5.769  10.545  0.9158 -0.2048 -0.2898
 4730TIP3    H235606   0.387   5.756  10.441  1.2252  0.9574 -0.7883
 4731TIP3   OH235607   4.965   1.771   2.083  0.1110 -0.3078  0.4125
 4731TIP3    H135608   5.009   1.856   2.085 -0.9477  0.2890 -0.2651
 4731TIP3    H235609   5.036   1.707   2.077  0.9458  0.4941  1.3470
 4732TIP3   OH235610   5.146   3.776  16.375 -0.1333  0.1010  0.1692
 4732TIP3    H135611   5.106   3.706  16.427  0.5409  0.3758  1.0963
 4732TIP3    H235612   5.232   3.741  16.350  0.6072  0.9066  1.4415
 4733TIP3   OH235613   0.650   4.918  14.511 -0.3347 -0.3669  0.1121
 4733TIP3    H135614   0.745   4.927  14.511 -0.2488 -0.6771  2.1788
 4733TIP3    H235615   0.634   4.831  14.546 -1.3922 -0.6369 -0.9884
 4734TIP3   OH235616   5.001   2.973   2.966 -0.3263 -0.2566 -0.4298
 4734TIP3    H135617   4.906   2.961   2.960 -0.3106  0.1537 -1.8163
 4734TIP3    H235618   5.037   2.907   2.906  0.2049  0.2770 -0.7103
 4735TIP3   OH235619   6.008   6.149   0.159  0.4206  0.1699  0.1102
 4735TIP3    H135620   5.968   6.229   0.194  0.5070 -0.9803  3.1496
 4735TIP3    H235621   5.934   6.093   0.138  0.3824  0.6815 -1.2479
 4736TIP3   OH235622   2.270   6.185   2.578 -0.0601  0.3679  0.1522
 4736TIP3    H135623   2.264   6.115   2.513 -1.7158  0.2824  0.3478
 4736TIP3    H235624   2.291   6.140   2.660 -3.9209 -0.4265  0.9118
 4737TIP3   OH235625   6.651   0.935   5.245  0.1070 -0.4241  0.0516
 4737TIP3    H135626   6.560   0.935   5.218  0.0601 -0.8016  0.2059
 4737TIP3    H235627   6.654   0.995   5.320 -0.0105 -0.4028  0.0389
 4738TIP3   OH235628   0.213   3.814   1.514  0.2260  0.6259 -0.1325
 4738TIP3    H135629   0.247   3.751   1.451 -1.6549 -0.0856 -0.5085
 4738TIP3    H235630   0.146   3.766   1.562 -3.1775  2.8931 -2.1804
 4739TIP3   OH235631   2.622   2.621   5.458  0.0563 -0.0945 -0.1444
 4739TIP3    H135632   2.656   2.535   5.434  2.2946  0.4125  0.9028
 4739TIP3    H235633   2.692   2.682   5.434 -1.1687  1.3541 -0.1638
 4740TIP3   OH235634   6.504   4.946  15.994 -0.0273 -0.0179 -0.8832
 4740TIP3    H135635   6.543   4.885  16.057  1.1990  1.9018  0.3164
 4740TIP3    H235636   6.511   4.902  15.910  2.1459 -0.9445 -0.2768
 4741TIP3   OH235637   6.019   6.239   5.063 -0.1751  0.0812  0.7748
 4741TIP3    H135638   5.932   6.277   5.077  0.3456  1.0598  1.4504
 4741TIP3    H235639   6.074   6.313   5.037  0.3396 -0.6298 -0.2480
 4742TIP3   OH235640   3.902   1.165  14.996  0.1484 -0.2212  0.1513
 4742TIP3    H135641   3.811   1.195  14.999  0.0238 -0.5558 -0.3205
 4742TIP3    H235642   3.954   1.246  15.000 -0.1569 -0.0470  0.7735
 4743TIP3   OH235643   1.783   5.684  10.740 -0.0466  0.2066  0.1332
 4743TIP3    H135644   1.696   5.649  10.756  0.6768 -1.2124  1.1618
 4743TIP3    H235645   1.834   5.609  10.710  1.0144  0.8611  0.2451
 4744TIP3   OH235646   2.288   3.940  13.258  0.0168  0.2436  0.6156
 4744TIP3    H135647   2.295   3.846  13.241  0.7635  0.0536  1.8606
 4744TIP3    H235648   2.375   3.965  13.289 -0.5878  1.0525  1.7102
 4745TIP3   OH235649   5.682   3.399  11.691 -0.0709 -0.0715  0.1082
 4745TIP3    H135650   5.678   3.437  11.603 -1.5836 -0.4931 -0.0263
 4745TIP3    H235651   5.596   3.361  11.705  0.5812 -1.2105  1.2553
 4746TIP3   OH235652   2.552   3.585  14.518  0.2124 -0.7099 -0.4431
 4746TIP3    H135653   2.621   3.520  14.533 -0.0818 -0.8473  0.3589
 4746TIP3    H235654   2.598   3.667  14.504  0.5323 -0.6792  0.7185
 4747TIP3   OH235655   3.548   4.047  10.606 -0.0244  0.1023  0.2783
 4747TIP3    H135656   3.552   4.001  10.522 -1.7971 -0.5395  0.5023
 4747TIP3    H235657   3.636   4.083  10.618  0.3285  0.0545 -1.7565
 4748TIP3   OH235658   2.836   1.644   5.012  0.1582 -0.4133 -0.0626
 4748TIP3    H135659   2.789   1.721   5.045 -0.1038 -0.4264 -0.4015
 4748TIP3    H235660   2.923   1.651   5.052  0.0196 -0.1373  0.1975
 4749TIP3   OH235661   0.081   2.285  15.352  0.6388  0.2748  0.5913
 4749TIP3    H135662   0.106   2.361  15.404  0.2486 -0.1720  1.4383
 4749TIP3    H235663   0.164   2.254  15.314  1.1061 -0.0559  1.8409
 4750TIP3   OH235664   4.446   5.717  12.537 -0.0400 -0.7687 -0.4755
 4750TIP3    H135665   4.428   5.722  12.631  1.2836  0.1845 -0.2321
 4750TIP3    H235666   4.446   5.807  12.507 -1.7727 -1.1370 -1.7044
 4751TIP3   OH235667   5.259   4.042   5.650 -0.3361 -0.1420  0.5876
 4751TIP3    H135668   5.215   3.968   5.692 -0.5307  0.0049  0.6388
 4751TIP3    H235669   5.191   4.086   5.600  0.1840 -1.2504 -1.2097
 4752TIP3   OH235670   4.503   0.022   1.225 -0.0534  0.1130 -0.5952
 4752TIP3    H135671   4.524   0.021   1.132  0.8225 -0.1787 -0.4098
 4752TIP3    H235672   4.585  -0.004   1.268 -0.8757 -1.3698  0.1690
 4753TIP3   OH235673   4.715   4.735   0.639  0.0746 -0.0167 -0.7062
 4753TIP3    H135674   4.634   4.683   0.635  0.7868 -1.3065  0.4240
 4753TIP3    H235675   4.780   4.680   0.596  1.1896 -0.8695  1.8310
 4754TIP3   OH235676   6.112   1.340  16.976 -0.6634 -0.7977 -0.6153
 4754TIP3    H135677   6.075   1.345  16.888 -0.6071 -1.1831 -0.6616
 4754TIP3    H235678   6.038   1.317  17.032 -0.8349  0.0658 -0.4630
 4755TIP3   OH235679   0.493   5.902  15.335 -0.8451  0.2420 -0.3229
 4755TIP3    H135680   0.543   5.920  15.416 -1.2898 -1.1937  0.2973
 4755TIP3    H235681   0.474   5.989  15.299  0.0582  0.8855  0.6887
 4756TIP3   OH235682   0.797   0.281   5.927  0.3717 -0.5095 -0.3096
 4756TIP3    H135683   0.765   0.270   5.838 -1.3497  1.0955  0.0374
 4756TIP3    H235684   0.786   0.195   5.967 -0.4042 -0.8453 -1.1897
 4757TIP3   OH235685   3.403   3.726   4.806  0.3655 -0.0946 -0.1841
 4757TIP3    H135686   3.432   3.795   4.746 -0.1909 -0.4519 -0.8913
 4757TIP3    H235687   3.355   3.772   4.875  0.3580  0.2612 -0.4263
 4758TIP3   OH235688   0.575   2.346  15.935 -0.7778 -0.5914  0.0378
 4758TIP3    H135689   0.550   2.268  15.983 -1.9074  0.3187  1.0053
 4758TIP3    H235690   0.577   2.415  16.001  0.1567  0.2118 -0.7914
 4759TIP3   OH235691   1.944   3.206   6.423  0.1248  0.4914 -0.0447
 4759TIP3    H135692   1.941   3.114   6.396 -2.3801  0.7349 -0.8942
 4759TIP3    H235693   1.937   3.203   6.518 -0.8117 -0.2149 -0.1131
 4760TIP3   OH235694   2.067   1.372  13.467  0.3112  0.2369  0.1692
 4760TIP3    H135695   2.079   1.467  13.471 -1.9195  0.5780 -0.2516
 4760TIP3    H235696   1.977   1.357  13.494  0.0898 -1.6133 -1.3346
 4761TIP3   OH235697   1.711   3.012   4.627 -0.2680  0.1810 -0.3092
 4761TIP3    H135698   1.790   3.058   4.654 -0.6950  0.0052  1.3109
 4761TIP3    H235699   1.652   3.081   4.597 -1.0709  0.8308  2.4999
 4762TIP3   OH235700   3.647   3.715  12.738 -0.2091 -0.0415 -0.1296
 4762TIP3    H135701   3.720   3.686  12.792 -0.4374  0.3009  0.3621
 4762TIP3    H235702   3.575   3.658  12.763 -0.1183 -0.3807 -0.6174
 4763TIP3   OH235703   3.445   1.915   3.414 -0.0119  0.5995  0.1618
 4763TIP3    H135704   3.374   1.855   3.437 -1.4977  2.7507  1.5339
 4763TIP3    H235705   3.408   2.002   3.425  1.2647  1.9184 -4.1127
 4764TIP3   OH235706   6.328   5.526   3.187  0.6951  0.4915  0.2728
 4764TIP3    H135707   6.348   5.521   3.094 -1.0689  1.9364 -0.2446
 4764TIP3    H235708   6.317   5.620   3.204 -1.4221  0.1086  1.3394
 4765TIP3   OH235709   2.819   1.239  13.886 -0.2779 -0.0234 -0.4593
 4765TIP3    H135710   2.767   1.252  13.806  2.1676  0.8182 -2.0272
 4765TIP3    H235711   2.864   1.156  13.872  0.3522  0.2458 -0.0868
 4766TIP3   OH235712   4.155   5.805   0.536  0.3471  0.3995  0.0021
 4766TIP3    H135713   4.098   5.874   0.504 -0.6233  0.7977  2.3553
 4766TIP3    H235714   4.228   5.851   0.577  2.4177 -0.1022 -2.8088
 4767TIP3   OH235715   4.371   0.912  11.245 -0.5519 -0.3620 -0.9094
 4767TIP3    H135716   4.292   0.892  11.196 -0.8280 -0.7858 -0.3027
 4767TIP3    H235717   4.416   0.828  11.255  0.2053 -0.0577 -1.6290
 4768TIP3   OH235718   3.906   4.500   2.518 -0.0796  0.1732  0.3441
 4768TIP3    H135719   3.994   4.530   2.542 -0.0887  0.4957 -0.0221
 4768TIP3    H235720   3.894   4.529   2.428 -0.8486  0.8037  0.6318
 4769TIP3   OH235721   1.091   5.574  13.267 -0.0346  0.4854  0.3737
 4769TIP3    H135722   1.082   5.480  13.250 -0.6197  0.6908 -0.5079
 4769TIP3    H235723   1.186   5.590  13.263  0.0518 -0.0349  0.3284
 4770TIP3   OH235724   1.631   1.074  16.999 -0.4478  0.2878 -0.4221
 4770TIP3    H135725   1.724   1.082  16.980 -0.2516 -0.0865  0.3461
 4770TIP3    H235726   1.593   1.156  16.968  0.5816  1.7237  1.8263
 4771TIP3   OH235727   1.739   5.436   5.974  0.0398  0.1864 -0.8234
 4771TIP3    H135728   1.683   5.382   5.918 -0.1488  1.0020 -1.4347
 4771TIP3    H235729   1.802   5.374   6.011  0.4325 -0.3033 -2.2650
 4772TIP3   OH235730   0.179   2.373   2.369  0.7341 -0.4501  0.4469
 4772TIP3    H135731   0.230   2.399   2.292 -0.0400 -1.4705 -0.4585
 4772TIP3    H235732   0.088   2.380   2.341  0.3912  0.3862  1.7096
 4773TIP3   OH235733   0.728   6.441  15.030 -0.5439 -0.2377 -0.3956
 4773TIP3    H135734   0.655   6.405  15.080 -0.8145 -1.1388 -1.4053
 4773TIP3    H235735   0.688   6.505  14.972 -0.3192  0.3189  0.0486
 4774TIP3   OH235736   2.983   4.226  14.339  0.7912 -0.1403  0.4137
 4774TIP3    H135737   2.982   4.291  14.410 -0.8914 -0.2355  0.5043
 4774TIP3    H235738   3.011   4.276  14.262 -2.7720  1.3776 -0.0711
 4775TIP3   OH235739   3.511   3.981  13.613  0.0709  0.5004  0.1916
 4775TIP3    H135740   3.418   3.983  13.589  0.0828  2.2693  0.1531
 4775TIP3    H235741   3.514   3.931  13.695 -0.7656 -0.4308 -0.3244
 4776TIP3   OH235742   0.967   5.976  14.172 -0.5702  0.2670 -0.4037
 4776TIP3    H135743   1.063   5.973  14.178 -0.4506  0.5470 -1.8771
 4776TIP3    H235744   0.946   5.920  14.097 -1.6463 -0.5829  0.5009
 4777TIP3   OH235745   4.815   2.110  16.015  0.6709 -0.5171  0.4235
 4777TIP3    H135746   4.812   2.036  15.954  0.7520 -0.2695  0.1206
 4777TIP3    H235747   4.728   2.112  16.055 -0.1338  0.7069 -1.3119
 4778TIP3   OH235748   2.105   5.658   2.974  0.1481 -0.4756  0.6439
 4778TIP3    H135749   2.011   5.650   2.963  0.3443 -1.5085 -0.4686
 4778TIP3    H235750   2.116   5.691   3.063 -1.3518  2.2731 -0.0679
 4779TIP3   OH235751   5.225   5.154   4.305 -0.3955  0.3223  0.9298
 4779TIP3    H135752   5.321   5.152   4.304 -0.3722 -2.2539  0.1249
 4779TIP3    H235753   5.201   5.079   4.360 -1.9574  0.7921  0.9281
 4780TIP3   OH235754   5.723   5.725   2.472 -0.9196 -0.4425 -0.0546
 4780TIP3    H135755   5.785   5.752   2.403  0.3822 -1.3143  0.7320
 4780TIP3    H235756   5.677   5.805   2.495 -0.4555  0.1290 -1.0445
 4781TIP3   OH235757   2.751   3.357   1.593  0.4943  0.1863 -0.0567
 4781TIP3    H135758   2.716   3.363   1.682 -2.2228 -1.5547 -0.8830
 4781TIP3    H235759   2.695   3.415   1.541 -0.0003 -1.1958 -1.1273
 4782TIP3   OH235760   0.642   3.538  17.081 -0.4365 -0.1891 -0.3291
 4782TIP3    H135761   0.680   3.563  17.165  0.5593  0.0624 -0.8351
 4782TIP3    H235762   0.587   3.613  17.056 -1.1713 -0.4932  0.3409
 4783TIP3   OH235763   6.510   3.483   2.903 -0.7734 -0.0491  0.0598
 4783TIP3    H135764   6.417   3.508   2.902 -0.2767  1.9270 -1.3385
 4783TIP3    H235765   6.530   3.465   2.811  0.1089 -1.1036  0.4382
 4784TIP3   OH235766   0.143   3.740  14.913 -0.4004 -0.5337  0.5748
 4784TIP3    H135767   0.201   3.710  14.983 -0.4672  0.2341  0.9752
 4784TIP3    H235768   0.192   3.810  14.870 -0.9654  0.0215  0.8217
 4785TIP3   OH235769   1.270   5.846   2.665 -0.5739 -0.1682 -0.2827
 4785TIP3    H135770   1.216   5.806   2.597  0.3643 -1.4051 -0.3360
 4785TIP3    H235771   1.357   5.809   2.651 -0.3588 -0.4753  1.6099
 4786TIP3   OH235772   4.565   0.532   5.365  0.0180  0.2715  0.3513
 4786TIP3    H135773   4.587   0.568   5.279  0.4204  0.8866  0.6983
 4786TIP3    H235774   4.498   0.466   5.348 -0.4417  0.9078 -0.3584
 4787TIP3   OH235775   4.556   2.425   0.763 -0.3134 -0.6579  0.5063
 4787TIP3    H135776   4.461   2.414   0.770 -0.3404 -0.1820  0.9611
 4787TIP3    H235777   4.567   2.514   0.728 -0.0392 -0.8062  0.2097
 4788TIP3   OH235778   1.721   3.806   2.101  0.0479 -0.4373 -0.1771
 4788TIP3    H135779   1.808   3.779   2.130  0.7107  0.3703 -1.3252
 4788TIP3    H235780   1.667   3.728   2.112  0.9781 -1.0268  0.3128
 4789TIP3   OH235781   5.328   2.820   4.439  0.1152 -0.0366  0.1116
 4789TIP3    H135782   5.363   2.794   4.354  0.6305 -1.8005  0.8111
 4789TIP3    H235783   5.242   2.858   4.420  0.9433  1.2508 -1.3228
 4790TIP3   OH235784   2.226   2.370   3.182  0.2855  0.1780  0.2803
 4790TIP3    H135785   2.309   2.346   3.141 -0.0435 -0.1227 -0.2261
 4790TIP3    H235786   2.163   2.369   3.110 -0.3550 -0.5956  0.8257
 4791TIP3   OH235787   0.999   5.672   1.635 -0.1210  0.0002  0.2235
 4791TIP3    H135788   0.907   5.669   1.610 -0.3212  1.4235  0.7314
 4791TIP3    H235789   1.044   5.702   1.556 -0.1174 -0.3626  0.0818
 4792TIP3   OH235790   0.567   4.192   1.284  0.7369 -0.3214 -0.1988
 4792TIP3    H135791   0.540   4.270   1.235  0.2662 -0.7244 -0.6058
 4792TIP3    H235792   0.641   4.157   1.235  1.3457  0.2167  0.3378
 4793TIP3   OH235793   6.348   2.127  16.175  0.1016 -0.0421 -0.4435
 4793TIP3    H135794   6.403   2.095  16.104  1.9934 -1.5557  1.5541
 4793TIP3    H235795   6.268   2.074  16.168  0.3143 -0.2557 -1.3701
 4794TIP3   OH235796   6.473   6.178  15.265  0.3672 -0.4244 -0.6342
 4794TIP3    H135797   6.399   6.117  15.267  0.6384 -0.7535  1.7897
 4794TIP3    H235798   6.477   6.214  15.353  2.1568  0.7680 -1.1510
 4795TIP3   OH235799   5.435   2.339   4.209 -0.8160 -0.3111 -0.0942
 4795TIP3    H135800   5.435   2.422   4.160 -0.8299 -0.8302 -0.9830
 4795TIP3    H235801   5.474   2.362   4.293  1.5433  0.0956 -1.2111
 4796TIP3   OH235802   2.195   2.923  16.689  0.3143 -0.3089  0.1785
 4796TIP3    H135803   2.147   3.004  16.675  0.5284  0.1279  1.7364
 4796TIP3    H235804   2.173   2.898  16.779  0.6039 -1.7362 -0.1305
 4797TIP3   OH235805   1.340   5.764  12.006 -0.3351  0.0973 -0.6315
 4797TIP3    H135806   1.393   5.726  11.936 -0.8554  0.1636 -1.0628
 4797TIP3    H235807   1.275   5.698  12.026 -1.3747  0.8089 -1.5300
 4798TIP3   OH235808   6.786   2.848  10.678 -0.4535 -0.4611  0.3517
 4798TIP3    H135809   6.766   2.937  10.647  1.6123  0.3739  1.2441
 4798TIP3    H235810   6.857   2.818  10.621  1.7493  0.1710  2.5921
 4799TIP3   OH235811   6.225   0.565  14.246  0.3394  0.2905  0.1687
 4799TIP3    H135812   6.234   0.607  14.161  0.9361  1.5786  0.8416
 4799TIP3    H235813   6.156   0.614  14.290 -1.2773 -1.5213 -0.2163
 4800TIP3   OH235814   4.518   2.809   1.495 -0.3944 -0.1340 -0.0489
 4800TIP3    H135815   4.456   2.844   1.559 -0.1799 -1.2191  0.7975
 4800TIP3    H235816   4.490   2.719   1.482 -0.5491  0.1310 -1.6637
 4801TIP3   OH235817   2.188   2.907   0.276  0.0426  1.0421  0.6726
 4801TIP3    H135818   2.218   2.988   0.236  1.4857  1.0027  1.5976
 4801TIP3    H235819   2.112   2.932   0.329  0.2573  1.7178  0.6590
 4802TIP3   OH235820   2.928   1.165  15.337  0.1566 -0.5499 -0.7650
 4802TIP3    H135821   2.957   1.124  15.256  1.5253  0.0488 -0.5964
 4802TIP3    H235822   2.833   1.177  15.325 -0.2615 -3.4701 -0.9204
 4803TIP3   OH235823   5.524   2.045  14.086 -0.9379  0.2740  0.6336
 4803TIP3    H135824   5.516   2.135  14.117  0.3157  0.1504  1.4116
 4803TIP3    H235825   5.452   1.998  14.130 -1.0704  0.7281  0.9086
 4804TIP3   OH235826   6.543   2.752  13.303  0.1432  0.1031 -0.3300
 4804TIP3    H135827   6.633   2.777  13.324  0.0826  0.3072 -0.3179
 4804TIP3    H235828   6.499   2.834  13.283 -0.8419  0.3904  2.5629
 4805TIP3   OH235829   3.293   6.380   4.959 -0.7186 -0.0152 -0.0689
 4805TIP3    H135830   3.343   6.438   4.901 -2.1166 -0.3845 -1.7209
 4805TIP3    H235831   3.278   6.433   5.038 -0.2586  1.1404 -0.7268
 4806TIP3   OH235832   3.963   6.660  17.132 -0.3484 -0.8786 -0.0712
 4806TIP3    H135833   4.047   6.695  17.162 -0.0618 -1.5079 -0.1198
 4806TIP3    H235834   3.925   6.731  17.081 -0.6773  0.0804  1.4443
 4807TIP3   OH235835   1.320   2.353  14.170  0.1291 -0.0535 -0.6051
 4807TIP3    H135836   1.306   2.446  14.157 -0.9832 -0.3276 -1.5000
 4807TIP3    H235837   1.414   2.341  14.161  0.5845  1.2779  1.6151
 4808TIP3   OH235838   1.070   2.154   4.986  0.8252 -0.4077  0.1722
 4808TIP3    H135839   1.154   2.126   4.950 -0.4536 -1.8927 -1.8640
 4808TIP3    H235840   1.068   2.249   4.971  1.7961 -0.4761 -0.4746
 4809TIP3   OH235841   6.093   3.390  12.260  0.8794  0.2735  0.3227
 4809TIP3    H135842   6.097   3.360  12.169  2.2425 -2.3348  1.1115
 4809TIP3    H235843   6.085   3.485  12.255 -0.8807  0.0606 -2.4903
 4810TIP3   OH235844   6.770   3.157  10.652  0.5597  0.2175 -0.3476
 4810TIP3    H135845   6.693   3.212  10.666 -0.5709 -1.0837 -1.1424
 4810TIP3    H235846   6.820   3.202  10.584  0.2229  0.8014 -0.2154
 4811TIP3   OH235847   1.363   6.388  16.900 -0.1246  0.7268 -0.1307
 4811TIP3    H135848   1.384   6.470  16.945  0.4704 -0.2716  1.4651
 4811TIP3    H235849   1.270   6.396  16.879 -0.1141  1.7362  0.1522
 4812TIP3   OH235850   3.238   5.019   0.697 -0.4089 -0.1404 -0.4736
 4812TIP3    H135851   3.286   5.088   0.650 -1.0131 -0.3048 -1.3621
 4812TIP3    H235852   3.285   5.010   0.780 -1.5305  2.8083  0.6359
 4813TIP3   OH235853   5.317   6.162   5.446  0.1273 -0.4471  0.5116
 4813TIP3    H135854   5.335   6.243   5.397  0.6550 -0.3729  0.8266
 4813TIP3    H235855   5.372   6.096   5.405  1.7171 -0.0639  1.9295
 4814TIP3   OH235856   5.922   4.277   2.429 -0.2429  0.0753 -0.0465
 4814TIP3    H135857   6.017   4.288   2.439  0.0477 -1.6355 -0.6297
 4814TIP3    H235858   5.888   4.366   2.425  1.3067  0.7238  0.4438
 4815TIP3   OH235859   2.674   2.855  11.260 -0.4457  0.1888  0.2907
 4815TIP3    H135860   2.730   2.932  11.271 -0.3962  0.2739 -0.4923
 4815TIP3    H235861   2.734   2.782  11.250 -0.4531  0.3079 -0.7513
 4816TIP3   OH235862   3.358   2.040  13.640  0.0954 -0.1068  0.2303
 4816TIP3    H135863   3.268   2.051  13.672  0.2777  0.4164  0.5815
 4816TIP3    H235864   3.398   1.978  13.701  0.1699  0.1766  0.4693
 4817TIP3   OH235865   1.507   4.814   4.348 -0.2307 -0.4595 -0.4163
 4817TIP3    H135866   1.535   4.770   4.268 -0.2579 -2.8777  0.8124
 4817TIP3    H235867   1.467   4.745   4.401 -3.4498  1.7085  0.2887
 4818TIP3   OH235868   3.210   2.593   2.051  0.2324  0.2691  0.0939
 4818TIP3    H135869   3.153   2.649   1.998 -0.6845  0.1892  0.9664
 4818TIP3    H235870   3.154   2.521   2.078  0.7141  0.2478  1.0667
 4819TIP3   OH235871   1.145   0.337  12.566  0.2844  0.2274 -0.5415
 4819TIP3    H135872   1.074   0.321  12.628  1.1388 -1.9489 -0.0102
 4819TIP3    H235873   1.180   0.422  12.592  0.7118 -0.6585  2.1879
 4820TIP3   OH235874   2.856   3.355  15.322  0.6250 -0.2413 -0.3323
 4820TIP3    H135875   2.923   3.287  15.321  0.7981 -0.1690 -3.1493
 4820TIP3    H235876   2.892   3.425  15.268 -1.4202  0.0486 -1.4211
 4821TIP3   OH235877   6.047   1.028  16.230  0.1550  0.7119 -0.3084
 4821TIP3    H135878   5.954   1.040  16.210 -0.3895  0.6033  1.9148
 4821TIP3    H235879   6.048   0.997  16.320  2.2587 -1.6252 -1.0236
 4822TIP3   OH235880   1.626   2.729   3.728  0.1441 -0.3322 -0.0734
 4822TIP3    H135881   1.616   2.639   3.698  1.7092 -0.3352 -0.6977
 4822TIP3    H235882   1.622   2.723   3.824 -0.4929 -0.9561 -0.1355
 4823TIP3   OH235883   5.347   4.778  13.826 -0.1421  0.4511 -0.2159
 4823TIP3    H135884   5.385   4.699  13.788  1.1125 -0.1020  2.0169
 4823TIP3    H235885   5.254   4.757  13.836  0.0105 -0.3861 -0.4639
 4824TIP3   OH235886   0.281   3.771  15.754  0.1645 -0.9070  0.0581
 4824TIP3    H135887   0.370   3.739  15.740 -0.2432 -2.1449  0.1809
 4824TIP3    H235888   0.266   3.763  15.848  0.9953  2.3032  0.5867
 4825TIP3   OH235889   1.546   0.564   1.418  0.3907  0.2581 -0.5617
 4825TIP3    H135890   1.477   0.502   1.442 -0.9861  1.4240 -1.3326
 4825TIP3    H235891   1.579   0.532   1.334  0.6626 -0.2085 -0.2763
 4826TIP3   OH235892   2.783   2.868   4.651  0.4441 -0.2550 -0.5190
 4826TIP3    H135893   2.719   2.921   4.698  0.5728 -0.7821  0.2732
 4826TIP3    H235894   2.753   2.869   4.560 -1.3856 -1.4863  0.0228
 4827TIP3   OH235895   0.002   4.403   5.632 -0.1081  0.8684 -0.2846
 4827TIP3    H135896   0.039   4.439   5.551  0.5308 -1.0349 -0.9119
 4827TIP3    H235897   0.078   4.379   5.685 -0.5211  1.8934  0.8101
 4828TIP3   OH235898   0.568   4.179   5.757  0.7013 -0.1257  0.3492
 4828TIP3    H135899   0.627   4.253   5.742  0.6997  0.2492  1.9986
 4828TIP3    H235900   0.510   4.178   5.681  1.8985  0.3905 -0.6062
 4829TIP3   OH235901   3.936   4.184   2.187 -0.0431 -0.0615 -0.6597
 4829TIP3    H135902   3.956   4.101   2.230  0.5625  0.7103  0.5992
 4829TIP3    H235903   3.995   4.187   2.112 -0.2774 -0.8964 -0.8876
 4830TIP3   OH235904   3.674   2.276   0.701  0.0064  0.6974 -0.2049
 4830TIP3    H135905   3.769   2.287   0.702  0.2538 -0.3606  3.3059
 4830TIP3    H235906   3.662   2.182   0.688 -0.3890  0.5063  1.3269
 4831TIP3   OH235907   2.255   0.441  14.530 -0.1431  0.4556 -0.0737
 4831TIP3    H135908   2.229   0.379  14.462  0.2212  1.1901 -0.9075
 4831TIP3    H235909   2.214   0.408  14.610 -0.1738 -0.6987 -0.5523
 4832TIP3   OH235910   6.254   3.230  15.515 -0.5073  0.5062  0.0726
 4832TIP3    H135911   6.172   3.275  15.497 -1.1855  1.3577  4.2208
 4832TIP3    H235912   6.313   3.299  15.544  0.1225 -0.6159  1.5974
 4833TIP3   OH235913   1.679   3.924   3.223  0.1198 -0.7262 -0.1480
 4833TIP3    H135914   1.587   3.899   3.229  0.2147 -1.2343 -0.7452
 4833TIP3    H235915   1.688   3.996   3.286 -0.7913 -0.3591 -0.4187
 4834TIP3   OH235916   1.838   1.972  16.288  0.1515 -0.6132  0.2389
 4834TIP3    H135917   1.749   1.941  16.306  0.6352 -2.0402  0.2877
 4834TIP3    H235918   1.855   2.037  16.356 -0.7124 -0.5860  0.4437
 4835TIP3   OH235919   0.244   0.781   3.047 -0.7705 -0.4633  0.2899
 4835TIP3    H135920   0.259   0.713   3.112 -0.1741  0.1996  0.8730
 4835TIP3    H235921   0.309   0.849   3.068  0.1444 -0.6577 -1.6096
 4836TIP3   OH235922   0.451   0.784  15.662 -0.2057  0.2819  0.0978
 4836TIP3    H135923   0.360   0.786  15.690 -0.5657  0.9341 -1.0232
 4836TIP3    H235924   0.447   0.796  15.567  1.0354  0.0878 -0.0017
 4837TIP3   OH235925   1.122   2.526  11.783 -0.2318 -0.0148 -0.5930
 4837TIP3    H135926   1.202   2.538  11.733 -1.0424  1.8467 -1.5644
 4837TIP3    H235927   1.140   2.564  11.868  0.6707 -1.8513  0.0894
 4838TIP3   OH235928   6.344   4.664   2.423 -0.1561  0.2755 -0.4648
 4838TIP3    H135929   6.398   4.616   2.485  0.1066  0.3743 -0.6154
 4838TIP3    H235930   6.279   4.709   2.477 -0.4312 -0.2845 -0.3282
 4839TIP3   OH235931   5.646   1.255  14.286  0.2160  0.0257 -0.0325
 4839TIP3    H135932   5.649   1.214  14.372  0.5105  2.5300  1.2360
 4839TIP3    H235933   5.681   1.189  14.226 -2.3320 -2.7208  1.2914
 4840TIP3   OH235934   6.688   0.626   0.336  0.4748  0.4641  0.0514
 4840TIP3    H135935   6.593   0.635   0.342  0.5436  0.1962  2.0388
 4840TIP3    H235936   6.702   0.532   0.325  0.5384  0.4256  0.4658
 4841TIP3   OH235937   6.720   5.097   0.265  0.9803  0.5672  0.1062
 4841TIP3    H135938   6.645   5.153   0.283  0.8197  0.3687  0.0688
 4841TIP3    H235939   6.697   5.053   0.183  0.1113 -1.1845  1.2215
 4842TIP3   OH235940   1.799   0.965   2.678  0.2319 -0.0122 -0.0921
 4842TIP3    H135941   1.857   0.966   2.602  0.6814  3.1493  0.1488
 4842TIP3    H235942   1.713   0.942   2.644  0.8069 -0.5571 -1.2038
 4843TIP3   OH235943   6.346   3.516  11.385 -0.3560 -0.2002  0.2398
 4843TIP3    H135944   6.260   3.528  11.345 -0.1152  1.2329  0.0906
 4843TIP3    H235945   6.408   3.540  11.316  0.2273 -2.3342 -0.0363
 4844TIP3   OH235946   2.591   4.147   5.642 -0.0751  0.7534 -0.1327
 4844TIP3    H135947   2.571   4.209   5.573 -0.7374  1.2589  0.5044
 4844TIP3    H235948   2.623   4.069   5.596 -0.3097  1.1547 -0.9857
 4845TIP3   OH235949   0.263   3.152   2.777 -0.7324 -0.4921 -0.0384
 4845TIP3    H135950   0.223   3.067   2.760 -1.0474 -0.3374 -0.0949
 4845TIP3    H235951   0.338   3.156   2.718 -0.6005 -0.8116  0.1098
 4846TIP3   OH235952   0.231   0.156   1.528  0.0037  0.3666 -0.3715
 4846TIP3    H135953   0.200   0.240   1.493 -2.8818 -0.9158 -1.2363
 4846TIP3    H235954   0.270   0.179   1.613 -1.4571  2.5156 -0.1757
 4847TIP3   OH235955   6.662   4.483  13.992  0.2680  0.1033  0.0143
 4847TIP3    H135956   6.630   4.411  13.939 -0.8773  0.9089 -0.4218
 4847TIP3    H235957   6.667   4.447  14.081  2.4629 -1.3354 -0.5902
 4848TIP3   OH235958   6.041   6.460  14.298  0.2330  0.4120 -0.3869
 4848TIP3    H135959   6.127   6.452  14.258  0.0968  2.1776 -1.0958
 4848TIP3    H235960   6.039   6.390  14.364  2.1158  0.2175 -0.4831
 4849TIP3   OH235961   4.741   0.786  16.571 -0.1221 -0.0910  0.1063
 4849TIP3    H135962   4.816   0.772  16.512 -1.1830  0.2610 -1.3919
 4849TIP3    H235963   4.716   0.698  16.599 -0.0274 -0.3252 -0.5290
 4850TIP3   OH235964   1.273   5.919  14.865 -0.3711  0.0792  0.5278
 4850TIP3    H135965   1.200   5.857  14.859 -0.6742  0.4260  0.5979
 4850TIP3    H235966   1.351   5.863  14.870 -0.5331 -0.2846 -0.6838
 4851TIP3   OH235967   0.093   5.095  11.656  0.2952  1.3864  0.4562
 4851TIP3    H135968   0.173   5.057  11.691 -0.1219  1.2878  1.3426
 4851TIP3    H235969   0.117   5.183  11.629  0.6887  1.3725  0.7617
 4852TIP3   OH235970   0.236   5.025   2.554 -0.0512 -0.4368  1.3912
 4852TIP3    H135971   0.297   5.038   2.627 -0.9854 -0.6661  2.2368
 4852TIP3    H235972   0.258   4.938   2.521 -0.7983 -1.1111  2.5839
 4853TIP3   OH235973   1.486   3.106  11.922  0.0144 -0.3971  0.4545
 4853TIP3    H135974   1.410   3.109  11.979 -1.1837  0.5096 -1.1013
 4853TIP3    H235975   1.489   3.015  11.891 -0.2547 -0.5050  0.7443
 4854TIP3   OH235976   3.780   5.179   1.276  0.7086  0.2015  0.2216
 4854TIP3    H135977   3.833   5.255   1.252  0.5323  0.0774 -0.6156
 4854TIP3    H235978   3.789   5.120   1.201  0.4113 -0.3741  0.6314
 4855TIP3   OH235979   5.763   6.387  14.369 -0.6998  0.4754 -0.4026
 4855TIP3    H135980   5.778   6.328  14.443  0.1081  0.2292 -0.7511
 4855TIP3    H235981   5.668   6.403  14.370 -0.7946 -0.0665  0.2682
 4856TIP3   OH235982   6.204   0.842   3.186  0.5029  0.4189  0.1902
 4856TIP3    H135983   6.200   0.926   3.230  1.3593  0.8072 -0.4257
 4856TIP3    H235984   6.246   0.784   3.249 -0.3531  0.3651  0.7252
 4857TIP3   OH235985   1.248   5.812  12.685 -0.2068  0.4164 -0.2062
 4857TIP3    H135986   1.204   5.843  12.606 -1.5046  2.2556  1.1602
 4857TIP3    H235987   1.178   5.767  12.734  1.0798 -2.7761 -1.0326
 4858TIP3   OH235988   0.669   5.200  15.966 -0.3650  0.2725 -0.0191
 4858TIP3    H135989   0.634   5.279  16.006  1.7294  0.7787  0.9572
 4858TIP3    H235990   0.740   5.173  16.024  1.5417 -0.0665 -2.3281
 4859TIP3   OH235991   2.831   1.411   0.335 -0.1014 -0.1851 -0.0704
 4859TIP3    H135992   2.768   1.477   0.304  0.1819  0.3249  0.4163
 4859TIP3    H235993   2.878   1.455   0.406  1.1844 -0.3737 -0.7854
 4860TIP3   OH235994   2.361   4.478  14.655 -0.2898 -0.2373 -0.3315
 4860TIP3    H135995   2.336   4.558  14.701 -0.5881 -0.3028 -0.3784
 4860TIP3    H235996   2.405   4.508  14.576 -0.3587 -0.1187 -0.3252
 4861TIP3   OH235997   6.186   3.938  11.802 -0.0173  0.3184 -0.0235
 4861TIP3    H135998   6.258   3.901  11.751 -0.0776  0.7570 -0.4334
 4861TIP3    H235999   6.227   3.969  11.883  0.4532  1.5338 -0.6995
 4862TIP3   OH236000   2.050   5.044   0.542 -0.4467 -0.2182 -0.3430
 4862TIP3    H136001   2.011   5.020   0.458 -1.8094 -0.6436  0.3818
 4862TIP3    H236002   2.027   4.971   0.600  1.0946 -0.2746  0.2344
 4863TIP3   OH236003   5.381   0.766   1.315 -0.0238  0.3744 -0.0930
 4863TIP3    H136004   5.435   0.840   1.341  1.2238 -0.5336 -0.0043
 4863TIP3    H236005   5.415   0.692   1.366 -1.4960 -0.1931  0.1267
 4864TIP3   OH236006   4.413   6.532   3.532  0.2165 -0.1683 -0.3086
 4864TIP3    H136007   4.351   6.474   3.577  0.2502 -0.6198 -0.8361
 4864TIP3    H236008   4.369   6.617   3.531 -0.4719 -0.5152 -0.8011
 4865TIP3   OH236009   4.733   5.834  14.023 -0.3575  0.4673  0.2368
 4865TIP3    H136010   4.742   5.752  14.072  0.7717 -0.9812 -2.2047
 4865TIP3    H236011   4.639   5.840  14.004 -0.2436 -1.2976 -1.1205
 4866TIP3   OH236012   0.090   0.667  15.598  0.5004 -0.2529 -0.1658
 4866TIP3    H136013   0.126   0.750  15.628  1.4214 -0.4365 -0.7189
 4866TIP3    H236014   0.092   0.610  15.675  1.6431 -0.3311 -0.2418
 4867TIP3   OH236015   2.602   1.828   3.521 -0.3514  0.2133 -0.3714
 4867TIP3    H136016   2.676   1.864   3.471  0.2506  0.2186  0.5018
 4867TIP3    H236017   2.525   1.853   3.470  0.3230 -1.5206 -2.4157
 4868TIP3   OH236018   6.519   3.417  12.002 -0.2281 -0.0077  0.1092
 4868TIP3    H136019   6.510   3.325  12.029 -0.5719  0.0065  0.0470
 4868TIP3    H236020   6.519   3.466  12.085  1.5980 -0.1823  0.2457
 4869TIP3   OH236021   1.282   1.616  10.513  0.2878 -0.4361  0.0476
 4869TIP3    H136022   1.302   1.673  10.587  1.2599 -0.3759 -0.2502
 4869TIP3    H236023   1.226   1.669  10.456 -1.3803 -0.8556  1.2421
 4870TIP3   OH236024   3.170   6.394   3.297  0.1779 -0.3429 -0.5190
 4870TIP3    H136025   3.197   6.471   3.247 -1.5650  0.4788 -0.2735
 4870TIP3    H236026   3.221   6.322   3.259  1.1261  0.7590 -1.4134
 4871TIP3   OH236027   3.757   4.466   2.023  0.0314 -0.6711 -0.1360
 4871TIP3    H136028   3.815   4.534   1.988  1.2995  0.3032  3.4825
 4871TIP3    H236029   3.799   4.384   1.998  3.0580  0.0048  2.1857
 4872TIP3   OH236030   3.798   0.933  12.143 -0.3821  0.1342 -0.0448
 4872TIP3    H136031   3.765   1.001  12.200 -1.1638 -0.7620  0.6106
 4872TIP3    H236032   3.747   0.942  12.062 -0.2154  0.5642 -0.1000
 4873TIP3   OH236033   4.469   2.919   5.975  0.0462  0.6606  0.3690
 4873TIP3    H136034   4.418   2.948   5.900  0.7798  1.2231  0.0721
 4873TIP3    H236035   4.416   2.941   6.051 -0.8219 -0.1507  0.0141
 4874TIP3   OH236036   0.637   6.217   4.589 -0.8521 -0.1905  0.4343
 4874TIP3    H136037   0.671   6.235   4.676  1.5556  0.4509 -0.5378
 4874TIP3    H236038   0.685   6.278   4.532 -1.2969 -1.5475 -1.4830
 4875TIP3   OH236039   0.719   6.668  11.333  0.2629  0.1184  0.0819
 4875TIP3    H136040   0.623   6.671  11.337  0.2098 -1.3444  0.4678
 4875TIP3    H236041   0.747   6.688  11.423  0.2170 -1.4816  0.4849
 4876TIP3   OH236042   5.995   2.119   3.810  0.1971 -0.4312  0.6531
 4876TIP3    H136043   6.073   2.154   3.854  0.2008  0.0838  0.2537
 4876TIP3    H236044   5.930   2.109   3.880 -0.3352  1.9115  0.5767
 4877TIP3   OH236045   1.922   2.129  16.502  0.0303 -0.7539  0.7058
 4877TIP3    H136046   1.877   2.188  16.561  1.8737  0.1198  1.3293
 4877TIP3    H236047   2.009   2.117  16.541  1.1084 -0.6262 -1.4814
 4878TIP3   OH236048   6.557   3.462   5.362 -0.0356  0.1621 -0.1676
 4878TIP3    H136049   6.525   3.545   5.399  2.7174  1.7987 -1.1877
 4878TIP3    H236050   6.488   3.398   5.385 -1.7150  2.4315  1.6939
 4879TIP3   OH236051   0.120   1.348  11.760  0.1040  0.0064 -0.8262
 4879TIP3    H136052   0.053   1.348  11.692  1.1972 -0.1883 -1.9245
 4879TIP3    H236053   0.166   1.431  11.749  0.8544 -0.4137 -0.9007
 4880TIP3   OH236054   4.950   0.262   1.238 -0.4115  0.1489  0.0131
 4880TIP3    H136055   4.954   0.202   1.164 -0.7360  0.4365 -0.2415
 4880TIP3    H236056   4.914   0.210   1.309 -0.8192  0.0724 -0.2445
 4881TIP3   OH236057   0.382   5.207   1.898 -0.0958 -0.2555  0.3643
 4881TIP3    H136058   0.466   5.162   1.897  0.6087  1.0052 -0.4496
 4881TIP3    H236059   0.325   5.152   1.844  0.2151 -1.0666  0.8392
 4882TIP3   OH236060   0.135   0.347   1.373  0.5875  0.0374  0.0939
 4882TIP3    H136061   0.042   0.335   1.394 -0.0645 -0.9761 -2.9359
 4882TIP3    H236062   0.151   0.440   1.389 -0.5995  0.0163  1.7144
 4883TIP3   OH236063   2.988   0.182  16.638  0.1357 -0.4871  0.1811
 4883TIP3    H136064   2.967   0.227  16.556 -0.6669 -0.1778  0.5432
 4883TIP3    H236065   2.973   0.089  16.618  1.0764 -0.5350 -0.3520
 4884TIP3   OH236066   5.027   0.026   5.001 -0.5470  0.1118 -0.0625
 4884TIP3    H136067   5.014   0.110   4.956  0.0037  0.2849  0.0949
 4884TIP3    H236068   4.966   0.029   5.075  0.0357  0.7111  0.3979
 4885TIP3   OH236069   3.109   3.731   4.081  0.3320 -0.8454 -0.2342
 4885TIP3    H136070   3.046   3.796   4.049  3.7737  2.0239 -1.8645
 4885TIP3    H236071   3.126   3.675   4.006  1.2611 -0.2222 -0.5073
 4886TIP3   OH236072   4.756   1.764  14.812 -0.2187 -0.4934 -0.6299
 4886TIP3    H136073   4.815   1.806  14.749 -2.5607  0.5072 -2.3254
 4886TIP3    H236074   4.788   1.674  14.818  1.4103 -0.0231 -1.5190
 4887TIP3   OH236075   1.779   2.032  11.982  0.6965 -0.1237  0.0258
 4887TIP3    H136076   1.754   2.058  11.893  2.6899  0.0498 -0.5349
 4887TIP3    H236077   1.772   1.936  11.982 -0.2070 -0.0725  0.0093
 4888TIP3   OH236078   1.056   3.826  11.545  0.3188  0.3496 -0.7569
 4888TIP3    H136079   1.012   3.778  11.475  1.1944 -1.5569 -0.0878
 4888TIP3    H236080   1.149   3.826  11.520  0.5977 -0.0934  0.2303
 4889TIP3   OH236081   6.306   5.896   5.375 -0.2535  0.3877 -0.1521
 4889TIP3    H136082   6.348   5.816   5.344 -1.9170 -0.4466 -0.3467
 4889TIP3    H236083   6.371   5.965   5.359  0.8790 -0.7790 -0.7723
 4890TIP3   OH236084   6.466   6.417  15.744 -0.8276 -0.1076 -0.1740
 4890TIP3    H136085   6.436   6.505  15.720  0.1502  0.3955  0.3547
 4890TIP3    H236086   6.520   6.432  15.822  0.4365 -1.0174 -0.8607
 4891TIP3   OH236087   2.186   4.945  15.482  0.0995  0.1922 -0.0522
 4891TIP3    H136088   2.218   4.932  15.392  0.7869 -0.6426  0.3007
 4891TIP3    H236089   2.091   4.947  15.473  0.1430 -0.3973 -0.7391
 4892TIP3   OH236090   6.448   3.362  13.064  0.1865 -0.1636  0.3514
 4892TIP3    H136091   6.365   3.342  13.106 -0.3102 -0.6901 -0.8454
 4892TIP3    H236092   6.431   3.442  13.013  0.6558  0.2146  0.7777
 4893TIP3   OH236093   5.383   6.324  14.644  0.4202 -0.0281  0.3701
 4893TIP3    H136094   5.351   6.242  14.607  0.2052  1.0132 -1.9089
 4893TIP3    H236095   5.315   6.351  14.706 -0.1057 -0.9409  0.1992
 4894TIP3   OH236096   1.992   3.525  13.940 -0.4042  0.2217  0.1036
 4894TIP3    H136097   2.052   3.491  14.006 -1.0786 -1.9069 -0.3217
 4894TIP3    H236098   1.917   3.558  13.990  0.4218  1.5430  0.5368
 4895TIP3   OH236099   6.729   2.023   1.211  0.3397  0.0049  0.1662
 4895TIP3    H136100   6.790   2.075   1.159 -1.4293  1.0716 -0.9478
 4895TIP3    H236101   6.655   2.081   1.225 -1.5782 -2.0812 -0.7800
 4896TIP3   OH236102   3.528   3.808  13.838  0.3088 -0.3018 -0.0382
 4896TIP3    H136103   3.511   3.714  13.832 -0.8691 -0.1333  0.3533
 4896TIP3    H236104   3.545   3.823  13.931  1.3323 -0.2492 -0.2268
 4897TIP3   OH236105   0.551   6.203   1.383 -0.4948 -0.3671  0.6709
 4897TIP3    H136106   0.630   6.251   1.407 -0.3153 -0.2390 -0.1646
 4897TIP3    H236107   0.505   6.260   1.321  0.0070 -1.4842 -0.7733
 4898TIP3   OH236108   4.343   4.543   1.845 -0.1020 -0.2790 -0.4650
 4898TIP3    H136109   4.320   4.492   1.923 -1.2665 -0.2634 -0.7837
 4898TIP3    H236110   4.345   4.479   1.774 -0.7408 -0.0260 -0.7180
 4899TIP3   OH236111   4.527   0.409   3.630  0.5704  0.2826 -0.0226
 4899TIP3    H136112   4.605   0.425   3.578  0.2322  1.5108 -0.1699
 4899TIP3    H236113   4.457   0.395   3.566  0.5451 -0.2320  0.1089
 4900TIP3   OH236114   6.230   6.302  12.367 -0.1299 -0.2950 -0.1182
 4900TIP3    H136115   6.293   6.250  12.317  0.9037 -0.3462  1.1744
 4900TIP3    H236116   6.175   6.343  12.301  2.5230  1.4067 -1.4674
 4901TIP3   OH236117   0.236   1.857  12.304  0.4223 -0.0424 -0.2416
 4901TIP3    H136118   0.308   1.850  12.241  0.7472  2.5666 -0.2666
 4901TIP3    H236119   0.178   1.784  12.281  2.1453 -1.1536 -1.3785
 4902TIP3   OH236120   1.694   4.987  12.071  0.2274  0.1014  0.2576
 4902TIP3    H136121   1.654   4.949  11.992  0.9891 -2.2922  0.9383
 4902TIP3    H236122   1.691   5.081  12.056 -1.0222 -0.2125 -1.9552
 4903TIP3   OH236123   2.897   1.945   4.490  0.1400  0.2042 -0.3635
 4903TIP3    H136124   2.927   2.006   4.423 -0.3423 -0.5484 -1.3068
 4903TIP3    H236125   2.924   1.859   4.457 -1.8086 -0.3657 -0.5956
 4904TIP3   OH236126   1.370   0.939  12.601 -0.3458  0.6078  0.2376
 4904TIP3    H136127   1.285   0.897  12.617  0.9780 -1.5231  2.2532
 4904TIP3    H236128   1.365   1.022  12.649  0.0540 -1.3417  3.9920
 4905TIP3   OH236129   0.822   5.256  12.370 -0.2336 -1.2163  0.3400
 4905TIP3    H136130   0.878   5.299  12.305 -0.0535 -1.9955 -0.0248
 4905TIP3    H236131   0.883   5.225  12.438 -0.5199  0.6674  1.5437
 4906TIP3   OH236132   2.151   5.002  11.797 -0.2765  0.0778 -0.2901
 4906TIP3    H136133   2.140   5.097  11.794 -2.8684 -0.1636 -0.8773
 4906TIP3    H236134   2.086   4.972  11.860  1.8176 -1.2304  1.3807
 4907TIP3   OH236135   2.539   1.048   1.645 -0.3853  0.1574 -0.3355
 4907TIP3    H136136   2.540   1.048   1.741 -0.2999  0.5718 -0.3348
 4907TIP3    H236137   2.542   0.955   1.621 -1.0908  0.0255  0.0659
 4908TIP3   OH236138   2.794   0.148  13.791 -0.6129 -0.4731  0.1047
 4908TIP3    H136139   2.853   0.202  13.842 -0.3070  1.3334 -2.0013
 4908TIP3    H236140   2.847   0.117  13.717 -1.4830 -1.4961 -0.1286
 4909TIP3   OH236141   3.456   6.570   5.392 -0.0829  0.2375 -0.2093
 4909TIP3    H136142   3.449   6.507   5.464 -0.5851 -0.4471 -0.8300
 4909TIP3    H236143   3.477   6.653   5.434  2.1358 -0.6074  0.5376
 4910TIP3   OH236144   3.452   0.835  15.951 -0.2820 -0.3115  0.4858
 4910TIP3    H136145   3.392   0.885  15.895  0.6309 -0.7288 -0.9359
 4910TIP3    H236146   3.420   0.849  16.040 -1.0455  1.4470 -0.0133
 4911TIP3   OH236147   2.962   4.928   3.052 -0.2889  0.0231  0.4412
 4911TIP3    H136148   2.877   4.964   3.076 -0.5356 -0.5634  0.4665
 4911TIP3    H236149   3.007   4.915   3.135 -0.3077  0.0171  0.4504
 4912TIP3   OH236150   5.802   6.026  17.054  0.1856  0.9619 -0.1382
 4912TIP3    H136151   5.754   5.995  16.977  2.3971  2.1424 -2.0903
 4912TIP3    H236152   5.746   6.000  17.128 -1.7371 -0.7756 -2.0440
 4913TIP3   OH236153   4.587   0.129   3.291  0.3755 -0.2167  0.1214
 4913TIP3    H136154   4.505   0.166   3.323  0.3137 -0.3901  0.1609
 4913TIP3    H236155   4.567   0.039   3.269  0.1050  0.2126 -1.5605
 4914TIP3   OH236156   6.510   0.471  12.074  0.4467  0.0539  0.6947
 4914TIP3    H136157   6.521   0.457  12.168 -0.9744 -0.3058  0.8307
 4914TIP3    H236158   6.591   0.437  12.035  0.2531 -1.6275  1.6527
 4915TIP3   OH236159   6.008   1.307  14.361  0.5968 -0.3764 -0.0144
 4915TIP3    H136160   5.972   1.220  14.342 -0.2090 -0.1867  0.6396
 4915TIP3    H236161   6.001   1.354  14.278 -2.2646  0.2199  0.4876
 4916TIP3   OH236162   1.218   3.026  16.830  0.3974  0.4954  0.1841
 4916TIP3    H136163   1.285   2.966  16.863  2.8627  1.9039 -1.8840
 4916TIP3    H236164   1.209   3.092  16.899  0.0824 -0.4269  1.0498
 4917TIP3   OH236165   4.085   5.156   1.615 -0.2660 -0.3988  0.5089
 4917TIP3    H136166   4.143   5.181   1.543 -1.7028 -1.3774 -1.0586
 4917TIP3    H236167   4.107   5.065   1.633  0.0739 -0.1651  1.3292
 4918TIP3   OH236168   0.638   2.541  15.397 -0.5490  0.2091  0.7379
 4918TIP3    H136169   0.717   2.508  15.440 -0.3249  1.1193  1.0405
 4918TIP3    H236170   0.626   2.629  15.433 -1.0596  0.5126 -0.1543
 4919TIP3   OH236171   6.507   2.099  16.386 -0.3232  0.1920 -0.1164
 4919TIP3    H136172   6.529   2.191  16.401  1.6464  0.0690 -1.7349
 4919TIP3    H236173   6.455   2.100  16.305 -0.8391 -0.0832  0.2054
 4920TIP3   OH236174   3.602   1.991   3.624 -0.3670  0.3120  0.2131
 4920TIP3    H136175   3.566   1.948   3.547  0.3609  0.0191  0.0241
 4920TIP3    H236176   3.690   2.019   3.597 -0.7072  1.6636  0.4192
 4921TIP3   OH236177   3.221   4.575  13.108 -0.1035 -0.0727 -0.4371
 4921TIP3    H136178   3.201   4.667  13.128 -0.8694 -0.5614  1.2368
 4921TIP3    H236179   3.236   4.535  13.193  0.8802 -1.3764 -1.1916
 4922TIP3   OH236180   1.226   4.899   4.188  0.2729 -0.1885  0.0755
 4922TIP3    H136181   1.171   4.940   4.255  0.8988 -0.4446  0.7642
 4922TIP3    H236182   1.269   4.972   4.144  0.9112 -0.0551  0.8822
 4923TIP3   OH236183   0.090   5.208  14.531  0.1097 -0.2504 -0.1446
 4923TIP3    H136184   0.071   5.129  14.480 -1.2000 -1.2553  1.7615
 4923TIP3    H236185   0.183   5.201  14.554  0.5734 -0.0580 -1.8476
 4924TIP3   OH236186   6.580   3.976  16.816  0.0793 -0.0689  0.0844
 4924TIP3    H136187   6.533   3.933  16.887 -0.0016  0.5350  0.4020
 4924TIP3    H236188   6.598   3.906  16.753  1.7581 -1.0266  1.5271
 4925TIP3   OH236189   3.900   5.530  17.194  0.1188  0.4121 -0.1865
 4925TIP3    H136190   3.862   5.618  17.198  2.2046  1.3807  0.1464
 4925TIP3    H236191   3.952   5.531  17.113  0.8513 -0.1789  0.2603
 4926TIP3   OH236192   0.986   3.916   1.729  0.0426 -0.3324  0.3425
 4926TIP3    H136193   0.915   3.875   1.680  0.0302  0.4785 -0.3383
 4926TIP3    H236194   1.042   3.843   1.756  0.3401 -0.7601 -1.3401
 4927TIP3   OH236195   3.205   1.811  12.430 -0.1603 -0.1978  0.0483
 4927TIP3    H136196   3.204   1.726  12.385  0.2587  0.1753 -0.7090
 4927TIP3    H236197   3.199   1.790  12.523  3.1097 -1.3045  0.1597
 4928TIP3   OH236198   1.904   3.877  11.388 -0.7871  0.3233  0.1497
 4928TIP3    H136199   1.950   3.941  11.443 -1.2941  0.9403 -0.1291
 4928TIP3    H236200   1.836   3.929  11.344 -2.1492 -0.6600  1.0047
 4929TIP3   OH236201   1.067   1.028   0.491  0.2523  0.6089 -0.4364
 4929TIP3    H136202   1.115   1.097   0.537  1.3459 -0.7582  0.5628
 4929TIP3    H236203   1.133   0.960   0.475 -1.1858 -1.0423  0.3431
 4930TIP3   OH236204   1.191   1.809  14.291 -0.1272  0.5247 -0.0504
 4930TIP3    H136205   1.108   1.849  14.316  0.1224  0.1805  1.4456
 4930TIP3    H236206   1.200   1.828  14.198 -0.5217  3.0432  0.3564
 4931TIP3   OH236207   3.855   1.626   4.059  0.3323 -0.2398 -0.6767
 4931TIP3    H136208   3.903   1.673   4.127 -0.5019 -0.6909  0.2622
 4931TIP3    H236209   3.806   1.694   4.013 -0.6960 -0.1074  0.5303
 4932TIP3   OH236210   5.509   1.181   1.460  0.1117  0.3185  0.5304
 4932TIP3    H136211   5.493   1.212   1.371  2.3781 -0.7431 -0.3458
 4932TIP3    H236212   5.428   1.199   1.507 -1.3446  0.4481 -1.8602
 4933TIP3   OH236213   1.808   1.225   5.225  0.1181 -0.7495  0.7352
 4933TIP3    H136214   1.831   1.289   5.292 -1.3091 -0.2464  0.7757
 4933TIP3    H236215   1.724   1.189   5.254  0.2196 -1.6280 -0.0130
 4934TIP3   OH236216   2.914   6.585  10.861 -0.0106 -0.1924  0.3643
 4934TIP3    H136217   2.943   6.618  10.776 -0.3977 -0.4327  0.1360
 4934TIP3    H236218   2.847   6.648  10.889  0.8277  0.4611  0.9712
 4935TIP3   OH236219   1.350   4.445   3.688  0.5689  0.0375  0.1566
 4935TIP3    H136220   1.427   4.463   3.635 -0.2634  1.1600 -0.6994
 4935TIP3    H236221   1.276   4.457   3.629 -0.3562  0.6970  1.3908
 4936TIP3   OH236222   0.294   6.022   6.115 -0.0014  0.1702 -0.1988
 4936TIP3    H136223   0.278   5.957   6.183  0.9403 -0.5223 -0.6130
 4936TIP3    H236224   0.311   6.104   6.163 -1.7283  0.2679  0.3075
 4937TIP3   OH236225   3.794   4.167   0.924 -0.4720  0.4397  0.4497
 4937TIP3    H136226   3.793   4.256   0.959 -0.9052  0.0516  1.4596
 4937TIP3    H236227   3.837   4.176   0.839  0.6678  1.3972  1.0941
 4938TIP3   OH236228   2.407   5.743  13.397  0.0231 -0.2767  0.2142
 4938TIP3    H136229   2.329   5.688  13.396 -0.7748  0.7923  1.1491
 4938TIP3    H236230   2.391   5.808  13.328  0.6974 -0.8550 -0.4961
 4939TIP3   OH236231   0.341   1.501  12.214 -0.1221  0.0640 -0.0174
 4939TIP3    H136232   0.390   1.581  12.233 -0.1251  0.1989 -0.5869
 4939TIP3    H236233   0.395   1.431  12.251  1.2710  0.0541 -1.9437
 4940TIP3   OH236234   4.267   2.009  12.714 -0.5528  0.1044 -0.2236
 4940TIP3    H136235   4.242   2.055  12.794 -0.4853 -0.1666 -0.0447
 4940TIP3    H236236   4.335   1.948  12.742 -0.0582  0.4691 -0.6092
 4941TIP3   OH236237   5.497   3.563  13.755 -0.6379 -0.4544  0.5622
 4941TIP3    H136238   5.560   3.505  13.714 -1.0820 -1.3320  1.1016
 4941TIP3    H236239   5.550   3.628  13.801 -0.1370  0.0123 -0.6182
 4942TIP3   OH236240   3.614   1.056   5.773  0.2979  0.2724 -0.2796
 4942TIP3    H136241   3.604   1.144   5.736 -2.0248 -0.7510 -2.3599
 4942TIP3    H236242   3.563   1.058   5.854  1.4361  1.1889  0.4469
 4943TIP3   OH236243   3.179   4.696  14.640 -0.1388 -1.0226  0.0194
 4943TIP3    H136244   3.275   4.703  14.634 -0.3024 -0.2590 -3.1474
 4943TIP3    H236245   3.148   4.716  14.552 -3.4624  2.2828  1.6761
 4944TIP3   OH236246   0.737   1.518   4.125  0.2196  0.1593  0.1905
 4944TIP3    H136247   0.826   1.546   4.105 -0.1484  2.6179  1.6295
 4944TIP3    H236248   0.704   1.582   4.187 -2.8806 -0.1463 -0.9184
 4945TIP3   OH236249   0.080   2.749   5.147  0.4185 -0.4967 -0.0425
 4945TIP3    H136250   0.008   2.727   5.088  1.0930 -1.3818 -0.5476
 4945TIP3    H236251   0.045   2.734   5.235 -0.6105  0.8876 -0.1758
 4946TIP3   OH236252   6.295   0.403   5.088 -0.2300  0.3997 -0.3003
 4946TIP3    H136253   6.255   0.347   5.155  3.8125  0.2355  2.2811
 4946TIP3    H236254   6.337   0.341   5.028 -1.5848  0.6248 -1.5282
 4947TIP3   OH236255   2.189   5.513  15.320 -0.0729  0.1251  0.1242
 4947TIP3    H136256   2.094   5.511  15.311 -0.1017  1.1064  0.0831
 4947TIP3    H236257   2.213   5.425  15.348 -0.8682 -0.4805 -1.0301
 4948TIP3   OH236258   5.552   4.260   0.699 -0.6373 -0.0480 -0.0381
 4948TIP3    H136259   5.550   4.225   0.788  1.4674  0.1820  0.1605
 4948TIP3    H236260   5.588   4.189   0.646 -1.2913  0.0323 -0.6066
 4949TIP3   OH236261   4.762   6.628  12.579  0.0773  0.1232  0.3721
 4949TIP3    H136262   4.725   6.715  12.568  0.7719  0.3007 -0.6867
 4949TIP3    H236263   4.735   6.580  12.501  2.2098  0.3275 -0.5574
 4950TIP3   OH236264   0.075   3.379   1.688 -0.4528 -0.2544  0.0403
 4950TIP3    H136265   0.132   3.413   1.757  2.4671  1.5046 -2.9284
 4950TIP3    H236266   0.015   3.452   1.670  0.6876  0.4312 -1.1210
 4951TIP3   OH236267   6.526   1.343  14.373 -0.3723 -0.1072  0.2527
 4951TIP3    H136268   6.570   1.351  14.458  1.3993  0.6253 -0.6789
 4951TIP3    H236269   6.439   1.309  14.394  0.2230 -0.4979  2.3002
 4952TIP3   OH236270   4.265   6.459  11.381 -0.2978  0.0985  0.2596
 4952TIP3    H136271   4.262   6.555  11.375 -0.0494  0.0789 -0.2701
 4952TIP3    H236272   4.358   6.439  11.390 -0.1609 -0.1631 -1.2995
 4953TIP3   OH236273   6.686   1.554   0.566  0.7779  0.3449  0.0740
 4953TIP3    H136274   6.760   1.542   0.506 -0.1718  0.5643 -1.1647
 4953TIP3    H236275   6.609   1.528   0.516 -0.0299  0.3980  1.2509
 4954TIP3   OH236276   3.762   1.550  13.589 -0.3430 -0.2890 -0.1228
 4954TIP3    H136277   3.705   1.479  13.562  0.6161 -0.7598 -0.9547
 4954TIP3    H236278   3.702   1.621  13.614 -1.2839 -0.8926 -0.6294
 4955TIP3   OH236279   6.046   5.220  15.290  0.0264  0.0035 -0.1198
 4955TIP3    H136280   6.069   5.169  15.368  0.2731 -1.8665 -1.3499
 4955TIP3    H236281   6.087   5.172  15.217 -0.7578  1.3183 -1.4789
 4956TIP3   OH236282   2.933   0.300  12.373  0.1589 -0.5940  0.4309
 4956TIP3    H136283   2.909   0.382  12.417  0.0983  0.2098 -1.0482
 4956TIP3    H236284   3.022   0.282  12.401  0.4789  0.4456  0.0995
 4957TIP3   OH236285   4.125   1.855  15.500 -0.3881  0.1171  0.4839
 4957TIP3    H136286   4.160   1.828  15.584 -1.1881 -0.9767  0.4845
 4957TIP3    H236287   4.198   1.844  15.439 -0.3115 -0.7654  0.7287
 4958TIP3   OH236288   0.037   3.065   5.227 -0.3315  0.7560 -0.4295
 4958TIP3    H136289   0.044   3.000   5.157 -1.8518 -0.5624  0.5659
 4958TIP3    H236290   0.036   3.013   5.308  0.8834  2.1942  0.5812
 4959TIP3   OH236291   2.639   2.867  14.165 -0.7581  0.1284  0.4490
 4959TIP3    H136292   2.612   2.785  14.124 -0.0312  0.4211 -0.6448
 4959TIP3    H236293   2.679   2.918  14.094 -1.0919  1.3853  1.1285
 4960TIP3   OH236294   4.055   4.329  10.730  0.2056 -0.3827 -0.3702
 4960TIP3    H136295   4.087   4.365  10.648 -0.1569  0.0468 -0.3245
 4960TIP3    H236296   4.006   4.400  10.771 -0.8723 -1.0401 -0.4708
 4961TIP3   OH236297   5.649   5.980  15.800  0.5567 -0.1209  0.6214
 4961TIP3    H136298   5.601   5.898  15.811 -1.9659  0.9854 -1.0011
 4961TIP3    H236299   5.643   5.999  15.706  1.4712  1.6679  0.8727
 4962TIP3   OH236300   6.202   1.300   4.272  0.5260 -0.5738 -0.8307
 4962TIP3    H136301   6.265   1.317   4.342 -0.2465 -2.2026  0.3256
 4962TIP3    H236302   6.256   1.271   4.198  1.3974  1.6988 -1.1715
 4963TIP3   OH236303   0.249   0.434   4.628  0.3625  0.5934 -0.4937
 4963TIP3    H136304   0.185   0.499   4.599 -1.9724 -0.4893  1.8309
 4963TIP3    H236305   0.330   0.484   4.641 -0.1932  2.2048 -2.5756
 4964TIP3   OH236306   4.960   2.400   4.839  0.5507 -0.5727  0.0912
 4964TIP3    H136307   4.971   2.437   4.927  0.4372  1.0609 -0.5427
 4964TIP3    H236308   5.048   2.375   4.812  0.7457 -0.0590  0.2491
 4965TIP3   OH236309   1.188   1.887   1.593 -0.2594  0.5304 -0.1485
 4965TIP3    H136310   1.137   1.807   1.588 -0.2263  0.5650 -1.1440
 4965TIP3    H236311   1.279   1.857   1.600 -0.0487  0.4349 -2.4928
 4966TIP3   OH236312   5.834   5.641   6.060 -0.0831  0.4085 -0.4643
 4966TIP3    H136313   5.771   5.658   5.990 -0.4831  0.6646 -0.0499
 4966TIP3    H236314   5.902   5.589   6.018 -2.1528 -2.8066 -0.2073
 4967TIP3   OH236315   0.218   1.997   2.209 -0.1658 -0.5279 -0.1746
 4967TIP3    H136316   0.180   2.020   2.124 -1.8741 -1.9383  0.1618
 4967TIP3    H236317   0.294   1.943   2.187  3.2463  3.9206 -0.9415
 4968TIP3   OH236318   0.368   5.607   6.018 -0.1956 -0.2327 -0.4164
 4968TIP3    H136319   0.294   5.588   6.075  0.1303 -0.7814 -0.1698
 4968TIP3    H236320   0.355   5.698   5.991  0.6518  0.7131  2.0761
 4969TIP3   OH236321   4.976   2.478  16.734 -0.1717 -0.7351 -0.0972
 4969TIP3    H136322   5.053   2.455  16.682  1.1041  0.2344  1.2917
 4969TIP3    H236323   4.979   2.573  16.741  0.1555 -0.8556  2.3337
 4970TIP3   OH236324   4.284   6.157  13.049 -0.8204  0.0621  0.1905
 4970TIP3    H136325   4.357   6.100  13.074 -1.4916 -0.9916 -0.1641
 4970TIP3    H236326   4.325   6.238  13.018  0.2810 -1.0911 -1.5143
 4971TIP3   OH236327   5.675   3.125   6.351 -0.0391  0.1430  0.2213
 4971TIP3    H136328   5.712   3.039   6.331  0.0730 -0.1552  1.6163
 4971TIP3    H236329   5.622   3.147   6.274  0.4672 -0.8637 -0.4396
 4972TIP3   OH236330   2.697   3.066   4.960 -0.2199  0.0820  0.3318
 4972TIP3    H136331   2.771   3.026   5.005 -1.6024 -0.6122  2.1109
 4972TIP3    H236332   2.726   3.155   4.940  1.9403 -0.8797 -1.2585
 4973TIP3   OH236333   3.910   3.836   2.624  0.5490  0.4701  0.6460
 4973TIP3    H136334   3.987   3.790   2.658  1.6253 -0.8298 -2.9989
 4973TIP3    H236335   3.943   3.923   2.601  0.3124  0.6954  1.1433
 4974TIP3   OH236336   6.306   4.469   2.730 -0.4333  0.2538  0.2539
 4974TIP3    H136337   6.268   4.555   2.745 -0.9372  0.0279  0.2954
 4974TIP3    H236338   6.395   4.475   2.766 -0.7312  0.5207  0.9658
 4975TIP3   OH236339   3.521   2.742  11.641  0.6267 -0.0763 -0.1370
 4975TIP3    H136340   3.441   2.696  11.666  0.0208  1.3930  0.8004
 4975TIP3    H236341   3.584   2.720  11.710  0.4781  0.1123  0.0635
 4976TIP3   OH236342   2.082   5.262  11.749  0.2127 -0.0159 -0.1179
 4976TIP3    H136343   1.987   5.263  11.737  0.2726  0.1376 -0.6105
 4976TIP3    H236344   2.100   5.337  11.805 -0.2222 -1.5164  2.1615
 4977TIP3   OH236345   6.631   6.320   3.267  0.7958 -0.0098  0.6228
 4977TIP3    H136346   6.625   6.229   3.298 -2.3020 -0.8488 -1.8818
 4977TIP3    H236347   6.675   6.313   3.182 -0.2836  0.6636 -0.0120
 4978TIP3   OH236348   6.045   2.868   0.366  0.5346  0.6444  0.3641
 4978TIP3    H136349   6.085   2.788   0.331 -1.4951 -0.7451  1.0457
 4978TIP3    H236350   6.098   2.890   0.443  0.8547 -0.2922  0.4229
 4979TIP3   OH236351   0.462   5.882  15.883  0.1816 -0.0337  0.6979
 4979TIP3    H136352   0.555   5.863  15.894  0.3082  0.9218  1.4275
 4979TIP3    H236353   0.445   5.956  15.942 -0.3159  1.9493 -1.7488
 4980TIP3   OH236354   2.180   0.615  11.191  0.1833 -0.2260  0.0076
 4980TIP3    H136355   2.098   0.655  11.163 -0.4507 -1.0926  0.5784
 4980TIP3    H236356   2.200   0.659  11.274 -0.1122 -0.5288  0.2467
 4981TIP3   OH236357   4.008   3.893  14.216  0.3494 -0.1076  0.7990
 4981TIP3    H136358   4.053   3.823  14.264 -0.3286 -0.4074  1.0180
 4981TIP3    H236359   4.065   3.911  14.141  0.1429 -1.4772  0.2841
 4982TIP3   OH236360   2.970   1.051   4.495  0.1547  0.0315  0.2465
 4982TIP3    H136361   3.063   1.036   4.479  0.4351  0.2099  1.6015
 4982TIP3    H236362   2.968   1.107   4.572 -1.0843  0.0447  0.2184
 4983TIP3   OH236363   2.700   2.185   1.254  0.2714 -0.3740  0.1863
 4983TIP3    H136364   2.680   2.168   1.346  2.1569 -1.8320  0.3967
 4983TIP3    H236365   2.795   2.198   1.252  0.2750 -0.4599 -1.5574
 4984TIP3   OH236366   4.719   2.236  14.137  0.6356  0.1272  0.0031
 4984TIP3    H136367   4.792   2.191  14.179  0.1555 -0.7784 -0.1121
 4984TIP3    H236368   4.656   2.250  14.207 -0.1989 -1.4531 -0.3931
 4985TIP3   OH236369   0.525   3.816   5.668  0.0145  0.4895  0.2860
 4985TIP3    H136370   0.615   3.845   5.651  0.5787 -0.2310  1.8688
 4985TIP3    H236371   0.472   3.896   5.661  0.8487  1.0171 -0.1313
 4986TIP3   OH236372   3.437   4.100  14.984  0.8826  0.3992 -0.1374
 4986TIP3    H136373   3.497   4.175  14.974 -1.0189  2.1677  0.8893
 4986TIP3    H236374   3.351   4.135  14.960 -0.1962 -1.2686  1.0799
 4987TIP3   OH236375   5.490   0.408  13.314 -0.0717 -0.2518 -0.1885
 4987TIP3    H136376   5.573   0.415  13.267  1.0076 -0.9368  1.4825
 4987TIP3    H236377   5.481   0.314  13.331 -1.5792 -0.2655 -0.9570
 4988TIP3   OH236378   4.290   5.540   2.428 -0.1051 -0.1243  0.1895
 4988TIP3    H136379   4.204   5.537   2.470 -0.4466  0.2166 -0.4662
 4988TIP3    H236380   4.323   5.628   2.446 -0.6132  0.3140 -0.9294
 4989TIP3   OH236381   5.606   6.573   1.926 -0.5176 -0.2074  0.2671
 4989TIP3    H136382   5.591   6.522   2.005 -0.9770 -0.5521 -0.0373
 4989TIP3    H236383   5.691   6.615   1.940  1.4615 -3.5435 -0.7982
 4990TIP3   OH236384   3.378   1.837  15.746  0.5262  0.7010 -0.2831
 4990TIP3    H136385   3.386   1.819  15.653  1.0025  0.1241 -0.1393
 4990TIP3    H236386   3.439   1.909  15.762 -0.2273  1.4195 -0.5743
 4991TIP3   OH236387   1.974   5.626  10.351  0.1393  0.1213  0.1352
 4991TIP3    H136388   1.954   5.619  10.445  0.9180  1.1267  0.4021
 4991TIP3    H236389   1.912   5.567  10.309 -0.0467 -0.5592  1.3069
 4992TIP3   OH236390   5.693   1.241   3.746  0.1779  0.2223  0.8927
 4992TIP3    H136391   5.663   1.330   3.760 -1.3136 -0.3499  1.5005
 4992TIP3    H236392   5.729   1.214   3.831  0.5796  0.2264  0.7251
 4993TIP3   OH236393   6.588   0.559   4.542 -0.5583  0.4052 -0.4616
 4993TIP3    H136394   6.513   0.597   4.495 -0.9440  1.1401  0.7209
 4993TIP3    H236395   6.556   0.545   4.631  0.6615  0.5798  0.0253
 4994TIP3   OH236396   3.275   2.860  15.947 -0.3694  0.9543 -0.5088
 4994TIP3    H136397   3.214   2.798  15.907  0.5960  0.3956 -1.1285
 4994TIP3    H236398   3.264   2.940  15.896 -0.2009  0.6928 -0.9580
 4995TIP3   OH236399   5.238   1.346  17.146 -0.1074  0.0258 -0.0061
 4995TIP3    H136400   5.179   1.399  17.092  0.3332 -0.7632 -1.3177
 4995TIP3    H236401   5.303   1.409  17.179 -1.3697  0.8201  1.0836
 4996TIP3   OH236402   3.580   6.764   0.872 -0.0133 -0.3342 -0.5872
 4996TIP3    H136403   3.619   6.851   0.870  2.0387 -1.1905 -0.3980
 4996TIP3    H236404   3.529   6.762   0.953  0.0329  0.6551 -0.5294
 4997TIP3   OH236405   3.736   1.556   0.023 -0.1982  0.1792 -0.0164
 4997TIP3    H136406   3.757   1.649   0.034 -0.8865  0.4580 -0.9331
 4997TIP3    H236407   3.643   1.551   0.043 -0.0251 -0.4494  0.6916
 4998TIP3   OH236408   6.368   0.918   3.485 -0.7857  0.4233  0.3454
 4998TIP3    H136409   6.461   0.928   3.466 -1.1471 -0.4395 -2.4476
 4998TIP3    H236410   6.365   0.878   3.572  1.4096  0.8753  0.6890
 4999TIP3   OH236411   5.589   3.734   0.956 -0.0934  0.1286 -0.6186
 4999TIP3    H136412   5.603   3.675   1.030 -1.1740  0.6688  0.0335
 4999TIP3    H236413   5.660   3.712   0.895  1.0551 -0.0641  0.7264
 5000TIP3   OH236414   6.570   2.004   1.979  0.1284  0.3716  0.0375
 5000TIP3    H136415   6.617   1.949   1.917 -1.0866 -0.8579  0.1629
 5000TIP3    H236416   6.576   1.958   2.062 -1.4996  0.0120 -0.0034
 5001TIP3   OH236417   1.229   0.477   4.003  0.3562  0.0132 -1.3676
 5001TIP3    H136418   1.196   0.554   3.958  0.4658  0.0152 -1.4441
 5001TIP3    H236419   1.278   0.428   3.937  1.7765  0.7589 -0.9198
 5002TIP3   OH236420   2.776   4.882  13.902 -0.0257  0.2985  0.0177
 5002TIP3    H136421   2.801   4.940  13.831 -3.1176  0.6876 -0.9158
 5002TIP3    H236422   2.784   4.935  13.981  0.9599  0.6932 -0.3402
 5003TIP3   OH236423   6.144   2.426   4.542 -0.0047 -0.2398  0.3103
 5003TIP3    H136424   6.111   2.489   4.606  1.0569  0.5060  0.1363
 5003TIP3    H236425   6.078   2.427   4.472 -0.2690  0.2750  0.5564
 5004TIP3   OH236426   2.742   1.265   2.273  0.7857 -0.1561 -0.0514
 5004TIP3    H136427   2.773   1.193   2.218 -1.3584 -0.1362 -1.3735
 5004TIP3    H236428   2.789   1.342   2.239 -1.0578  0.0065 -2.5361
 5005TIP3   OH236429   3.487   3.693   1.550  0.3640  0.5026  0.1505
 5005TIP3    H136430   3.429   3.739   1.490 -0.5431 -0.5794  0.1601
 5005TIP3    H236431   3.497   3.605   1.512  1.3597  0.4238  0.5640
 5006TIP3   OH236432   4.168   1.952  11.781 -0.3429 -0.0197  0.3907
 5006TIP3    H136433   4.099   1.904  11.826  0.0314 -0.0065  0.9956
 5006TIP3    H236434   4.185   2.029  11.836  0.6928 -0.4328  0.6786
 5007TIP3   OH236435   2.172   4.383   0.884  0.1970  0.0545  0.0178
 5007TIP3    H136436   2.117   4.410   0.811  0.3669 -1.1733 -0.5960
 5007TIP3    H236437   2.118   4.321   0.933  0.3072  0.4020  0.5897
 5008TIP3   OH236438   2.479   6.342  11.731  0.1598  0.0957  0.0660
 5008TIP3    H136439   2.530   6.410  11.687  1.8638 -0.9309  0.3574
 5008TIP3    H236440   2.411   6.390  11.778  0.1870  1.4418 -1.1708
 5009TIP3   OH236441   4.214   1.075   5.798  0.0380 -0.0742  0.2406
 5009TIP3    H136442   4.220   1.166   5.767 -2.6481  0.3726  0.7615
 5009TIP3    H236443   4.224   1.081   5.893 -1.5189 -0.0911  0.4299
 5010TIP3   OH236444   4.521   4.775  10.611 -0.2946  0.4709  0.3670
 5010TIP3    H136445   4.593   4.717  10.636  0.0906  0.5782 -0.4596
 5010TIP3    H236446   4.482   4.801  10.694  0.6353  0.4294  0.8371
 5011TIP3   OH236447   2.590   5.084  13.682 -0.1316  0.3396 -0.0222
 5011TIP3    H136448   2.598   5.000  13.636  0.8481  0.7304 -0.5986
 5011TIP3    H236449   2.552   5.061  13.766  0.7149 -0.7855  0.0818
 5012TIP3   OH236450   5.613   0.732  15.663 -0.5404  0.4494 -0.0193
 5012TIP3    H136451   5.704   0.728  15.633 -0.4774 -0.7912  0.2561
 5012TIP3    H236452   5.562   0.736  15.582 -0.3171 -1.4932 -0.3195
 5013TIP3   OH236453   4.063   5.429   5.303 -0.0015  0.3518  1.1176
 5013TIP3    H136454   4.110   5.440   5.385  1.2584  1.0232  0.3429
 5013TIP3    H236455   4.115   5.477   5.239  0.1605 -1.7721 -0.4613
 5014TIP3   OH236456   4.924   5.485  15.751  0.1371  0.6718 -0.5271
 5014TIP3    H136457   4.950   5.465  15.841  1.2064 -1.5061 -1.2665
 5014TIP3    H236458   4.835   5.450  15.744  0.8502 -1.1463 -0.9037
 5015TIP3   OH236459   6.756   5.424   4.574  0.3144 -0.3290  0.2974
 5015TIP3    H136460   6.750   5.433   4.479  2.2201  0.0924  0.1712
 5015TIP3    H236461   6.850   5.434   4.593 -0.1806  1.0400  2.3565
 5016TIP3   OH236462   3.570   3.487  15.488 -0.1626 -0.5108  0.0175
 5016TIP3    H136463   3.650   3.538  15.476  0.4779 -1.2020  1.1643
 5016TIP3    H236464   3.516   3.541  15.547 -1.6656  1.1050 -2.6396
 5017TIP3   OH236465   3.355   0.969   5.191  0.0141  0.2229  0.3093
 5017TIP3    H136466   3.346   0.955   5.097  0.9040  0.2285  0.2197
 5017TIP3    H236467   3.293   1.040   5.210  1.3661  1.7342 -0.6676
 5018TIP3   OH236468   1.907   5.711   4.885  0.6401 -0.5075  0.8144
 5018TIP3    H136469   1.862   5.638   4.927 -0.4603 -0.4683 -0.2447
 5018TIP3    H236470   1.999   5.688   4.889  0.3683 -1.6106  1.1289
 5019TIP3   OH236471   1.855   5.287   2.125  0.0442  0.5210 -0.1653
 5019TIP3    H136472   1.884   5.238   2.048  2.2717  1.4372  0.0075
 5019TIP3    H236473   1.816   5.367   2.089  0.2184  0.5114 -0.3818
 5020TIP3   OH236474   2.678   4.047   2.474  0.3533 -0.0316 -0.1807
 5020TIP3    H136475   2.672   3.958   2.439  0.3174  0.4874 -1.5536
 5020TIP3    H236476   2.598   4.057   2.526 -0.0299 -0.5280 -0.6616
 5021TIP3   OH236477   2.625   5.356  11.115 -0.5416 -0.0383  0.3209
 5021TIP3    H136478   2.663   5.305  11.044 -0.7658  1.2772 -0.7884
 5021TIP3    H236479   2.662   5.444  11.105 -0.2723  0.0908  2.0917
 5022TIP3   OH236480   1.350   5.961   0.771 -0.0159 -0.3914 -0.1214
 5022TIP3    H136481   1.429   5.942   0.822  0.7612  1.4657 -0.5520
 5022TIP3    H236482   1.278   5.949   0.833  0.9229  2.0141  1.5684
 5023TIP3   OH236483   1.701   5.653  16.325 -0.6073  0.7388  0.2669
 5023TIP3    H136484   1.667   5.621  16.408  0.6763  1.3577  1.0579
 5023TIP3    H236485   1.651   5.734  16.309 -0.3096  1.0442  0.8472
 5024TIP3   OH236486   1.713   1.656  13.646  0.3417 -0.1874 -0.0577
 5024TIP3    H136487   1.757   1.594  13.704 -0.6633  0.3415  1.3351
 5024TIP3    H236488   1.747   1.741  13.672  0.3650  0.0001 -0.6998
 5025TIP3   OH236489   0.236   3.779   1.125  0.2587  0.2639 -0.8420
 5025TIP3    H136490   0.246   3.713   1.056  0.8172 -0.9241  0.3424
 5025TIP3    H236491   0.142   3.798   1.126 -0.4409 -2.7461  0.7467
 5026TIP3   OH236492   6.618   3.476  10.863  0.1823  0.0157  0.1713
 5026TIP3    H136493   6.564   3.546  10.827  1.1634  0.2752 -0.8785
 5026TIP3    H236494   6.592   3.398  10.815  0.2114 -0.0101  0.1966
 5027TIP3   OH236495   2.963   3.280  13.659 -0.6146  0.4438 -0.0544
 5027TIP3    H136496   2.947   3.298  13.752 -1.7135 -1.0975  0.0887
 5027TIP3    H236497   2.941   3.362  13.615 -0.3444  1.1100  1.0189
 5028TIP3   OH236498   0.300   2.043   3.292 -0.5386 -0.2191 -0.1520
 5028TIP3    H136499   0.381   2.094   3.299 -0.8057  0.2906 -0.6795
 5028TIP3    H236500   0.291   2.000   3.377 -0.1865  0.4452  0.2285
 5029TIP3   OH236501   2.163   0.139  16.308 -0.7540 -0.0097 -0.0355
 5029TIP3    H136502   2.142   0.213  16.365 -1.0369 -0.9369  1.1086
 5029TIP3    H236503   2.129   0.063  16.355 -3.0994 -0.6259 -2.5193
 5030TIP3   OH236504   6.268   3.409  14.320  0.0456 -0.4465 -0.2716
 5030TIP3    H136505   6.344   3.388  14.266 -0.6207 -0.8584 -1.0619
 5030TIP3    H236506   6.305   3.423  14.408  1.0513 -0.4435 -0.6814
 5031TIP3   OH236507   4.388   1.995  13.718 -0.6453  0.3155  0.0107
 5031TIP3    H136508   4.480   2.013  13.735 -0.4489  0.2827 -0.9565
 5031TIP3    H236509   4.367   2.050  13.642 -1.7599  1.2777  0.9733
 5032TIP3   OH236510   0.741   4.144   2.686  0.1307  0.6313  0.2736
 5032TIP3    H136511   0.652   4.112   2.696  0.1397  0.1025 -1.0334
 5032TIP3    H236512   0.744   4.180   2.597  1.3703  0.1046  0.0732
 5033TIP3   OH236513   4.036   0.786   1.193  0.2430 -0.0702 -0.3969
 5033TIP3    H136514   3.948   0.819   1.209  0.6646  0.4996  0.8736
 5033TIP3    H236515   4.094   0.856   1.224  1.1401 -0.6801 -0.6654
 5034TIP3   OH236516   0.443   1.365   3.262 -0.0094 -0.3045 -0.0943
 5034TIP3    H136517   0.444   1.435   3.328  0.7802  0.8748 -1.2872
 5034TIP3    H236518   0.350   1.347   3.247 -0.2008 -0.3560  1.0887
 5035TIP3   OH236519   5.214   1.128   2.045 -0.2860  0.0342  0.0750
 5035TIP3    H136520   5.163   1.050   2.069 -0.9801  0.0659 -1.2136
 5035TIP3    H236521   5.304   1.097   2.038  0.0285  0.0713  2.8540
 5036TIP3   OH236522   4.081   6.134   1.559  0.5951  0.2804  0.3485
 5036TIP3    H136523   4.138   6.186   1.503  0.0062 -0.0841 -0.6176
 5036TIP3    H236524   3.998   6.181   1.558  0.4090 -0.0459  0.4347
 5037TIP3   OH236525   2.435   4.831  16.025  0.5001 -1.1301 -0.0120
 5037TIP3    H136526   2.343   4.805  16.021  0.1887 -0.1729  0.3696
 5037TIP3    H236527   2.484   4.749  16.031 -0.2925 -1.6714 -0.7732
 5038TIP3   OH236528   0.523   5.573   1.274  0.2894  0.1051  0.1683
 5038TIP3    H136529   0.567   5.514   1.335 -0.3061 -0.5430 -0.0124
 5038TIP3    H236530   0.431   5.569   1.300  0.2698  1.1001  0.2662
 5039TIP3   OH236531   2.554   1.435  17.067 -0.2167 -1.1332  0.6181
 5039TIP3    H136532   2.575   1.342  17.074 -0.2268 -1.0031  3.5767
 5039TIP3    H236533   2.469   1.437  17.024 -0.1251 -2.4630  0.3249
 5040TIP3   OH236534   3.295   0.651   2.862  0.0174  0.0163 -0.0777
 5040TIP3    H136535   3.257   0.616   2.781  1.0762  0.2303 -0.6889
 5040TIP3    H236536   3.292   0.577   2.923  0.1968 -0.4813 -0.6543
 5041TIP3   OH236537   4.554   5.721   3.012  0.0816  0.4816 -0.0798
 5041TIP3    H136538   4.468   5.696   2.978 -0.7523  1.8168  0.9594
 5041TIP3    H236539   4.606   5.739   2.933 -0.6550 -0.0859 -0.7101
 5042TIP3   OH236540   5.885   2.979   3.199  0.3683 -0.5016  0.0253
 5042TIP3    H136541   5.792   2.956   3.201 -0.0375  0.9577  2.5947
 5042TIP3    H236542   5.909   2.974   3.106 -1.8176 -2.4919 -0.5402
 5043TIP3   OH236543   5.727   3.669  13.249 -0.1479  0.0784  0.3375
 5043TIP3    H136544   5.668   3.596  13.264 -0.2301  0.1121  0.1776
 5043TIP3    H236545   5.678   3.746  13.277 -0.3280  0.1493 -0.1720
 5044TIP3   OH236546   3.754   0.204   0.868 -0.1183  0.5088 -0.2597
 5044TIP3    H136547   3.772   0.292   0.901  0.4769  1.3625 -2.6778
 5044TIP3    H236548   3.825   0.187   0.806 -1.4623 -0.7132 -1.5465
 5045TIP3   OH236549   5.974   0.666  14.395  0.1570  0.5890 -0.0700
 5045TIP3    H136550   5.991   0.577  14.425  0.7022  0.4569 -0.7410
 5045TIP3    H236551   6.033   0.721  14.446  1.7320  0.2749 -1.4568
 5046TIP3   OH236552   2.172   5.545  11.736  0.7187  0.5161 -0.0008
 5046TIP3    H136553   2.238   5.507  11.796 -0.6025 -0.2020  1.0570
 5046TIP3    H236554   2.220   5.560  11.655  2.5689  1.4495  1.1957
 5047TIP3   OH236555   5.800   5.218  12.993  0.1670  0.2249 -0.5452
 5047TIP3    H136556   5.882   5.187  12.954 -0.3738 -2.6958  0.3919
 5047TIP3    H236557   5.828   5.267  13.071  1.0401 -0.7691 -0.2081
 5048TIP3   OH236558   0.384   4.231   0.265 -0.6725 -0.0353  0.8893
 5048TIP3    H136559   0.356   4.180   0.189  0.3854 -1.2507  1.2735
 5048TIP3    H236560   0.439   4.170   0.316  2.9368  2.1666  0.0151
 5049TIP3   OH236561   6.574   1.815  15.458  0.5582 -0.2052 -0.1129
 5049TIP3    H136562   6.568   1.908  15.434 -0.1107 -0.4178 -0.8115
 5049TIP3    H236563   6.637   1.779  15.395  0.0156 -0.4362 -0.5292
 5050TIP3   OH236564   5.534   2.778  16.250 -0.9377  0.5366  0.2438
 5050TIP3    H136565   5.499   2.827  16.176  1.2248  1.2786 -0.3636
 5050TIP3    H236566   5.473   2.796  16.321 -2.5957  0.4985 -1.1191
 5051TIP3   OH236567   0.162   0.579  12.866 -0.0552 -0.2457  0.3345
 5051TIP3    H136568   0.112   0.659  12.880 -3.0536 -1.3468 -2.6408
 5051TIP3    H236569   0.178   0.544  12.954 -0.2551  2.6121  1.6004
 5052TIP3   OH236570   6.450   4.376  13.234 -0.8471 -0.2462  0.8736
 5052TIP3    H136571   6.498   4.440  13.181 -1.7421  0.1803  0.5471
 5052TIP3    H236572   6.517   4.333  13.287  0.0353 -0.4267 -0.3345
 5053TIP3   OH236573   2.514   5.845  14.288 -0.5625 -0.3059 -0.4267
 5053TIP3    H136574   2.510   5.776  14.222 -0.5002 -0.7652  0.0364
 5053TIP3    H236575   2.576   5.909  14.253  0.6969 -1.3106 -0.1228
 5054TIP3   OH236576   3.533   2.723   5.481  0.0295  0.6483  0.4129
 5054TIP3    H136577   3.500   2.673   5.556  1.6576 -2.2717 -0.6353
 5054TIP3    H236578   3.504   2.672   5.405  2.7194  0.6148 -0.6946
 5055TIP3   OH236579   6.017   3.982  15.577  0.2736  0.1378 -0.3703
 5055TIP3    H136580   6.025   3.969  15.671 -1.1833  0.5337 -0.1675
 5055TIP3    H236581   6.104   3.961  15.542  1.0569  0.7637  1.1371
 5056TIP3   OH236582   3.242   2.206  15.709 -0.1933  0.0807 -0.0762
 5056TIP3    H136583   3.230   2.139  15.642  0.1247  0.4097 -0.4695
 5056TIP3    H236584   3.297   2.272  15.667  0.5843 -0.0328  0.7473
 5057TIP3   OH236585   6.371   4.427  13.948  0.1171  0.5029  0.1144
 5057TIP3    H136586   6.379   4.446  13.854 -1.8471 -1.1380 -0.4660
 5057TIP3    H236587   6.390   4.510  13.991  1.5235  1.2033 -1.6884
 5058TIP3   OH236588   1.111   3.161  15.880 -0.1551 -0.4763 -0.0890
 5058TIP3    H136589   1.169   3.086  15.889  0.1563 -0.3857 -1.2872
 5058TIP3    H236590   1.066   3.148  15.797 -0.0341  0.7028 -0.3562
 5059TIP3   OH236591   5.569   3.802  13.419 -0.2777 -0.5477 -0.5240
 5059TIP3    H136592   5.632   3.767  13.481 -0.5019  1.5040  0.9793
 5059TIP3    H236593   5.483   3.779  13.455 -0.4022 -0.0426 -0.4865
 5060TIP3   OH236594   5.353   2.160   0.495  0.1355  0.0401  0.5452
 5060TIP3    H136595   5.353   2.242   0.446  0.4073  1.1027  2.2448
 5060TIP3    H236596   5.367   2.092   0.428 -1.3738  1.2332 -1.0682
 5061TIP3   OH236597   6.084   1.873  14.264 -0.1679  0.3611 -0.0543
 5061TIP3    H136598   6.110   1.964  14.263  0.6291  0.1351 -0.4417
 5061TIP3    H236599   5.996   1.873  14.301 -0.7702  1.4380 -1.4166
 5062TIP3   OH236600   3.762   0.639   4.731 -0.1876  0.4251  0.2515
 5062TIP3    H136601   3.831   0.586   4.769  0.6752  1.3131 -0.0411
 5062TIP3    H236602   3.696   0.576   4.702  1.1570 -0.5398 -0.7998
 5063TIP3   OH236603   5.039   0.208  16.825 -0.1152 -0.2228 -0.2189
 5063TIP3    H136604   5.068   0.294  16.858 -0.7380 -0.2481  0.4049
 5063TIP3    H236605   5.014   0.159  16.903  0.4111 -1.0518 -0.5557
 5064TIP3   OH236606   3.107   3.735  10.909 -0.2458  0.0140  0.3329
 5064TIP3    H136607   3.088   3.642  10.893 -1.3149  0.5061 -1.6111
 5064TIP3    H236608   3.163   3.761  10.836  1.7491  0.4844  1.9279
 5065TIP3   OH236609   0.384   1.449  13.563 -0.0615  0.7553 -0.1796
 5065TIP3    H136610   0.452   1.452  13.495 -0.3670  1.0991 -0.4705
 5065TIP3    H236611   0.375   1.356  13.584  0.4419  0.7005 -0.1960
 5066TIP3   OH236612   2.334   0.724  13.031 -0.5106  0.3788  0.0801
 5066TIP3    H136613   2.411   0.746  13.084  1.2621  0.9034 -2.5383
 5066TIP3    H236614   2.309   0.637  13.062  1.0793  0.2269  1.0734
 5067TIP3   OH236615   2.830   1.461  16.857 -0.2015  0.3166  0.1716
 5067TIP3    H136616   2.891   1.460  16.930 -0.7831  0.4199  0.6698
 5067TIP3    H236617   2.854   1.385  16.804  0.9189  0.8573 -0.1253
 5068TIP3   OH236618   3.212   4.018   3.450  0.1013 -0.0624 -0.0461
 5068TIP3    H136619   3.203   3.952   3.382  0.9575  1.7094 -1.9958
 5068TIP3    H236620   3.277   3.981   3.510  0.7213 -0.9346 -1.2060
 5069TIP3   OH236621   5.763   4.314   6.569  0.1581 -0.5171 -0.1439
 5069TIP3    H136622   5.778   4.238   6.626 -1.1354 -0.8108 -0.1752
 5069TIP3    H236623   5.699   4.284   6.505 -1.5024  1.0201  0.7235
 5070TIP3   OH236624   6.094   0.422   2.573  0.9008  0.2000 -0.1819
 5070TIP3    H136625   6.015   0.369   2.582  0.2473  1.0145 -0.9933
 5070TIP3    H236626   6.132   0.424   2.661  1.0009 -1.6747 -0.1443
 5071TIP3   OH236627   4.906   3.664  13.560  0.1035 -0.3823  0.0344
 5071TIP3    H136628   4.873   3.581  13.593  1.5817  0.0879  3.0092
 5071TIP3    H236629   4.972   3.640  13.496 -0.6259 -1.4223 -0.3533
 5072TIP3   OH236630   5.439   3.110  12.572  0.6901  0.2910  0.1554
 5072TIP3    H136631   5.506   3.159  12.619 -0.0267 -0.3248  1.8893
 5072TIP3    H236632   5.368   3.173  12.557  0.4568  0.2198  0.9197
 5073TIP3   OH236633   6.192   5.660  14.974  0.3816  0.6842  0.2426
 5073TIP3    H136634   6.128   5.719  15.014  0.1775  0.3894  0.3488
 5073TIP3    H236635   6.172   5.574  15.010  1.3413  0.7157  0.8983
 5074TIP3   OH236636   5.132   3.314   2.428  0.0159 -0.5166  0.6858
 5074TIP3    H136637   5.089   3.366   2.496  0.4759 -0.4819  0.9473
 5074TIP3    H236638   5.220   3.297   2.461  0.2214 -0.5610  0.1344
 5075TIP3   OH236639   3.450   3.224  13.119  0.3540  0.0376 -0.7307
 5075TIP3    H136640   3.545   3.220  13.106  0.2338  0.4610 -1.8980
 5075TIP3    H236641   3.414   3.166  13.052 -0.2842  1.6996 -1.9098
 5076TIP3   OH236642   5.407   5.837   6.482  0.0697 -0.4526 -0.4482
 5076TIP3    H136643   5.387   5.793   6.400 -0.4127  2.0668 -1.7946
 5076TIP3    H236644   5.342   5.907   6.488  1.3507  0.6814  1.0367
 5077TIP3   OH236645   6.214   0.152   1.421  0.4770  0.3283  0.2475
 5077TIP3    H136646   6.255   0.067   1.404 -0.4050  0.0240 -0.4675
 5077TIP3    H236647   6.121   0.137   1.403 -0.1999  0.6494  2.9885
 5078TIP3   OH236648   3.345   0.111   4.685 -0.2644  0.0317  0.1871
 5078TIP3    H136649   3.295   0.038   4.721  0.7032 -0.4260  0.6416
 5078TIP3    H236650   3.432   0.102   4.723 -0.0058  1.1851 -0.0840
 5079TIP3   OH236651   5.843   0.119  12.722 -0.1945  0.2815 -0.0543
 5079TIP3    H136652   5.821   0.127  12.815 -0.4691  1.4611 -0.2039
 5079TIP3    H236653   5.759   0.097  12.680 -0.2401  0.5780 -0.1200
 5080TIP3   OH236654   0.366   1.197  13.793  0.2635  0.0851 -0.0361
 5080TIP3    H136655   0.310   1.127  13.759  0.0149  0.0188  0.5006
 5080TIP3    H236656   0.311   1.245  13.855  0.9041 -0.2192  0.7965
 5081TIP3   OH236657   3.667   1.844   0.866 -0.2956  0.1776 -0.6179
 5081TIP3    H136658   3.612   1.904   0.815  0.4757  2.0927  0.6442
 5081TIP3    H236659   3.606   1.779   0.901 -1.8743  2.3272  0.8957
 5082TIP3   OH236660   2.433   0.556   1.300  0.0814 -0.4731  0.3550
 5082TIP3    H136661   2.339   0.553   1.280  0.0772 -1.0308  0.4398
 5082TIP3    H236662   2.466   0.630   1.249 -0.3079 -0.6007 -0.0907
 5083TIP3   OH236663   0.719   3.342   1.740  0.4613  0.2552 -0.3567
 5083TIP3    H136664   0.636   3.339   1.788 -0.0738  2.2849 -1.0543
 5083TIP3    H236665   0.783   3.371   1.805  0.2458  0.5480 -0.2752
 5084TIP3   OH236666   5.325   5.528  14.955 -0.2463  0.0667 -0.5821
 5084TIP3    H136667   5.256   5.497  14.897 -0.9048  2.9533 -1.4647
 5084TIP3    H236668   5.399   5.547  14.897 -0.4464  1.6860 -0.3549
 5085TIP3   OH236669   0.080   2.783  11.959 -0.6765  0.0454 -0.0912
 5085TIP3    H136670   0.159   2.775  11.907 -0.0549  0.1921  0.8069
 5085TIP3    H236671   0.081   2.874  11.991 -0.1789 -0.4872  1.5000
 5086TIP3   OH236672   4.829   1.156   2.134  1.1786  0.2251 -0.0009
 5086TIP3    H136673   4.798   1.099   2.064  0.5297  0.3853  0.1525
 5086TIP3    H236674   4.832   1.243   2.095  1.9387  0.1407 -0.1628
 5087TIP3   OH236675   2.176   6.128  15.310  0.4951 -0.2375 -0.0842
 5087TIP3    H136676   2.108   6.190  15.284  2.1608  2.8760  2.2183
 5087TIP3    H236677   2.170   6.125  15.405  2.4219 -1.2946  0.0489
 5088TIP3   OH236678   4.802   5.190   3.541 -0.0689 -0.1034  0.0653
 5088TIP3    H136679   4.809   5.260   3.606 -0.8071 -0.6200  0.7169
 5088TIP3    H236680   4.806   5.109   3.591  0.4295 -0.5311 -0.6474
 5089TIP3   OH236681   2.150   3.111  13.073 -0.2837  0.0877  0.0085
 5089TIP3    H136682   2.069   3.111  13.125  0.1138 -0.2491  0.6339
 5089TIP3    H236683   2.161   3.020  13.046  0.4283 -0.0674  0.7861
 5090TIP3   OH236684   0.699   2.728  13.784 -0.1366 -0.6279  0.3501
 5090TIP3    H136685   0.728   2.679  13.862 -0.8174 -1.4677  0.0823
 5090TIP3    H236686   0.781   2.749  13.738  0.3178  0.3628  1.5634
 5091TIP3   OH236687   2.323   5.826  14.815 -0.2039 -0.0051  0.4141
 5091TIP3    H136688   2.325   5.904  14.871 -1.1613 -0.1600  0.6819
 5091TIP3    H236689   2.231   5.817  14.790  0.1581 -0.1034 -0.9684
 5092TIP3   OH236690   0.069   2.106   2.851 -0.0161  0.3754 -0.2552
 5092TIP3    H136691   0.104   2.133   2.767 -0.8886  1.1146 -0.3929
 5092TIP3    H236692   0.144   2.110   2.911  0.5235  0.2035 -0.9115
 5093TIP3   OH236693   3.375   4.723   4.146  0.1166  0.5953  0.1566
 5093TIP3    H136694   3.423   4.641   4.129 -0.9206  0.0579 -0.2490
 5093TIP3    H236695   3.443   4.790   4.148  0.8670 -0.1120 -0.7063
 5094TIP3   OH236696   5.952   5.733  15.755  0.2006 -0.0971  0.4425
 5094TIP3    H136697   6.003   5.652  15.760  0.5916  0.1179 -0.0733
 5094TIP3    H236698   5.956   5.759  15.663  0.5162  0.7943  0.7018
 5095TIP3   OH236699   0.635   4.731   6.196 -0.0998  0.0789  0.1828
 5095TIP3    H136700   0.642   4.640   6.224 -0.1289  0.4409  1.4256
 5095TIP3    H236701   0.725   4.765   6.202 -0.2134  0.3369  0.5003
 5096TIP3   OH236702   5.464   2.095   2.716 -0.2731 -0.1638 -0.3717
 5096TIP3    H136703   5.469   2.053   2.802 -1.1333  0.4870  0.0004
 5096TIP3    H236704   5.469   2.022   2.654  2.0851 -0.5271  0.1484
 5097TIP3   OH236705   0.097   1.446   4.186 -0.2833  0.6720 -0.0042
 5097TIP3    H136706   0.113   1.540   4.194 -1.5448  0.8410  0.8073
 5097TIP3    H236707   0.035   1.426   4.256  1.3594 -1.1233  1.0265
 5098TIP3   OH236708   1.539   5.597  16.558 -0.5601  0.0415  0.0114
 5098TIP3    H136709   1.545   5.631  16.647  0.2636 -1.4341  0.5556
 5098TIP3    H236710   1.449   5.564  16.552 -0.7480  0.5279  0.1581
 5099TIP3   OH236711   2.567   0.747   4.718  0.1937  0.2818 -0.2776
 5099TIP3    H136712   2.561   0.842   4.731  0.4525  0.5996 -2.1568
 5099TIP3    H236713   2.476   0.719   4.706  0.1851  0.4575 -0.6452
 5100TIP3   OH236714   4.688   4.782   2.620  0.2749  0.2219 -0.0824
 5100TIP3    H136715   4.698   4.797   2.525 -1.5555 -0.6232 -0.4514
 5100TIP3    H236716   4.675   4.869   2.656  0.4990  0.5115 -0.6762
 5101TIP3   OH236717   6.625   0.594   3.752 -0.4047 -0.0687 -0.2399
 5101TIP3    H136718   6.718   0.612   3.741 -0.2979  0.5680  1.3517
 5101TIP3    H236719   6.608   0.610   3.845 -1.6988 -2.0472 -0.0642
 5102TIP3   OH236720   2.444   5.076   3.444  0.0672  0.3229 -0.1082
 5102TIP3    H136721   2.353   5.103   3.456 -0.2589 -0.9306  0.3996
 5102TIP3    H236722   2.457   5.006   3.508  0.4555 -1.6475 -2.2173
 5103TIP3   OH236723   0.156   4.815  11.669 -0.0974  0.2889  0.0179
 5103TIP3    H136724   0.200   4.831  11.585  0.6027  0.5808  0.4299
 5103TIP3    H236725   0.073   4.861  11.662 -0.3872 -0.3384 -0.8103
 5104TIP3   OH236726   0.562   4.509  15.125 -0.3341  0.3196 -0.1649
 5104TIP3    H136727   0.506   4.559  15.066 -0.4374  1.9842  1.2549
 5104TIP3    H236728   0.523   4.521  15.212  2.3682  1.8988  0.9595
 5105TIP3   OH236729   6.017   5.511  10.661 -0.1329  0.4468 -0.3787
 5105TIP3    H136730   6.046   5.569  10.590  1.0404  0.5660  0.1824
 5105TIP3    H236731   6.066   5.430  10.648 -2.3061 -0.7768 -1.6032
 5106TIP3   OH236732   2.772   2.790   6.235  0.2382  0.6835  0.6674
 5106TIP3    H136733   2.771   2.695   6.222 -0.1551  0.3512  2.8080
 5106TIP3    H236734   2.714   2.824   6.166  1.6629 -0.4184 -1.1715
 5107TIP3   OH236735   2.403   5.485  16.272  0.3154 -0.0015 -0.3205
 5107TIP3    H136736   2.433   5.412  16.219  0.7638 -0.4847  0.5707
 5107TIP3    H236737   2.394   5.558  16.211  1.3620 -0.3919 -0.9509
 5108TIP3   OH236738   3.962   0.180  11.595  0.5639  0.1054  0.1035
 5108TIP3    H136739   3.877   0.215  11.621 -0.4255 -2.5268  0.7503
 5108TIP3    H236740   4.026   0.231  11.645 -0.6476  1.7800  0.0131
 5109TIP3   OH236741   0.290   3.136  12.999  0.3657  0.5805  0.3189
 5109TIP3    H136742   0.287   3.223  13.039  0.7388  0.5757  0.3679
 5109TIP3    H236743   0.215   3.090  13.035  0.8175  0.5073  1.1808
 5110TIP3   OH236744   1.980   3.529  15.063  0.2265 -0.3610  0.2246
 5110TIP3    H136745   1.985   3.481  15.146  2.0255 -0.4122  0.1249
 5110TIP3    H236746   2.066   3.570  15.054 -0.2300  0.3520 -1.2080
 5111TIP3   OH236747   2.582   1.917  12.442 -0.0733  0.1724 -1.0043
 5111TIP3    H136748   2.671   1.941  12.414  0.4311  0.7443  0.8686
 5111TIP3    H236749   2.537   2.001  12.452 -0.7221 -0.1007 -1.6364
 5112TIP3   OH236750   5.172   1.114   0.772  0.1173  0.1942  0.3112
 5112TIP3    H136751   5.147   1.065   0.694  0.6175  0.7931 -0.2244
 5112TIP3    H236752   5.203   1.047   0.833  1.8089 -0.0730 -0.7938
 5113TIP3   OH236753   4.290   0.116  11.600 -0.3679 -0.8336 -0.1370
 5113TIP3    H136754   4.365   0.126  11.659 -0.2636 -0.0880 -0.3821
 5113TIP3    H236755   4.248   0.202  11.601  1.5640  0.3457 -3.7672
 5114TIP3   OH236756   4.382   6.394  13.780 -0.3321 -0.3328 -0.0205
 5114TIP3    H136757   4.297   6.377  13.738 -0.1730  1.1360 -1.0184
 5114TIP3    H236758   4.409   6.479  13.745  1.3667 -0.5807  0.6105
 5115TIP3   OH236759   5.542   5.992   5.857  0.2940 -0.0335 -0.1019
 5115TIP3    H136760   5.502   6.025   5.937  0.5323 -1.4233  0.6260
 5115TIP3    H236761   5.582   5.909   5.883 -0.7151 -1.1485 -1.9390
 5116TIP3   OH236762   6.062   0.604  15.129 -0.1374 -0.5083  0.3911
 5116TIP3    H136763   6.067   0.586  15.223 -2.2617  1.7687  1.0421
 5116TIP3    H236764   6.034   0.696  15.124 -0.4394 -0.6786 -2.4807
 5117TIP3   OH236765   3.805   4.204  15.072  0.1470  0.2567  0.6503
 5117TIP3    H136766   3.734   4.253  15.030  0.2660 -1.7103 -2.1268
 5117TIP3    H236767   3.876   4.207  15.009  0.2470 -3.1413  0.4274
 5118TIP3   OH236768   0.983   5.678   1.949 -0.0407 -0.2597  0.5070
 5118TIP3    H136769   0.960   5.601   2.000 -0.2648 -0.3005  0.3474
 5118TIP3    H236770   0.967   5.652   1.858  0.6681 -0.2980  0.3887
 5119TIP3   OH236771   2.568   5.552   0.083  0.3188 -0.2555 -0.5228
 5119TIP3    H136772   2.653   5.523   0.114  0.6220  0.6034 -0.5093
 5119TIP3    H236773   2.518   5.472   0.071  1.2714 -0.8010 -0.9548
 5120TIP3   OH236774   5.383   2.844   4.156 -0.1907 -0.3209 -0.5618
 5120TIP3    H136775   5.414   2.890   4.079  0.6983 -0.2418 -0.1654
 5120TIP3    H236776   5.462   2.814   4.201 -0.5931  1.0301  1.1735
 5121TIP3   OH236777   1.964   3.201   2.824 -0.0222 -0.0214 -0.6633
 5121TIP3    H136778   1.982   3.222   2.916 -0.8505  0.4159 -0.5911
 5121TIP3    H236779   1.956   3.106   2.823  0.5504 -0.0765 -0.3865
 5122TIP3   OH236780   2.394   6.547  15.614 -0.6101 -0.0870  0.3883
 5122TIP3    H136781   2.408   6.569  15.522 -1.9625  0.3876  0.2745
 5122TIP3    H236782   2.448   6.609  15.663  1.7271 -1.6314 -0.0863
 5123TIP3   OH236783   3.214   0.944  17.053  0.1300  0.0560 -0.0199
 5123TIP3    H136784   3.221   0.999  17.131  1.1249 -1.4381  0.9979
 5123TIP3    H236785   3.291   0.967  17.001  0.6765 -0.5380  0.5209
 5124TIP3   OH236786   6.780   5.520   5.183 -0.2285 -0.1808 -0.6425
 5124TIP3    H136787   6.852   5.549   5.239 -0.2146 -1.0302 -0.2008
 5124TIP3    H236788   6.816   5.521   5.095 -0.3844  1.6149 -0.7329
 5125TIP3   OH236789   3.534   3.179  11.729 -0.2944 -0.0557  0.5218
 5125TIP3    H136790   3.552   3.165  11.636 -0.3917 -0.3471  0.5465
 5125TIP3    H236791   3.449   3.136  11.743 -1.0991  1.4315  0.3664
 5126TIP3   OH236792   2.748   6.476   3.223  0.5416 -0.9474  0.0955
 5126TIP3    H136793   2.773   6.550   3.279  0.4982 -1.3903  0.7154
 5126TIP3    H236794   2.661   6.499   3.191  1.2782  0.1454 -1.2799
 5127TIP3   OH236795   3.115   4.888   4.592  0.1430 -0.0673  0.1551
 5127TIP3    H136796   3.100   4.862   4.501  1.7304 -1.4573  0.2350
 5127TIP3    H236797   3.162   4.814   4.631 -1.1950  0.1178  2.3565
 5128TIP3   OH236798   6.499   4.213  14.710  0.1227 -0.0502  0.5217
 5128TIP3    H136799   6.429   4.262  14.669  0.4544 -1.3783 -1.8498
 5128TIP3    H236800   6.550   4.278  14.757  0.1322  1.8179 -1.8703
 5129TIP3   OH236801   0.798   4.247   6.122  0.1196 -0.1797 -0.1041
 5129TIP3    H136802   0.751   4.324   6.089  0.1314  0.4047  1.1678
 5129TIP3    H236803   0.760   4.232   6.209  0.0702 -1.6755 -0.3638
 5130TIP3   OH236804   3.596   5.188  16.232  0.1481  0.4684  0.1647
 5130TIP3    H136805   3.542   5.267  16.227 -0.5212 -0.0246 -0.4706
 5130TIP3    H236806   3.556   5.127  16.171  1.2085 -0.0461 -0.0371
 5131TIP3   OH236807   6.166   3.615  12.515  0.1733  0.0340 -0.2052
 5131TIP3    H136808   6.115   3.624  12.596  2.5266  0.1661  1.3596
 5131TIP3    H236809   6.186   3.522  12.510  0.1783  0.0525 -0.5445
 5132TIP3   OH236810   3.558   0.025  13.318 -0.1268 -0.3650  0.1111
 5132TIP3    H136811   3.547   0.027  13.223 -1.3265 -0.2096  0.2431
 5132TIP3    H236812   3.576   0.116  13.343  1.5451 -0.6137 -0.1008
 5133TIP3   OH236813   1.786   4.115  14.506 -1.0190 -0.5544  0.2503
 5133TIP3    H136814   1.789   4.203  14.542 -1.3260 -1.2814  2.1628
 5133TIP3    H236815   1.876   4.083  14.513 -1.0821 -0.7058  0.3774
 5134TIP3   OH236816   4.074   1.898   2.471  0.2039  0.0237  0.1928
 5134TIP3    H136817   4.082   1.845   2.550 -1.1780 -1.1198 -0.3802
 5134TIP3    H236818   4.061   1.834   2.400  1.1700  1.0294 -0.9372
 5135TIP3   OH236819   1.890   1.529  17.191  0.0737 -0.1071 -0.2403
 5135TIP3    H136820   1.976   1.534  17.233 -0.0038 -1.9322  0.1838
 5135TIP3    H236821   1.864   1.621  17.180  1.7032  0.4658  0.3607
 5136TIP3   OH236822   2.627   6.334   1.450  0.1908  0.3125 -0.2267
 5136TIP3    H136823   2.579   6.299   1.375 -1.7197 -0.2496  1.1662
 5136TIP3    H236824   2.560   6.345   1.518  1.4791  2.7596  0.7625
 5137TIP3   OH236825   3.382   4.464   5.156  0.1880 -0.3482  0.2501
 5137TIP3    H136826   3.301   4.511   5.178 -0.9189 -2.2609  0.5232
 5137TIP3    H236827   3.391   4.475   5.061 -0.0594  0.3585  0.3020
 5138TIP3   OH236828   5.410   0.506   5.092  0.1015 -0.0964 -0.1270
 5138TIP3    H136829   5.366   0.562   5.155  0.1084  0.1230 -0.3174
 5138TIP3    H236830   5.370   0.420   5.104 -0.3673  0.0993 -0.2881
 5139TIP3   OH236831   3.250   1.924  16.974 -0.0017 -0.1625  0.3333
 5139TIP3    H136832   3.321   1.883  17.024 -0.3495 -0.4148  0.6300
 5139TIP3    H236833   3.186   1.854  16.963 -0.7955  0.4107  1.2068
 5140TIP3   OH236834   1.560   0.228  15.047  0.1152 -0.1481  0.4799
 5140TIP3    H136835   1.563   0.133  15.033 -0.1191  0.0079 -0.7725
 5140TIP3    H236836   1.483   0.241  15.102  0.8081 -0.7770  1.6343
 5141TIP3   OH236837   2.411   1.209  11.300 -0.1755  0.4385 -0.1051
 5141TIP3    H136838   2.447   1.294  11.274 -0.3346  1.0315  1.4804
 5141TIP3    H236839   2.480   1.146  11.280 -0.2982  0.8403 -1.8808
 5142TIP3   OH236840   3.916   5.061  12.121 -0.3431  0.7380  0.3239
 5142TIP3    H136841   3.980   5.004  12.078 -0.1785  1.1835 -0.0171
 5142TIP3    H236842   3.843   5.002  12.142 -0.2255  0.4202 -0.1332
 5143TIP3   OH236843   3.851   1.973   2.816 -0.1312  0.8718  0.2351
 5143TIP3    H136844   3.777   1.916   2.834  0.1365  0.8429  1.2725
 5143TIP3    H236845   3.880   1.947   2.728  1.0920 -1.8992  1.3187
 5144TIP3   OH236846   0.868   4.108  11.868  0.6325 -0.5580  0.8263
 5144TIP3    H136847   0.877   4.180  11.805 -0.2053  0.5134  1.8765
 5144TIP3    H236848   0.829   4.149  11.945  0.9795 -1.9811  1.7888
 5145TIP3   OH236849   0.151   4.512  15.098 -0.4116 -0.5527 -0.8833
 5145TIP3    H136850   0.227   4.564  15.069 -0.5827  0.2257  0.0363
 5145TIP3    H236851   0.154   4.434  15.042  0.5390 -0.1145 -1.4850
 5146TIP3   OH236852   3.199   5.784  16.251 -0.4606 -0.3191 -0.5029
 5146TIP3    H136853   3.250   5.718  16.205 -1.1641 -0.8872 -0.4868
 5146TIP3    H236854   3.119   5.794  16.199 -1.8043 -1.8007  1.1072
 5147TIP3   OH236855   5.144   0.137  16.591 -0.1848 -0.1279 -0.1316
 5147TIP3    H136856   5.106   0.160  16.676  2.4105 -1.4525  1.5301
 5147TIP3    H236857   5.183   0.218  16.559 -1.4290  0.4488 -0.2628
 5148TIP3   OH236858   3.152   3.992   1.106  0.1682  0.3346 -0.3583
 5148TIP3    H136859   3.199   3.965   1.027  2.3169  1.6335  0.3981
 5148TIP3    H236860   3.163   3.919   1.167  0.7141  0.4003 -0.3807
 5149TIP3   OH236861   5.669   1.535  16.408 -0.3301 -0.2318 -0.1317
 5149TIP3    H136862   5.673   1.530  16.312 -1.6424 -1.3414 -0.1572
 5149TIP3    H236863   5.740   1.478  16.437  0.6117  0.7522 -0.4086
 5150TIP3   OH236864   2.914   1.070  14.438 -0.0507 -0.1489  0.3598
 5150TIP3    H136865   2.921   1.103  14.349 -0.1072  0.5618  0.6048
 5150TIP3    H236866   2.847   1.125  14.479 -0.6870 -1.0604  0.5829
 5151TIP3   OH236867   2.095   4.945   3.586 -0.0387 -0.3818  0.1275
 5151TIP3    H136868   2.003   4.931   3.567 -0.1281  0.5671 -0.1960
 5151TIP3    H236869   2.140   4.874   3.539 -0.4905  0.0883 -1.0483
 5152TIP3   OH236870   3.168   0.270  15.964 -0.0584 -0.9161  0.4082
 5152TIP3    H136871   3.237   0.235  15.909 -1.2231 -0.5663 -1.3498
 5152TIP3    H236872   3.202   0.354  15.996  0.2854 -0.6821 -0.5535
 5153TIP3   OH236873   1.220   2.481  16.051  0.2113  0.4514  0.1729
 5153TIP3    H136874   1.309   2.480  16.085  0.0125  1.7384  0.7780
 5153TIP3    H236875   1.194   2.388  16.051  0.9765  0.2096  1.5182
 5154TIP3   OH236876   4.691   0.945   3.377 -0.2135  0.7828  0.6793
 5154TIP3    H136877   4.670   1.038   3.367  1.2957  1.0719 -0.0850
 5154TIP3    H236878   4.740   0.922   3.298  0.4407 -0.3686  1.3814
 5155TIP3   OH236879   3.302   4.781  11.048  0.0507 -0.0597  0.1368
 5155TIP3    H136880   3.317   4.774  11.142  0.9065  0.1451  0.0183
 5155TIP3    H236881   3.254   4.863  11.038 -0.3023 -0.2269  0.4179
 5156TIP3   OH236882   2.855   3.771   5.438 -0.5913  0.3040  0.5380
 5156TIP3    H136883   2.765   3.779   5.469  0.1002 -1.4079  3.2924
 5156TIP3    H236884   2.907   3.819   5.502  0.7029 -1.2102  0.6679
 5157TIP3   OH236885   3.187   2.208  16.434 -0.0710 -0.3667  0.2005
 5157TIP3    H136886   3.106   2.212  16.485 -1.8255 -1.0293 -2.3611
 5157TIP3    H236887   3.192   2.293  16.391  0.7561 -0.2474  0.5075
 5158TIP3   OH236888   1.616   5.469  14.273 -0.2148  0.1203  0.8388
 5158TIP3    H136889   1.635   5.482  14.366  0.1977 -2.0622  1.1201
 5158TIP3    H236890   1.702   5.451  14.234 -0.7130 -2.6721  0.7858
 5159TIP3   OH236891   6.598   0.783  13.488  0.0416 -0.5466  0.2317
 5159TIP3    H136892   6.559   0.705  13.528 -0.0063 -0.1631  0.9460
 5159TIP3    H236893   6.684   0.791  13.531  0.1752 -0.3851 -0.0687
 5160TIP3   OH236894   3.717   2.155   4.348 -0.6256 -0.1876 -0.7713
 5160TIP3    H136895   3.680   2.125   4.265 -0.8206  0.1333 -0.8018
 5160TIP3    H236896   3.811   2.141   4.339 -0.9002 -4.8828  0.8101
 5161TIP3   OH236897   4.987   1.321   4.395 -0.1679 -0.2789  0.1415
 5161TIP3    H136898   4.977   1.230   4.366 -4.4187 -0.4499  1.4566
 5161TIP3    H236899   5.069   1.321   4.445  0.6103 -3.0450 -0.9223
 5162TIP3   OH236900   4.456   0.024  16.683 -0.0550 -0.6744 -0.2588
 5162TIP3    H136901   4.433   0.067  16.601 -1.4431 -1.3058 -0.2409
 5162TIP3    H236902   4.450  -0.070  16.663  1.0882 -0.8580  0.1817
 5163TIP3   OH236903   4.466   5.954  13.311  0.7319  0.5993  0.2460
 5163TIP3    H136904   4.545   5.996  13.277  1.1291  1.1657  1.7538
 5163TIP3    H236905   4.426   5.912  13.235  3.1982 -0.8702 -0.3698
 5164TIP3   OH236906   4.737   5.449  14.932  0.3605  0.2194  0.0794
 5164TIP3    H136907   4.804   5.515  14.918 -0.6400  0.8513 -2.2542
 5164TIP3    H236908   4.679   5.456  14.856 -0.7196 -2.2517  0.5471
 5165TIP3   OH236909   6.070   3.978   0.117 -0.3716  0.3270 -0.2222
 5165TIP3    H136910   5.979   4.002   0.132 -0.5355  0.1231 -0.8835
 5165TIP3    H236911   6.107   3.969   0.205 -1.0945 -0.0075  0.0526
 5166TIP3   OH236912   4.339   0.461  15.283  0.6427 -0.1426  0.6855
 5166TIP3    H136913   4.282   0.385  15.282  0.5701 -0.0993 -1.5090
 5166TIP3    H236914   4.279   0.536  15.289  0.4617 -0.1278 -0.9223
 5167TIP3   OH236915   3.482   0.027   0.507  0.3439  0.5674  0.1398
 5167TIP3    H136916   3.505  -0.048   0.562 -0.4657  0.4160  0.2925
 5167TIP3    H236917   3.559   0.041   0.452  1.5325  1.2741  1.8920
 5168TIP3   OH236918   1.723   6.660  11.969 -0.0063 -0.2670  0.1209
 5168TIP3    H136919   1.661   6.587  11.970 -0.7713  0.3756  0.6122
 5168TIP3    H236920   1.718   6.693  11.879 -2.8058  1.7675  0.9052
 5169TIP3   OH236921   1.719   3.286  13.972 -0.1222 -0.1343 -0.1765
 5169TIP3    H136922   1.709   3.377  14.001  2.2891 -0.0532  0.6726
 5169TIP3    H236923   1.765   3.292  13.888  0.5926 -0.5338  0.1700
 5170TIP3   OH236924   5.281   4.057   0.671 -0.5416  0.5932 -0.3362
 5170TIP3    H136925   5.318   4.054   0.583  0.7553 -0.8139  0.2009
 5170TIP3    H236926   5.346   4.012   0.726 -2.0515 -0.0058  1.0595
 5171TIP3   OH236927   6.710   3.111   0.873 -0.6989  0.3966 -0.0820
 5171TIP3    H136928   6.670   3.150   0.795 -2.0371  0.6339  0.6773
 5171TIP3    H236929   6.635   3.082   0.926 -0.0487  3.2649  2.6753
 5172TIP3   OH236930   5.844   1.279  13.978 -0.3351  0.0058  0.2784
 5172TIP3    H136931   5.793   1.320  13.909 -3.1703  0.1671  2.2999
 5172TIP3    H236932   5.869   1.352  14.035  3.6163  0.1672 -1.3348
 5173TIP3   OH236933   6.405   3.796   3.135  0.1755 -0.0484  0.6309
 5173TIP3    H136934   6.431   3.840   3.215  0.5732 -0.1606  0.5649
 5173TIP3    H236935   6.473   3.818   3.072 -1.2412  1.8757 -0.3419
 5174TIP3   OH236936   0.932   3.924  14.260 -0.8787  0.3428  0.4909
 5174TIP3    H136937   0.987   4.002  14.271 -1.9850  1.3192 -0.5768
 5174TIP3    H236938   0.863   3.952  14.200 -1.9729 -1.1381  1.0023
 5175TIP3   OH236939   3.734   2.258   3.306 -0.2233 -0.5694  0.2950
 5175TIP3    H136940   3.694   2.178   3.270  0.0497 -0.3832 -0.4385
 5175TIP3    H236941   3.798   2.284   3.240  0.9105 -0.6899  1.3140
 5176TIP3   OH236942   6.320   0.273   3.763  0.1475  0.2751  0.3761
 5176TIP3    H136943   6.394   0.252   3.706  1.4563 -0.2222  2.1834
 5176TIP3    H236944   6.261   0.324   3.707  0.7113 -1.3289 -1.8013
 5177TIP3   OH236945   3.135   4.954   4.091 -0.0137  0.6993 -0.1164
 5177TIP3    H136946   3.158   4.943   4.183 -0.9487  2.0167  0.3167
 5177TIP3    H236947   3.043   4.981   4.092 -0.0415  0.7356 -1.4335
 5178TIP3   OH236948   6.116   3.586  10.786  0.0356  0.1606 -0.3694
 5178TIP3    H136949   6.117   3.495  10.757 -1.9349 -0.7819  2.1342
 5178TIP3    H236950   6.047   3.627  10.733 -0.2645 -0.2838 -0.3277
 5179TIP3   OH236951   2.902   3.884  14.719 -0.5496  0.2047 -0.0968
 5179TIP3    H136952   2.877   3.805  14.672  1.1094 -0.0641 -0.6063
 5179TIP3    H236953   2.850   3.882  14.799 -0.6145 -1.3471 -0.1574
 5180TIP3   OH236954   1.361   0.828   2.811  0.0360  0.1325 -0.1447
 5180TIP3    H136955   1.269   0.821   2.787 -0.5538  0.6946  1.7797
 5180TIP3    H236956   1.393   0.737   2.810 -0.3062  0.0094 -1.5705
 5181TIP3   OH236957   2.501   0.312   2.578  0.5860 -0.4194 -0.5380
 5181TIP3    H136958   2.531   0.228   2.614  0.9897  0.7650  2.1373
 5181TIP3    H236959   2.425   0.335   2.631 -0.6409  0.1199 -2.4275
 5182TIP3   OH236960   1.732   3.588  12.651 -0.2199  0.6844 -0.1731
 5182TIP3    H136961   1.759   3.497  12.655  0.5982  0.9171 -0.2853
 5182TIP3    H236962   1.657   3.593  12.711  1.1154  0.4023  1.6244
 5183TIP3   OH236963   6.478   2.838  13.985  0.0828  0.2239  0.2010
 5183TIP3    H136964   6.426   2.767  14.023  0.0679 -0.6000 -1.2723
 5183TIP3    H236965   6.459   2.834  13.891  0.7408  1.6490 -0.0194
 5184TIP3   OH236966   4.250   5.851   4.202 -0.4330 -0.0962 -0.4432
 5184TIP3    H136967   4.337   5.816   4.218 -0.7139 -1.4724 -1.6951
 5184TIP3    H236968   4.258   5.944   4.219  0.5465 -0.5802  2.2879
 5185TIP3   OH236969   0.311   0.835  16.123  0.4184 -0.2647  0.1090
 5185TIP3    H136970   0.289   0.743  16.105 -1.8270  0.0970  0.6745
 5185TIP3    H236971   0.242   0.865  16.182  1.2928  1.7132  0.1991
 5186TIP3   OH236972   6.650   0.380   0.583  0.1901 -0.3534 -0.1907
 5186TIP3    H136973   6.556   0.397   0.572 -0.1257 -1.8788 -0.0340
 5186TIP3    H236974   6.654   0.318   0.656  1.6326  2.9251  2.8140
 5187TIP3   OH236975   0.145   6.722  11.153  0.5414  0.2815 -0.7338
 5187TIP3    H136976   0.115   6.719  11.062  0.1075 -0.2157 -0.5786
 5187TIP3    H236977   0.161   6.630  11.176 -2.1434  0.0539  0.5943
 5188TIP3   OH236978   1.101   0.809   2.765 -0.3455 -0.0190  0.3880
 5188TIP3    H136979   1.044   0.836   2.837 -0.2301 -0.2027  0.5525
 5188TIP3    H236980   1.045   0.758   2.707 -0.4173  0.0458  0.4010
 5189TIP3   OH236981   4.939   5.963  14.972 -0.2125 -0.3163 -0.1148
 5189TIP3    H136982   4.843   5.964  14.971 -0.2362 -0.5901  0.8855
 5189TIP3    H236983   4.962   5.977  15.064  0.6843 -1.5965 -0.1226
 5190TIP3   OH236984   2.564   6.199   2.894 -0.4129  0.2121 -0.2851
 5190TIP3    H136985   2.495   6.225   2.956 -0.4357 -0.5091  0.0016
 5190TIP3    H236986   2.616   6.279   2.882 -0.6959  0.4939  0.2919
 5191TIP3   OH236987   4.767   4.780  15.560 -0.3044 -0.1138 -0.1449
 5191TIP3    H136988   4.822   4.784  15.638 -0.9590  0.7390  0.2919
 5191TIP3    H236989   4.699   4.716  15.582 -0.0529 -0.4325 -0.3016
 5192TIP3   OH236990   4.203   0.490  16.615 -1.0044 -0.1651  0.2308
 5192TIP3    H136991   4.150   0.560  16.654 -1.5930 -1.2329  1.4180
 5192TIP3    H236992   4.246   0.532  16.541 -2.8173  0.9757 -0.2489
 5193TIP3   OH236993   0.671   5.002  13.183  0.0750  0.3685 -0.0175
 5193TIP3    H136994   0.661   5.045  13.098  1.3671  1.1646  0.1957
 5193TIP3    H236995   0.655   5.072  13.246  1.9632  0.5272  0.3421
 5194TIP3   OH236996   6.459   1.961  14.636 -0.1894  0.2895 -0.1552
 5194TIP3    H136997   6.432   1.913  14.558  1.1377  0.6447 -0.8674
 5194TIP3    H236998   6.461   1.895  14.706 -1.8741  0.0680 -0.2737
 5195TIP3   OH236999   5.501   5.200  13.986 -0.4930  0.0314 -0.4345
 5195TIP3    H137000   5.517   5.155  14.069  2.9924  0.5937 -0.6766
 5195TIP3    H237001   5.424   5.156  13.951 -0.0918 -2.5240  1.5308
 5196TIP3   OH237002   0.595   6.780   0.259  0.0306  0.0929 -0.5135
 5196TIP3    H137003   0.507   6.796   0.293 -0.0671  1.6201 -1.3909
 5196TIP3    H237004   0.653   6.826   0.320 -0.0448  1.6613 -1.5550
 5197TIP3   OH237005   0.523   3.348   5.692  0.1331 -0.6014 -0.5724
 5197TIP3    H137006   0.617   3.361   5.702  0.2633  0.2625 -2.5082
 5197TIP3    H237007   0.514   3.294   5.613 -0.9698 -1.5036  0.1398
 5198TIP3   OH237008   3.051   3.740  13.108  0.1285 -0.0090  0.8527
 5198TIP3    H137009   3.056   3.653  13.148  0.5385 -0.4727 -0.1863
 5198TIP3    H237010   3.142   3.770  13.105  0.1347 -0.0950  0.0258
 5199TIP3   OH237011   2.936   5.374  14.018 -0.0401 -0.4227 -0.1637
 5199TIP3    H137012   3.001   5.426  14.066 -0.4794  0.2934 -0.3257
 5199TIP3    H237013   2.969   5.370  13.928 -0.2526  0.0066 -0.2633
 5200TIP3   OH237014   2.045   5.316  17.137  0.1231  0.3443 -0.2210
 5200TIP3    H137015   2.024   5.383  17.073 -0.5353 -0.3408 -0.7390
 5200TIP3    H237016   1.960   5.293  17.176  0.3547 -0.1362  0.0031
 5201TIP3   OH237017   3.991   4.186  12.636 -0.4971  0.3202 -0.4622
 5201TIP3    H137018   3.989   4.091  12.632 -0.7667  0.3589 -3.0913
 5201TIP3    H237019   3.931   4.209  12.707 -2.9211 -1.4587 -1.7609
 5202TIP3   OH237020   1.716   1.209   5.585 -0.0209 -0.1387  0.4465
 5202TIP3    H137021   1.779   1.137   5.587  0.5119  0.2643 -0.9258
 5202TIP3    H237022   1.749   1.268   5.518 -2.0201 -0.0526 -0.5311
 5203TIP3   OH237023   3.976   5.790   1.068 -0.6198  0.2109 -0.1732
 5203TIP3    H137024   3.896   5.742   1.089 -0.7834  0.8775  0.7690
 5203TIP3    H237025   4.002   5.830   1.151 -0.3154  1.4913 -0.8754
 5204TIP3   OH237026   4.165   0.498   6.019 -0.5562 -0.4693 -0.3402
 5204TIP3    H137027   4.243   0.444   6.003 -1.2258 -1.8391  0.8177
 5204TIP3    H237028   4.199   0.575   6.066  0.4468  0.3431 -2.2520
 5205TIP3   OH237029   3.206   4.666   5.219 -0.5314 -0.0184  0.2161
 5205TIP3    H137030   3.115   4.685   5.196 -0.3588 -0.9241 -1.3744
 5205TIP3    H237031   3.227   4.729   5.288 -1.5433  2.0377 -1.2549
 5206TIP3   OH237032   3.366   1.626   3.611 -0.5419 -0.1082  0.1086
 5206TIP3    H137033   3.325   1.629   3.698  0.5355  1.7126  0.5954
 5206TIP3    H237034   3.303   1.671   3.554 -0.0547  1.1472  0.5203
 5207TIP3   OH237035   1.003   2.270  11.700 -0.0594 -0.5321 -0.1326
 5207TIP3    H137036   0.935   2.240  11.761 -1.6805 -0.9014 -2.0195
 5207TIP3    H237037   1.027   2.357  11.732  1.0643 -1.7022  2.5104
 5208TIP3   OH237038   4.053   4.949  15.484 -0.9311  0.7312 -0.0460
 5208TIP3    H137039   4.051   4.948  15.579  1.6130 -4.4485  0.2611
 5208TIP3    H237040   3.981   4.892  15.457  0.1132 -0.1965 -0.9916
 5209TIP3   OH237041   1.481   4.937  16.632  0.5166  0.3376 -0.1033
 5209TIP3    H137042   1.572   4.942  16.604  0.5992 -0.5997 -0.0357
 5209TIP3    H237043   1.436   4.891  16.562  0.3894 -0.4841  0.4973
 5210TIP3   OH237044   1.377   2.563  11.670  0.2335 -0.0496  0.4306
 5210TIP3    H137045   1.418   2.504  11.606 -0.7216  0.3546 -0.5943
 5210TIP3    H237046   1.342   2.635  11.617 -0.7061  0.2274  1.3985
 5211TIP3   OH237047   5.429   5.918   1.416 -0.2675  0.0602 -0.6816
 5211TIP3    H137048   5.519   5.944   1.394 -0.7863  0.5406 -2.3469
 5211TIP3    H237049   5.441   5.847   1.479  1.2669  0.5592 -0.3464
 5212TIP3   OH237050   1.834   0.595   5.702  0.6729  0.0264 -0.3577
 5212TIP3    H137051   1.926   0.580   5.683  0.2293 -1.5566 -1.5186
 5212TIP3    H237052   1.808   0.522   5.758 -0.1010 -0.1442 -0.9081
 5213TIP3   OH237053   6.069   6.497  10.990  0.3201 -0.6778  0.5316
 5213TIP3    H137054   6.056   6.563  10.921  0.1753 -0.1491  1.0575
 5213TIP3    H237055   6.007   6.428  10.968  2.0033 -1.7129 -1.3054
 5214TIP3   OH237056   5.583   2.017   4.214 -0.6395 -0.3233 -0.2537
 5214TIP3    H137057   5.663   1.973   4.186  0.7874  0.8815  1.6532
 5214TIP3    H237058   5.535   2.034   4.132  0.6666 -1.7182 -1.3778
 5215TIP3   OH237059   6.013   1.952   0.541  0.2464  0.8913  0.6616
 5215TIP3    H137060   5.925   1.916   0.554  0.1034  1.2432  0.6849
 5215TIP3    H237061   6.067   1.907   0.605 -0.1807  1.6183  1.5653
 5216TIP3   OH237062   0.921   5.454   2.073  0.2353 -0.2907  0.2188
 5216TIP3    H137063   0.989   5.397   2.036 -0.3733 -0.8611 -0.0315
 5216TIP3    H237064   0.844   5.398   2.081 -0.4881  0.5801 -0.3721
 5217TIP3   OH237065   6.337   1.343   0.670  0.3925  0.0950  0.0356
 5217TIP3    H137066   6.300   1.431   0.679  3.9999  1.5871  3.1156
 5217TIP3    H237067   6.370   1.339   0.581  0.4760  2.0722 -0.0674
 5218TIP3   OH237068   0.241   2.148  13.884 -0.1114  0.3845  0.1433
 5218TIP3    H137069   0.291   2.067  13.896  1.6513  1.4159  0.1470
 5218TIP3    H237070   0.160   2.120  13.842 -0.2872 -1.5686  1.6377
 5219TIP3   OH237071   3.024   0.199  15.471 -0.7989  0.1113  0.6940
 5219TIP3    H137072   3.062   0.245  15.546 -0.6330 -1.4067  1.5988
 5219TIP3    H237073   2.930   0.214  15.479 -0.6676  1.2965  0.2475
 5220TIP3   OH237074   0.559   5.331   2.302 -0.2568 -0.2673  0.3719
 5220TIP3    H137075   0.540   5.418   2.269 -1.6703 -0.8864 -0.5254
 5220TIP3    H237076   0.487   5.311   2.361  1.1221 -0.0455  2.2045
 5221TIP3   OH237077   2.306   4.640  11.094 -0.2712  0.2158 -0.5861
 5221TIP3    H137078   2.259   4.710  11.049 -1.3803  0.4234  0.8095
 5221TIP3    H237079   2.237   4.589  11.138  0.7189 -0.1189  0.6487
 5222TIP3   OH237080   0.674   5.990  13.780  0.6037 -0.0286 -0.2090
 5222TIP3    H137081   0.749   5.939  13.809  1.5037  1.0302 -0.5702
 5222TIP3    H237082   0.630   6.016  13.861  0.8554 -0.3254  0.0282
 5223TIP3   OH237083   0.329   1.783   2.103  0.4288  0.6423 -0.1123
 5223TIP3    H137084   0.280   1.746   2.177  1.8574 -1.2846 -0.0633
 5223TIP3    H237085   0.289   1.743   2.026  0.5049  0.7663 -0.2156
 5224TIP3   OH237086   1.047   0.597   1.226 -0.7171 -0.8968 -0.1598
 5224TIP3    H137087   1.031   0.690   1.242 -0.1946 -0.8241 -0.0549
 5224TIP3    H237088   1.113   0.572   1.291 -1.3421 -1.5024  0.2550
 5225TIP3   OH237089   0.449   1.313  11.352  0.3176  0.0068 -0.4087
 5225TIP3    H137090   0.460   1.232  11.402  1.3875 -0.5434 -1.4924
 5225TIP3    H237091   0.374   1.297  11.296 -0.8080  0.5796  0.8732
 5226TIP3   OH237092   4.521   2.814   5.080  0.3274 -0.0801  0.1563
 5226TIP3    H137093   4.555   2.803   5.169  0.7543  0.8652  0.1230
 5226TIP3    H237094   4.437   2.857   5.092  0.6369  0.5521  0.0793
 5227TIP3   OH237095   0.150   0.791  16.592 -0.2287 -0.4076  0.1335
 5227TIP3    H137096   0.237   0.756  16.573 -0.4566 -0.8429 -0.1176
 5227TIP3    H237097   0.166   0.862  16.654  0.2749 -0.7028  0.3460
 5228TIP3   OH237098   3.545   1.913   0.221  0.1067 -0.2285 -0.1077
 5228TIP3    H137099   3.548   1.899   0.316 -2.2644 -1.7789 -0.1872
 5228TIP3    H237100   3.484   1.986   0.210  0.6233  0.1604 -0.4538
 5229TIP3   OH237101   4.952   6.455   4.835 -0.1147  0.0297 -0.2200
 5229TIP3    H137102   5.005   6.456   4.756 -1.8257 -2.9190 -1.5873
 5229TIP3    H237103   4.878   6.398   4.813 -1.7426  0.7445  2.8605
 5230TIP3   OH237104   5.672   6.371   2.805  0.3108  0.4875 -0.2103
 5230TIP3    H137105   5.752   6.337   2.845  0.0488 -0.0857 -0.1621
 5230TIP3    H237106   5.703   6.432   2.738  0.9063 -1.5290 -1.8936
 5231TIP3   OH237107   3.119   6.043  13.272  0.0570 -0.2325 -0.0540
 5231TIP3    H137108   3.176   6.053  13.349  0.3081  2.0698 -0.4551
 5231TIP3    H237109   3.149   5.962  13.231  2.2877  0.2642  0.4200
 5232TIP3   OH237110   2.297   4.183  13.132  0.9479 -0.1707 -0.0745
 5232TIP3    H137111   2.215   4.226  13.157 -0.3047 -0.4029 -3.3010
 5232TIP3    H237112   2.281   4.090  13.145  0.5707 -0.2353 -0.9400
 5233TIP3   OH237113   0.434   1.125   3.961  0.0672 -0.2993 -0.1503
 5233TIP3    H137114   0.526   1.147   3.975 -0.2362 -0.1681  1.9718
 5233TIP3    H237115   0.387   1.176   4.027 -1.2208 -2.5848  0.8250
 5234TIP3   OH237116   3.461   6.455  15.265  0.0839 -0.4956  0.0630
 5234TIP3    H137117   3.510   6.438  15.186  4.3981  1.4663  2.0154
 5234TIP3    H237118   3.414   6.537  15.248  0.6599 -0.2948 -0.5676
 5235TIP3   OH237119   6.553   1.650  11.857  0.0668  0.5700  0.0715
 5235TIP3    H137120   6.551   1.697  11.940  1.2726  0.2508  0.2954
 5235TIP3    H237121   6.596   1.567  11.877 -2.7112 -1.0425 -0.1398
 5236TIP3   OH237122   2.841   4.878  16.237 -0.1521 -0.2896 -0.5173
 5236TIP3    H137123   2.924   4.922  16.221 -0.2891 -0.0815 -0.6698
 5236TIP3    H237124   2.864   4.796  16.280  0.0855  0.1610  0.2495
 5237TIP3   OH237125   2.336   6.770   2.871 -0.1676 -0.2408  0.0869
 5237TIP3    H137126   2.274   6.844   2.869  0.0507 -0.0740 -0.6068
 5237TIP3    H237127   2.280   6.692   2.870 -0.3647 -0.1087 -1.8283
 5238TIP3   OH237128   1.023   6.253   0.298  0.0071 -0.2378  0.3955
 5238TIP3    H137129   0.998   6.296   0.216  3.0427  0.8890 -0.0827
 5238TIP3    H237130   1.073   6.176   0.270 -0.0829 -0.5901  1.1967
 5239TIP3   OH237131   5.861   5.853  14.705  0.9362 -0.0323 -0.3348
 5239TIP3    H137132   5.918   5.793  14.657  0.2030 -0.7990 -0.2830
 5239TIP3    H237133   5.832   5.802  14.781  1.9695  1.1135  0.8807
 5240TIP3   OH237134   3.108   1.998   5.229 -0.0434 -0.3998 -0.3877
 5240TIP3    H137135   3.050   1.979   5.155 -0.8384  0.3058  0.0336
 5240TIP3    H237136   3.049   2.014   5.302  0.7160 -0.3879  0.2399
 5241TIP3   OH237137   1.575   1.025   3.824  0.1149  0.1397 -0.0173
 5241TIP3    H137138   1.561   1.119   3.834  0.3326  0.1834 -0.1167
 5241TIP3    H237139   1.651   1.006   3.878  0.6159  0.1836 -0.6860
 5242TIP3   OH237140   0.640   1.114   2.684 -0.5660 -0.4775 -0.1485
 5242TIP3    H137141   0.553   1.109   2.644 -1.4793  1.0032  1.5376
 5242TIP3    H237142   0.652   1.028   2.724 -0.5689 -1.2167 -1.6399
 5243TIP3   OH237143   2.187   1.931   3.833  0.7091  0.4306  0.0897
 5243TIP3    H137144   2.105   1.896   3.869  0.5883  1.5253  0.9550
 5243TIP3    H237145   2.159   1.996   3.769  0.9252 -1.6995 -2.2959
 5244TIP3   OH237146   4.860   2.150   4.898 -0.1780 -0.3089  0.2867
 5244TIP3    H137147   4.927   2.151   4.830  2.4990 -1.0860  2.7269
 5244TIP3    H237148   4.859   2.239   4.933 -0.0202 -0.4325  0.6101
 5245TIP3   OH237149   1.935   6.038  11.253 -0.3229  0.1868  0.1041
 5245TIP3    H137150   1.950   6.045  11.159 -1.8394 -2.0595 -0.3891
 5245TIP3    H237151   2.010   5.987  11.285 -0.4015 -0.0492 -0.0872
 5246TIP3   OH237152   0.003   5.563   0.421 -0.2126  0.7235  0.3965
 5246TIP3    H137153  -0.071   5.535   0.368 -0.5220  1.0211  0.6644
 5246TIP3    H237154   0.079   5.552   0.363 -0.1110 -1.9007  0.9065
 5247TIP3   OH237155   1.648   2.064   5.923 -0.2604 -0.2237 -0.8707
 5247TIP3    H137156   1.739   2.079   5.895  0.1891 -4.1572 -2.0794
 5247TIP3    H237157   1.654   2.054   6.018  0.2059  1.3345 -0.7056
 5248TIP3   OH237158   0.815   4.293  14.915 -0.3484 -0.2504 -0.3897
 5248TIP3    H137159   0.898   4.274  14.871  0.7483  2.8104  0.1171
 5248TIP3    H237160   0.749   4.258  14.856  1.2428 -2.4537 -0.9994
 5249TIP3   OH237161   0.508   1.879   4.151  0.3853 -0.1661  0.1787
 5249TIP3    H137162   0.563   1.956   4.140 -1.4269  0.9313 -1.8971
 5249TIP3    H237163   0.431   1.911   4.200  0.7987 -1.3185  1.6797
 5250TIP3   OH237164   4.950   3.693   1.891  0.2975 -0.0450 -0.0714
 5250TIP3    H137165   4.922   3.762   1.952 -1.1646 -0.2330 -0.4933
 5250TIP3    H237166   4.868   3.653   1.861  1.0268 -0.4815 -1.5595
 5251TIP3   OH237167   1.375   1.623   4.944 -0.1685  0.3925  0.0760
 5251TIP3    H137168   1.335   1.572   5.014  1.6244 -0.8560  0.2547
 5251TIP3    H237169   1.466   1.633   4.971  0.2856  0.9041 -1.5364
 5252TIP3   OH237170   1.876   2.991   4.851  0.0378 -0.2811 -0.6158
 5252TIP3    H137171   1.782   2.996   4.832 -0.3793 -1.7215  0.8346
 5252TIP3    H237172   1.892   2.898   4.870  1.6029  0.0702 -0.0613
 5253TIP3   OH237173   2.198   1.752   5.368 -0.1181  0.2241 -0.2128
 5253TIP3    H137174   2.175   1.819   5.304  0.1543  0.0936 -0.4513
 5253TIP3    H237175   2.249   1.798   5.435 -2.0964  0.7838  0.9971
 5254TIP3   OH237176   3.883   1.729   1.624  0.4397 -0.7319 -0.2836
 5254TIP3    H137177   3.960   1.785   1.635 -0.2236  0.1397  0.1299
 5254TIP3    H237178   3.916   1.648   1.586  1.2662  0.3827 -2.0290
 5255TIP3   OH237179   1.243   5.988   1.973 -0.4435  0.1661 -0.3428
 5255TIP3    H137180   1.249   5.932   2.051 -0.7969 -0.2718 -0.6267
 5255TIP3    H237181   1.149   5.997   1.957 -0.3691 -0.3619 -1.1537
 5256TIP3   OH237182   5.067   0.532  14.606  0.6902 -0.3069 -0.0312
 5256TIP3    H137183   5.058   0.627  14.602 -0.3214 -0.0347  3.9338
 5256TIP3    H237184   4.993   0.498  14.556  0.5784  0.9848 -0.7772
 5257TIP3   OH237185   5.647   4.270  14.561  0.4421  0.4435  0.1284
 5257TIP3    H137186   5.710   4.204  14.589  1.7258  1.4897 -0.1363
 5257TIP3    H237187   5.576   4.265  14.624  1.3459 -0.0016  1.1520
 5258TIP3   OH237188   5.106   3.688  10.668  0.2522  0.4672 -0.4642
 5258TIP3    H137189   5.173   3.634  10.709  2.8914  2.6334 -1.6311
 5258TIP3    H237190   5.091   3.648  10.583 -0.1138 -0.1447 -0.1166
 5259TIP3   OH237191   2.481   4.613  14.443  0.0377 -0.4099  0.3597
 5259TIP3    H137192   2.438   4.677  14.387  0.9988  0.3330  0.4477
 5259TIP3    H237193   2.506   4.542  14.384  1.4113  0.5477 -0.2521
 5260TIP3   OH237194   0.634   0.118  12.873  0.3162  0.3894  0.5352
 5260TIP3    H137195   0.660   0.155  12.957  0.1009 -0.5941  1.0377
 5260TIP3    H237196   0.711   0.069  12.843  0.2096  0.2984  0.4080
 5261TIP3   OH237197   2.699   0.200  12.871  0.1242 -0.2020  0.0069
 5261TIP3    H137198   2.608   0.227  12.859  0.0163  1.1662  2.8733
 5261TIP3    H237199   2.696   0.139  12.944  1.3700 -1.4096 -0.9083
 5262TIP3   OH237200   1.085   4.395  13.392 -0.7038  0.0063  0.9245
 5262TIP3    H137201   1.084   4.444  13.310 -2.5233  0.0860  0.9556
 5262TIP3    H237202   1.099   4.462  13.460  3.6826 -0.3317  0.6450
 5263TIP3   OH237203   2.110   6.065  14.055  0.0916 -0.5215 -0.3829
 5263TIP3    H137204   2.172   6.136  14.038  0.1766 -0.2782  0.8393
 5263TIP3    H237205   2.153   6.010  14.120 -0.5302 -0.9517 -0.3241
 5264TIP3   OH237206   0.895   0.884  14.033  0.5039 -0.3048 -0.4831
 5264TIP3    H137207   0.930   0.920  14.115 -0.3696 -1.4990  0.4430
 5264TIP3    H237208   0.814   0.933  14.018  0.3573 -0.4997 -0.3201
 5265TIP3   OH237209   5.019   3.717   3.205 -0.4681  0.0491  0.3757
 5265TIP3    H137210   5.048   3.629   3.232 -0.7154 -0.6341 -1.4461
 5265TIP3    H237211   5.015   3.713   3.110 -0.9477  1.9197  0.2750
 5266TIP3   OH237212   2.988   4.936   0.766 -0.0843 -0.3104  0.3801
 5266TIP3    H137213   2.930   5.005   0.733 -2.3928 -2.3459 -0.0734
 5266TIP3    H237214   3.076   4.975   0.761 -1.2049  2.3586 -0.3823
 5267TIP3   OH237215   3.214   5.970  15.526  0.0390 -0.5405  0.1627
 5267TIP3    H137216   3.247   5.933  15.608  0.3977 -2.1712 -0.6697
 5267TIP3    H237217   3.119   5.978  15.540  0.1304 -0.5569  0.8170
 5268TIP3   OH237218   5.329   4.203  15.181  0.2881 -0.3391  0.3399
 5268TIP3    H137219   5.234   4.212  15.188  0.1824 -0.9873 -0.1643
 5268TIP3    H237220   5.355   4.271  15.119 -0.2215 -1.9205 -1.7276
 5269TIP3   OH237221   5.372   4.424   1.221  0.5102  0.0767 -0.4739
 5269TIP3    H137222   5.372   4.513   1.255 -0.4922  0.4007 -1.2954
 5269TIP3    H237223   5.458   4.415   1.179  1.8474 -0.3780  2.1145
 5270TIP3   OH237224   1.430   5.747   1.534 -0.6176  0.2967  0.1810
 5270TIP3    H137225   1.435   5.793   1.618  2.1733 -0.2754  0.4301
 5270TIP3    H237226   1.405   5.815   1.472 -0.4218  1.2762  1.1385
 5271TIP3   OH237227   4.801   2.029  11.290 -0.3467  0.2812  0.1890
 5271TIP3    H137228   4.755   1.974  11.354  0.3376 -1.1065 -0.4653
 5271TIP3    H237229   4.732   2.056  11.229 -0.7021  0.1604  0.5269
 5272TIP3   OH237230   3.476   5.217  13.811 -0.2934 -0.5285 -0.2944
 5272TIP3    H137231   3.532   5.179  13.744  1.3485 -0.5013  0.9872
 5272TIP3    H237232   3.493   5.311  13.806 -1.7631 -0.2835 -1.1980
 5273TIP3   OH237233   1.303   1.367   2.349 -0.8159 -0.7576  0.7981
 5273TIP3    H137234   1.316   1.324   2.265  0.1085  3.0365 -1.2231
 5273TIP3    H237235   1.261   1.450   2.328  0.3161  0.8089  3.9484
 5274TIP3   OH237236   5.957   3.906  14.457 -0.5830 -0.5086  0.2554
 5274TIP3    H137237   5.976   3.961  14.380 -1.4947 -1.9508 -1.0680
 5274TIP3    H237238   5.955   3.817  14.422  0.0816 -1.3252  2.1963
 5275TIP3   OH237239   4.571   0.049   3.802 -0.1795 -0.0641  0.2710
 5275TIP3    H137240   4.658   0.010   3.802  0.2738  0.8212  2.3867
 5275TIP3    H237241   4.569   0.104   3.724  0.8209 -0.7449 -0.2622
 5276TIP3   OH237242   2.099   0.639   0.607  0.1140 -0.4047  0.0487
 5276TIP3    H137243   2.121   0.637   0.700 -1.3798 -0.0604  0.4330
 5276TIP3    H237244   2.003   0.642   0.605  0.0924 -1.1168 -1.5099
 5277TIP3   OH237245   3.198   4.502   0.772 -0.4341 -0.0580 -0.2854
 5277TIP3    H137246   3.172   4.434   0.711  0.3039 -0.6585  0.0539
 5277TIP3    H237247   3.293   4.493   0.780 -0.3915  0.6569  0.1782
 5278TIP3   OH237248   4.066   1.289   0.128 -0.6759 -0.8019 -0.3625
 5278TIP3    H137249   4.023   1.324   0.207  3.7185  1.9483  1.1474
 5278TIP3    H237250   4.103   1.205   0.157 -1.4023 -1.1616 -0.4328
 5279TIP3   OH237251   5.938   0.732   0.759 -0.1841  0.0044  0.5990
 5279TIP3    H137252   5.853   0.775   0.762 -0.5931 -0.8087  0.9110
 5279TIP3    H237253   5.963   0.722   0.851  0.0296 -0.1699  0.5230
 5280TIP3   OH237254   6.535   5.564   1.112  0.2865 -0.3326  0.0534
 5280TIP3    H137255   6.610   5.507   1.128  1.0398  0.5358 -0.3300
 5280TIP3    H237256   6.460   5.504   1.111  0.9862 -1.2392  0.2255
 5281TIP3   OH237257   5.638   0.608   1.652  0.4774  0.0455 -0.2043
 5281TIP3    H137258   5.652   0.629   1.745 -3.1152 -1.3507  0.8299
 5281TIP3    H237259   5.570   0.669   1.624  1.3659  0.3079 -1.9302
 5282TIP3   OH237260   1.286   6.651  16.765  0.5912 -0.3745 -0.2998
 5282TIP3    H137261   1.264   6.582  16.702 -0.5531  0.3151 -0.6798
 5282TIP3    H237262   1.202   6.684  16.795  0.9925  2.3454 -1.7560
 5283TIP3   OH237263   4.950   5.685   5.146  0.0011  0.0159 -0.2724
 5283TIP3    H137264   4.921   5.632   5.071  1.3447 -0.4040 -0.5449
 5283TIP3    H237265   5.040   5.709   5.123 -0.0039  0.9520  0.6569
 5284TIP3   OH237266   1.057   1.049   3.386 -0.2743 -0.0771  0.2709
 5284TIP3    H137267   1.007   1.013   3.312  1.2203 -2.8205  0.4672
 5284TIP3    H237268   1.014   1.131   3.406 -2.6099 -0.7042 -1.7050
 5285TIP3   OH237269   1.093   3.278  12.956  0.0447  0.4056 -0.1474
 5285TIP3    H137270   1.023   3.293  13.019 -0.0666 -2.1878  0.4580
 5285TIP3    H237271   1.153   3.352  12.969 -0.8973  0.9059  1.6823
 5286TIP3   OH237272   0.675   5.217   0.830 -0.2638  0.1256  1.0117
 5286TIP3    H137273   0.650   5.293   0.882 -0.6896  0.5464  0.2172
 5286TIP3    H237274   0.698   5.150   0.894 -2.3317  0.0935  1.7999
 5287TIP3   OH237275   1.126   5.297  13.223 -0.4107  0.6529  0.1813
 5287TIP3    H137276   1.041   5.284  13.265 -0.8020 -1.1960 -1.0445
 5287TIP3    H237277   1.112   5.270  13.132  1.8486 -1.3067  0.3209
 5288TIP3   OH237278   2.990   6.746   4.599  0.0202  0.2053 -0.0130
 5288TIP3    H137279   2.899   6.718   4.589 -0.2204  0.5649  1.0761
 5288TIP3    H237280   3.040   6.665   4.610 -0.3753  0.0680  0.8564
 5289TIP3   OH237281   3.900   1.794   0.374 -0.4983  0.1389 -0.0406
 5289TIP3    H137282   3.927   1.843   0.451 -0.5443  0.2103 -0.0695
 5289TIP3    H237283   3.977   1.792   0.318 -0.5615  0.3719 -0.1381
 5290TIP3   OH237284   6.637   3.269  16.469 -0.3373 -0.2127 -0.3830
 5290TIP3    H137285   6.732   3.255  16.470 -0.2968 -0.1362 -1.8464
 5290TIP3    H237286   6.600   3.180  16.472 -0.2467 -0.2271  0.7694
 5291TIP3   OH237287   5.720   3.933   3.129  0.1794 -0.5283  0.0548
 5291TIP3    H137288   5.760   3.988   3.061  0.1093  0.5475  0.8415
 5291TIP3    H237289   5.795   3.900   3.179  0.2100 -0.9100 -0.2446
 5292TIP3   OH237290   0.291   0.878   5.324  0.0538  0.0129 -0.5009
 5292TIP3    H137291   0.329   0.797   5.289 -1.4018 -1.1967  0.5814
 5292TIP3    H237292   0.241   0.914   5.250 -0.8286 -1.1074 -0.4822
 5293TIP3   OH237293   2.557   5.457   0.421  0.2507  0.1850  0.0041
 5293TIP3    H137294   2.587   5.408   0.497  0.4200 -0.5401 -0.5138
 5293TIP3    H237295   2.464   5.436   0.413 -0.3707  2.1331  1.3839
 5294TIP3   OH237296   3.605   1.278  11.187 -0.6376  0.0551  0.5903
 5294TIP3    H137297   3.582   1.186  11.190 -1.0258  0.1478  0.4809
 5294TIP3    H237298   3.524   1.323  11.163  0.0436  0.2136 -1.5979
 5295TIP3   OH237299   5.040   2.307   5.342 -0.2608 -0.1655  0.0271
 5295TIP3    H137300   5.048   2.374   5.409 -1.8626  0.3227 -0.2158
 5295TIP3    H237301   4.976   2.245   5.378 -0.6528 -0.2378 -0.7668
 5296TIP3   OH237302   0.431   6.656  10.968  0.4260 -0.1989 -0.5060
 5296TIP3    H137303   0.466   6.575  11.006  0.5818 -0.3803 -1.0181
 5296TIP3    H237304   0.430   6.639  10.873 -0.1017  0.1802 -0.5702
 5297TIP3   OH237305   4.393   4.855  14.664 -0.3644 -0.0753  0.0462
 5297TIP3    H137306   4.300   4.845  14.684 -0.5310 -0.3586 -0.8227
 5297TIP3    H237307   4.435   4.870  14.749 -1.2717  0.6334  0.3811
 5298TIP3   OH237308   5.980   2.550   2.756 -0.3285  0.0067  0.3360
 5298TIP3    H137309   5.985   2.520   2.665  1.6514  0.9487  0.0673
 5298TIP3    H237310   5.906   2.610   2.757  0.5966  1.2567 -1.1196
 5299TIP3   OH237311   5.649   6.253  14.749 -0.0936  0.2661 -0.3591
 5299TIP3    H137312   5.694   6.270  14.832 -0.9345 -0.9811  0.3944
 5299TIP3    H237313   5.588   6.326  14.741  0.3969  0.7053 -0.1789
 5300TIP3   OH237314   5.366   2.962   4.919  0.1381  0.2071 -0.4037
 5300TIP3    H137315   5.394   2.910   4.995 -1.9870  0.8739  0.9401
 5300TIP3    H237316   5.344   2.897   4.852  3.7244 -0.3589 -1.2213
 5301TIP3   OH237317   0.350   0.681   4.359  0.1441  0.3441 -0.1353
 5301TIP3    H137318   0.257   0.660   4.352  0.2273  0.3572 -1.6039
 5301TIP3    H237319   0.353   0.776   4.362  0.1092  0.3385  0.1506
 5302TIP3   OH237320   1.588   3.005  13.399  0.0426  0.1835 -0.3086
 5302TIP3    H137321   1.591   2.914  13.367  1.8512 -0.6681  1.9676
 5302TIP3    H237322   1.531   3.001  13.476  0.1421  0.9751 -0.1895
 5303TIP3   OH237323   2.772   3.592   0.117 -0.2064  0.5484 -0.0352
 5303TIP3    H137324   2.679   3.591   0.094 -0.6311 -0.4388  1.5751
 5303TIP3    H237325   2.814   3.538   0.051 -1.1070 -0.7287  0.3980
 5304TIP3   OH237326   3.927   5.271   3.519 -0.2853  0.2952  0.4366
 5304TIP3    H137327   3.978   5.282   3.439  1.0233 -0.1584  1.1839
 5304TIP3    H237328   3.856   5.335   3.510  0.5341  1.1154 -0.5325
 5305TIP3   OH237329   0.200   6.075  14.479 -0.4803  0.0237  0.3246
 5305TIP3    H137330   0.202   6.078  14.575  1.4807 -0.3410  0.3466
 5305TIP3    H237331   0.127   6.018  14.458 -0.6243 -0.2968  1.6335
 5306TIP3   OH237332   1.177   4.155   4.114 -0.3049  0.3987 -0.4418
 5306TIP3    H137333   1.095   4.189   4.150 -1.6704 -1.0103 -1.9749
 5306TIP3    H237334   1.195   4.211   4.038 -0.1565  0.3754 -0.4232
 5307TIP3   OH237335   0.010   3.589   1.125  0.0922 -0.0732 -0.4610
 5307TIP3    H137336  -0.048   3.519   1.094  1.0802 -0.9520 -0.3840
 5307TIP3    H237337   0.028   3.568   1.216 -0.8153  1.1445  0.0241
 5308TIP3   OH237338   5.686   4.115  15.566  0.5462 -0.0721  0.7366
 5308TIP3    H137339   5.712   4.141  15.655  0.4925 -0.5632  0.9042
 5308TIP3    H237340   5.590   4.122  15.567  0.5803  0.4128  0.5563
 5309TIP3   OH237341   0.445   4.076   6.239  0.0281  0.3178 -0.1590
 5309TIP3    H137342   0.533   4.099   6.269 -0.4366  0.6642  0.9941
 5309TIP3    H237343   0.387   4.108   6.308 -1.0791  0.8675 -1.3041
 5310TIP3   OH237344   0.962   6.023   1.634  0.1634  0.3081  0.0422
 5310TIP3    H137345   0.909   5.988   1.705 -0.0057 -0.5443 -0.4837
 5310TIP3    H237346   0.943   5.965   1.560 -0.7525  1.9694 -1.1039
 5311TIP3   OH237347   5.052   2.090  11.220 -0.3271  0.1629 -0.4649
 5311TIP3    H137348   5.095   2.145  11.285 -1.7386  0.5473  0.1777
 5311TIP3    H237349   4.976   2.054  11.265 -0.8705 -0.2343 -1.6519
 5312TIP3   OH237350   6.280   2.430   0.804 -0.1067 -0.1332 -0.1180
 5312TIP3    H137351   6.244   2.369   0.868  0.5521  1.3668  1.7765
 5312TIP3    H237352   6.374   2.414   0.806  0.2944  1.9224  1.6318
 5313TIP3   OH237353   2.368   1.846  10.899  0.2837 -0.1762  0.1622
 5313TIP3    H137354   2.306   1.806  10.838 -0.1780 -1.4491  1.4285
 5313TIP3    H237355   2.408   1.773  10.945 -1.4113  0.7424  3.3550
 5314TIP3   OH237356   2.873   3.238  15.940 -0.3018 -0.0700  0.0555
 5314TIP3    H137357   2.845   3.209  15.853 -0.0126 -1.5367  0.4125
 5314TIP3    H237358   2.824   3.182  16.000  0.8084 -0.2999  0.7746
 5315TIP3   OH237359   6.161   0.027  15.510 -0.1975  0.0517  0.0663
 5315TIP3    H137360   6.196   0.077  15.436  0.9952  0.1250  0.6520
 5315TIP3    H237361   6.078  -0.008  15.479  0.5681 -0.4423 -1.5352
 5316TIP3   OH237362   5.985   1.414   3.312 -0.1300  0.2639 -0.4054
 5316TIP3    H137363   5.979   1.360   3.391  2.6871 -0.4199 -0.5731
 5316TIP3    H237364   5.947   1.359   3.243  0.7373 -0.6597 -0.1734
 5317TIP3   OH237365   0.839   5.950  15.031  0.0817  0.3432 -0.3171
 5317TIP3    H137366   0.899   6.025  15.028 -0.3036  0.6424 -0.7607
 5317TIP3    H237367   0.807   5.942  14.941 -0.5000  0.1508 -0.0947
 5318TIP3   OH237368   0.200   0.824  15.826 -0.7121 -1.0630  0.0126
 5318TIP3    H137369   0.244   0.755  15.876 -0.7533 -1.3128 -0.2956
 5318TIP3    H237370   0.212   0.902  15.879 -0.5997 -1.2913  0.3290
 5319TIP3   OH237371   2.299   4.436   5.097 -0.0341  0.4351  0.0109
 5319TIP3    H137372   2.324   4.478   5.180 -0.6691  0.6807  0.0811
 5319TIP3    H237373   2.267   4.349   5.123  0.0179  0.4110 -0.0044
 5320TIP3   OH237374   2.750   1.359  16.174 -0.2420 -0.0652  0.3562
 5320TIP3    H137375   2.832   1.367  16.125  0.9770 -0.2662  2.2628
 5320TIP3    H237376   2.737   1.264  16.184  1.6468 -0.1164  3.6351
 5321TIP3   OH237377   4.502   5.300  14.491  0.3042  0.2985 -0.8461
 5321TIP3    H137378   4.453   5.224  14.459 -0.1426  1.2002 -2.3954
 5321TIP3    H237379   4.458   5.375  14.451  0.6869  1.3907  0.7279
 5322TIP3   OH237380   6.023   3.985  15.866 -0.1380 -0.3935 -0.5023
 5322TIP3    H137381   5.931   3.958  15.872 -0.4156  0.8163  1.8206
 5322TIP3    H237382   6.029   4.063  15.921  2.5876 -1.2401  0.5638
 5323TIP3   OH237383   5.990   5.748  14.478 -0.1755 -0.1539 -0.0828
 5323TIP3    H137384   6.017   5.707  14.396  0.4065 -1.8321  0.9029
 5323TIP3    H237385   6.028   5.836  14.475 -1.3650  0.3568 -2.2069
 5324TIP3   OH237386   5.967   5.399   1.046  0.0647  0.1517 -0.2343
 5324TIP3    H137387   6.005   5.337   1.109  0.7782  0.5362 -0.2785
 5324TIP3    H237388   5.984   5.360   0.961 -1.5846 -0.7530 -0.1839
 5325TIP3   OH237389   1.482   3.772   3.360  0.3457 -0.0627 -0.4337
 5325TIP3    H137390   1.563   3.751   3.406 -0.1384 -0.2007  0.3803
 5325TIP3    H237391   1.423   3.698   3.381  0.1495 -0.1852 -1.3659
 5326TIP3   OH237392   2.711   5.247  16.845  0.1831  0.1856  1.0969
 5326TIP3    H137393   2.648   5.284  16.783  0.8084  2.3741  1.6955
 5326TIP3    H237394   2.781   5.213  16.789 -1.0494 -1.4674  0.4745
 5327TIP3   OH237395   3.035   1.803   2.157  0.3672  0.5605  0.6147
 5327TIP3    H137396   3.128   1.820   2.173  1.0043 -0.8403 -1.2272
 5327TIP3    H237397   3.029   1.707   2.156 -1.0724  0.6396  0.5243
 5328TIP3   OH237398   3.184   3.550   1.033 -0.4523  0.1734  0.2708
 5328TIP3    H137399   3.184   3.532   0.939 -1.7550 -1.0793  0.4829
 5328TIP3    H237400   3.101   3.596   1.048 -1.3975 -1.7424  1.1455
 5329TIP3   OH237401   4.956   4.525   1.348  0.3528 -0.1031 -0.0512
 5329TIP3    H137402   4.996   4.461   1.407  2.3914  1.9961  0.9858
 5329TIP3    H237403   4.936   4.600   1.404 -4.0051 -0.4604 -0.7886
 5330TIP3   OH237404   0.260   3.659  13.172  0.4206  0.5054  0.2151
 5330TIP3    H137405   0.189   3.684  13.113  0.1225 -1.9967 -0.6029
 5330TIP3    H237406   0.335   3.646  13.114 -0.0509 -2.6577  0.1427
 5331TIP3   OH237407   1.977   1.754  15.266  0.0534  0.5200 -0.5612
 5331TIP3    H137408   2.065   1.777  15.295  0.5995  0.5190 -2.1720
 5331TIP3    H237409   1.981   1.660  15.247 -0.3620  0.4706 -0.4325
 5332TIP3   OH237410   0.891   1.572  13.989 -0.2840 -0.5216  0.7716
 5332TIP3    H137411   0.829   1.519  14.039  0.6103 -1.9806  0.4094
 5332TIP3    H237412   0.950   1.609  14.055  0.5200 -1.9397  0.8889
 5333TIP3   OH237413   3.054   1.723   4.391  0.4105 -0.0471  0.3596
 5333TIP3    H137414   3.121   1.734   4.322 -0.9021 -1.8896 -1.3533
 5333TIP3    H237415   3.095   1.663   4.454  0.4278 -1.2314 -0.7202
 5334TIP3   OH237416   6.591   4.067   2.118  0.1000  0.2115 -0.3823
 5334TIP3    H137417   6.599   4.093   2.027  0.1912  0.0971 -0.4075
 5334TIP3    H237418   6.674   4.023   2.138 -0.4301 -0.9448 -0.6342
 5335TIP3   OH237419   4.859   1.783   3.486  0.2918 -0.7804 -0.4344
 5335TIP3    H137420   4.887   1.694   3.506  0.9891  0.0548  2.9845
 5335TIP3    H237421   4.921   1.839   3.533 -1.0752  1.4766 -1.1320
 5336TIP3   OH237422   3.352   0.625  12.351  0.3558 -0.1645 -0.5141
 5336TIP3    H137423   3.294   0.665  12.286  2.9234  2.9249 -1.1235
 5336TIP3    H237424   3.430   0.601  12.301  1.2623 -0.3738  0.9491
 5337TIP3   OH237425   5.919   2.690   5.691 -0.1974 -0.3536  0.2120
 5337TIP3    H137426   5.911   2.705   5.597  3.6453 -1.0614 -0.4013
 5337TIP3    H237427   5.965   2.767   5.724 -2.8960  0.6653  1.9530
 5338TIP3   OH237428   5.807   1.695   4.991  0.2520  0.1434  0.2354
 5338TIP3    H137429   5.843   1.700   5.079 -1.0930 -0.2694  0.8469
 5338TIP3    H237430   5.713   1.708   5.003  0.0237 -0.0573 -1.1260
 5339TIP3   OH237431   4.687   0.356   6.435  0.1120  0.0951 -0.6095
 5339TIP3    H137432   4.649   0.350   6.522 -3.3760  1.0050 -1.8867
 5339TIP3    H237433   4.659   0.276   6.391  0.7635  0.2121 -1.2510
 5340TIP3   OH237434   6.432   2.391   3.863  0.6851  0.1726  0.3985
 5340TIP3    H137435   6.402   2.301   3.852  0.3713  0.2804  0.3788
 5340TIP3    H237436   6.527   2.386   3.851  0.4559  0.1816 -1.7176
 5341TIP3   OH237437   2.351   3.716  15.740  0.6085  0.4615 -0.2304
 5341TIP3    H137438   2.413   3.761  15.683 -0.4417  0.8702 -1.0977
 5341TIP3    H237439   2.279   3.691  15.681 -0.6228  1.1003  0.9558
 5342TIP3   OH237440   3.873   2.568  16.987 -0.4128  0.2392 -0.0478
 5342TIP3    H137441   3.958   2.538  17.020  0.0545  2.5894  1.1736
 5342TIP3    H237442   3.889   2.659  16.961 -2.1708  0.1866 -1.4819
 5343TIP3   OH237443   3.750   6.060  15.427 -0.0938 -0.4736 -0.1903
 5343TIP3    H137444   3.762   6.142  15.380  1.8182 -0.6407 -0.0753
 5343TIP3    H237445   3.691   6.009  15.372 -0.0230  0.3718 -1.0658
 5344TIP3   OH237446   1.587   3.225   2.708 -0.0995 -0.1754  0.0811
 5344TIP3    H137447   1.634   3.197   2.629 -1.4352 -0.6101 -0.5809
 5344TIP3    H237448   1.595   3.320   2.707  1.1493 -0.2505  0.2450
 5345TIP3   OH237449   2.867   6.751  11.218  0.0044 -0.1157 -0.0650
 5345TIP3    H137450   2.865   6.655  11.216  0.2431 -0.1973  1.6826
 5345TIP3    H237451   2.820   6.778  11.139  0.8097 -1.6568 -1.1094
 5346TIP3   OH237452   5.184   1.308   3.267 -0.3958 -0.0233 -0.4210
 5346TIP3    H137453   5.269   1.327   3.227 -1.1693  0.4888 -1.8535
 5346TIP3    H237454   5.171   1.380   3.329 -0.6548  0.9862 -1.6142
 5347TIP3   OH237455   2.093   5.945   2.762  0.1539  0.0923  0.0114
 5347TIP3    H137456   2.172   5.905   2.726  0.1096  0.3678 -0.4074
 5347TIP3    H237457   2.122   6.032   2.791  0.7041 -0.8940  2.7232
 5348TIP3   OH237458   1.738   0.555  13.052 -0.1123 -0.1603  0.1697
 5348TIP3    H137459   1.726   0.614  13.127 -0.9307  0.5389 -0.4908
 5348TIP3    H237460   1.824   0.579  13.016 -0.0511  0.0213  0.4344
 5349TIP3   OH237461   1.981   4.568   4.545 -0.0192  0.0931 -0.2995
 5349TIP3    H137462   1.962   4.475   4.533  1.4384 -0.3507  0.5670
 5349TIP3    H237463   2.076   4.573   4.539 -0.0392  1.4345  0.3190
 5350TIP3   OH237464   0.223   4.789   0.072 -0.1715 -0.0941 -0.5407
 5350TIP3    H137465   0.132   4.774   0.100 -0.1990 -1.1767 -1.1568
 5350TIP3    H237466   0.239   4.721   0.007  1.4327 -0.6199  0.3482
 5351TIP3   OH237467   5.161   5.412  13.547  0.2126  0.1397  0.0164
 5351TIP3    H137468   5.108   5.426  13.468  1.6798  1.6215 -0.7711
 5351TIP3    H237469   5.098   5.383  13.613 -1.4091  0.8237 -1.1458
 5352TIP3   OH237470   5.790   2.208   2.826 -0.1788  0.0471  0.0614
 5352TIP3    H137471   5.851   2.216   2.900  1.1712  0.6909 -1.0788
 5352TIP3    H237472   5.842   2.232   2.750 -1.2183 -1.6697 -1.2632
 5353TIP3   OH237473   3.468   5.980   2.249 -0.1135 -0.3854 -0.3691
 5353TIP3    H137474   3.511   5.895   2.252 -0.9614 -0.8002  0.3463
 5353TIP3    H237475   3.379   5.964   2.280  0.0153  0.9384  0.7980
 5354TIP3   OH237476   3.214   1.788   0.647 -0.0639 -0.4680 -0.0149
 5354TIP3    H137477   3.170   1.865   0.684  1.7219  0.0052  1.2873
 5354TIP3    H237478   3.196   1.719   0.711 -1.6337 -1.1832 -1.1653
 5355TIP3   OH237479   3.185   5.787  11.594 -0.3606 -0.1775 -0.5849
 5355TIP3    H137480   3.208   5.764  11.504  0.7762 -3.7966  0.4196
 5355TIP3    H237481   3.156   5.704  11.633 -0.6549  1.1991  2.4199
 5356TIP3   OH237482   4.551   2.857  14.289 -0.6802  0.2555  0.1629
 5356TIP3    H137483   4.600   2.830  14.367  0.0125 -0.6700 -0.5653
 5356TIP3    H237484   4.492   2.925  14.320  0.7629  1.1116  1.1803
 5357TIP3   OH237485   6.094   5.098  12.217 -0.1343 -0.2480 -0.3007
 5357TIP3    H137486   6.007   5.073  12.247 -0.3944  1.7274  0.7665
 5357TIP3    H237487   6.078   5.159  12.145  0.2835  1.5418  1.0792
 5358TIP3   OH237488   3.418   4.026  12.293 -0.7340 -0.2951  0.0423
 5358TIP3    H137489   3.452   4.052  12.378  1.3544 -3.2044  0.2336
 5358TIP3    H237490   3.477   4.066  12.230 -0.5103 -0.5061  0.1149
 5359TIP3   OH237491   0.389   0.052  12.325  0.2265 -0.2803 -0.2232
 5359TIP3    H137492   0.388  -0.006  12.249 -3.1044  0.0745 -0.5968
 5359TIP3    H237493   0.395   0.140  12.289 -1.6000 -0.0947 -0.2126
 5360TIP3   OH237494   5.021   3.751  15.987 -0.1379 -0.2545 -0.2157
 5360TIP3    H137495   5.040   3.770  15.895 -0.8243  1.2470 -0.0781
 5360TIP3    H237496   5.106   3.761  16.032  0.3357 -1.6359 -0.7456
 5361TIP3   OH237497   0.586   5.654  14.275  0.2025  0.2390 -0.0064
 5361TIP3    H137498   0.501   5.697  14.285 -0.5269 -1.4242  1.5346
 5361TIP3    H237499   0.601   5.652  14.181 -1.6472  0.2505 -0.3450
 5362TIP3   OH237500   6.137   2.781  16.318  0.3225 -0.0682 -0.1926
 5362TIP3    H137501   6.065   2.817  16.370  1.4007  0.5691  0.9306
 5362TIP3    H237502   6.125   2.819  16.231 -0.8636 -0.2267 -0.1192
 5363TIP3   OH237503   0.402   1.013   3.226  0.2857 -0.5481  0.3205
 5363TIP3    H137504   0.446   1.003   3.310 -0.6194 -1.1248  0.7338
 5363TIP3    H237505   0.468   0.987   3.161  1.4840  1.2798  0.7110
 5364TIP3   OH237506   0.230   6.254   3.449  0.2074  0.1367  0.0119
 5364TIP3    H137507   0.259   6.179   3.501  2.2963  0.5922 -0.4165
 5364TIP3    H237508   0.247   6.228   3.358 -0.3349  0.6144 -0.2344
 5365TIP3   OH237509   5.239   3.887   3.961  0.2900  0.2271 -0.0825
 5365TIP3    H137510   5.145   3.902   3.951  0.4366  0.7149 -0.8030
 5365TIP3    H237511   5.252   3.877   4.055 -0.7724 -1.8617 -0.1022
 5366TIP3   OH237512   2.053   3.141   3.090 -0.4523 -0.5409 -0.3358
 5366TIP3    H137513   2.125   3.078   3.088 -1.5731 -1.8375 -1.4133
 5366TIP3    H237514   1.982   3.096   3.136 -0.3003  1.1037  1.6601
 5367TIP3   OH237515   3.398   5.708  16.993  0.2839  0.0896 -0.7371
 5367TIP3    H137516   3.321   5.759  16.966 -2.1597 -2.2559  1.2059
 5367TIP3    H237517   3.400   5.718  17.088  2.3911 -0.0000 -0.7378
 5368TIP3   OH237518   6.076   2.546  11.370 -0.3467  0.2028 -0.2697
 5368TIP3    H137519   6.124   2.468  11.395 -0.5385  0.1779  0.0304
 5368TIP3    H237520   6.134   2.592  11.309 -0.3061 -0.2527 -0.5788
 5369TIP3   OH237521   3.866   6.130  14.779 -0.4829  0.3289  0.1640
 5369TIP3    H137522   3.872   6.182  14.698  0.0335  0.4904  0.2970
 5369TIP3    H237523   3.942   6.071  14.774  0.9300  1.9163  1.6072
 5370TIP3   OH237524   3.552   2.908  17.123 -0.2349 -0.4658 -0.3710
 5370TIP3    H137525   3.510   2.842  17.068 -0.7445 -0.4261 -0.0463
 5370TIP3    H237526   3.598   2.858  17.190  2.5742 -0.6302 -2.2590
 5371TIP3   OH237527   5.270   3.804  11.610 -0.2622  0.1157  0.3477
 5371TIP3    H137528   5.213   3.758  11.673  0.0804 -0.7698  0.0332
 5371TIP3    H237529   5.248   3.765  11.525 -0.2153  0.8002  0.0199
 5372TIP3   OH237530   2.266   1.226   2.603  0.1448 -0.6311  0.0134
 5372TIP3    H137531   2.330   1.155   2.601 -1.6735 -2.4441  1.3788
 5372TIP3    H237532   2.290   1.279   2.679  0.5288 -0.8089  0.0159
 5373TIP3   OH237533   6.021   6.016   6.178  0.0872  0.4867  0.4480
 5373TIP3    H137534   6.097   5.971   6.215 -0.4652  1.7818  3.4760
 5373TIP3    H237535   6.045   6.033   6.087  1.2897 -3.5751 -0.1789
 5374TIP3   OH237536   3.658   6.549  13.552  0.2247  0.0834  0.2212
 5374TIP3    H137537   3.668   6.465  13.507  0.6322  0.2588 -0.0103
 5374TIP3    H237538   3.565   6.571  13.540  0.7019  1.0404 -2.1245
 5375TIP3   OH237539   0.152   3.664   3.653 -0.1667  0.1670  0.3404
 5375TIP3    H137540   0.065   3.673   3.694  0.1843 -0.3198  1.2192
 5375TIP3    H237541   0.202   3.612   3.716  0.5407 -0.1883 -0.5072
 5376TIP3   OH237542   1.852   2.415   5.445 -0.6971 -0.2008  0.0149
 5376TIP3    H137543   1.856   2.342   5.506 -3.9507 -1.6113 -1.2161
 5376TIP3    H237544   1.805   2.483   5.492 -0.0761  0.0896  0.2308
 5377TIP3   OH237545   0.402   0.218   5.460 -0.3572  0.0553 -0.5268
 5377TIP3    H137546   0.312   0.187   5.460  0.5115 -2.8490 -2.0965
 5377TIP3    H237547   0.404   0.289   5.396 -1.3773 -0.3436 -1.0078
 5378TIP3   OH237548   3.967   3.135  15.791  0.1549 -0.4565 -0.0776
 5378TIP3    H137549   3.880   3.159  15.759 -0.7364 -1.5287  1.4307
 5378TIP3    H237550   3.985   3.050  15.750 -0.6258 -1.4292  1.5205
 5379TIP3   OH237551   1.943   0.398  17.028  0.2668 -0.4633  0.0620
 5379TIP3    H137552   2.025   0.422  17.072  1.1232 -0.4283 -1.4505
 5379TIP3    H237553   1.924   0.309  17.058  1.1132 -0.6412  0.0964
 5380TIP3   OH237554   5.532   0.989  15.469  0.1162  0.2581 -0.3880
 5380TIP3    H137555   5.562   0.913  15.419  5.0033  1.8765 -0.3877
 5380TIP3    H237556   5.506   1.052  15.403 -4.6252 -1.3167 -0.3878
 5381TIP3   OH237557   5.872   4.621   3.192 -0.1562 -0.5344 -0.2986
 5381TIP3    H137558   5.948   4.563   3.185 -0.4114 -0.8853 -0.2065
 5381TIP3    H237559   5.879   4.659   3.279  0.6321  0.4534 -0.7836
 5382TIP3   OH237560   0.334   2.088  15.530  0.1603  0.0547 -0.0640
 5382TIP3    H137561   0.346   2.181  15.547 -0.3522  0.1553 -0.2510
 5382TIP3    H237562   0.242   2.071  15.550 -0.2851  0.0174 -1.9587
 5383TIP3   OH237563   4.434   4.014  14.397  0.4024 -1.2631  0.0598
 5383TIP3    H137564   4.387   3.984  14.475 -3.7275 -0.1190 -1.7199
 5383TIP3    H237565   4.433   4.109  14.403 -0.6469 -1.1236 -1.6297
 5384TIP3   OH237566   5.134   1.010   3.864 -0.1414 -0.0121 -0.2144
 5384TIP3    H137567   5.047   1.028   3.899 -0.9598 -0.6650 -1.7911
 5384TIP3    H237568   5.173   1.096   3.850 -1.0467  0.3363 -0.6741
 5385TIP3   OH237569   4.241   5.152   6.776  0.7494  0.3507 -0.8274
 5385TIP3    H137570   4.172   5.089   6.756  1.4373 -0.8603  0.3700
 5385TIP3    H237571   4.240   5.214   6.703 -0.2561 -0.7967 -1.8322
 5386TIP3   OH237572   0.477   6.481  10.748 -0.3967 -0.6111  0.1649
 5386TIP3    H137573   0.515   6.537  10.680  0.5528 -0.9878  0.3650
 5386TIP3    H237574   0.384   6.504  10.749 -0.7381 -1.6259 -2.2478
 5387TIP3   OH237575   1.664   4.357   2.554  0.2506  0.0743 -0.2611
 5387TIP3    H137576   1.614   4.292   2.507 -0.2562  0.7338 -0.6468
 5387TIP3    H237577   1.739   4.376   2.497 -0.6070  1.2149 -1.0490
 5388TIP3   OH237578   4.711   3.019   0.724 -0.1454 -0.3483 -0.8101
 5388TIP3    H137579   4.805   3.008   0.714 -0.1342 -1.0614 -0.0287
 5388TIP3    H237580   4.687   2.957   0.793 -1.0128  0.6021 -0.2350
 5389TIP3   OH237581   6.526   5.467  16.787  0.0677 -0.2041 -0.2603
 5389TIP3    H137582   6.497   5.401  16.724  1.3152  0.8862 -2.0904
 5389TIP3    H237583   6.492   5.437  16.871 -2.1789 -1.4332 -1.5156
 5390TIP3   OH237584   4.699   4.479  14.742  0.1039  0.3365 -0.0248
 5390TIP3    H137585   4.709   4.521  14.828  1.2280 -1.4484  0.7601
 5390TIP3    H237586   4.771   4.514  14.690  0.7990 -0.3037  0.4965
 5391TIP3   OH237587   5.716   5.296   1.449 -0.1933 -0.0620  0.5523
 5391TIP3    H137588   5.721   5.348   1.368 -0.3841 -0.9422 -0.0395
 5391TIP3    H237589   5.631   5.252   1.444 -0.7102  0.7370  1.7842
 5392TIP3   OH237590   2.509   5.349  16.686 -0.0243 -0.0545 -0.2308
 5392TIP3    H137591   2.515   5.408  16.611  1.2371  2.2795  1.5663
 5392TIP3    H237592   2.453   5.394  16.748  1.2612 -0.5190  1.3641
 5393TIP3   OH237593   1.651   4.889  10.320  0.5065  0.5528  0.2375
 5393TIP3    H137594   1.611   4.976  10.326 -2.2414 -0.4970 -1.0925
 5393TIP3    H237595   1.697   4.890  10.236 -1.6652  0.0247 -1.0463
 5394TIP3   OH237596   0.872   2.249   0.474 -0.0407 -0.5944  0.1644
 5394TIP3    H137597   0.925   2.311   0.425 -0.8718 -0.3182 -0.3998
 5394TIP3    H237598   0.934   2.183   0.505  0.8150  0.3695  0.5569
 5395TIP3   OH237599   1.555   0.288  14.492 -0.4257  0.3327  0.7858
 5395TIP3    H137600   1.504   0.343  14.433 -0.3859 -0.3869  0.0698
 5395TIP3    H237601   1.526   0.198  14.473 -0.1534  0.0564  1.6042
 5396TIP3   OH237602   5.878   0.729   3.119 -0.2238 -0.3351 -0.3431
 5396TIP3    H137603   5.911   0.774   3.196 -0.8514  0.4897 -0.5438
 5396TIP3    H237604   5.836   0.798   3.067  1.7162 -0.5222 -2.2856
 5397TIP3   OH237605   2.411   6.594  13.400 -0.2379 -0.0347  0.3007
 5397TIP3    H137606   2.333   6.602  13.455  0.7078  1.5006  1.5401
 5397TIP3    H237607   2.424   6.500  13.390 -0.8998 -0.3587  2.0867
 5398TIP3   OH237608   1.210   5.216   5.384  0.0878 -0.0045 -0.2047
 5398TIP3    H137609   1.217   5.309   5.364  1.1118  0.1507  0.8027
 5398TIP3    H237610   1.258   5.204   5.466  2.2216 -1.8698 -1.6136
 5399TIP3   OH237611   4.498   5.052  15.371 -0.5130  0.6502  1.0136
 5399TIP3    H137612   4.506   5.138  15.330  1.0529  0.0136 -0.1102
 5399TIP3    H237613   4.586   5.031  15.400 -0.5828 -1.1480  0.0510
 5400TIP3   OH237614   2.283   6.524  10.984 -0.4818 -0.1074 -0.2241
 5400TIP3    H137615   2.241   6.517  11.070 -1.2488  0.2631 -0.5564
 5400TIP3    H237616   2.288   6.618  10.967 -1.1649 -0.1857 -0.9645
 5401TIP3   OH237617   1.755   1.851  15.963 -0.1566  0.9328  0.1481
 5401TIP3    H137618   1.705   1.929  15.988 -0.9503  0.6488 -0.4993
 5401TIP3    H237619   1.689   1.790  15.931  0.6190  0.5745 -0.8177
 5402TIP3   OH237620   3.294   0.359  13.331 -0.2580 -0.4690 -0.4161
 5402TIP3    H137621   3.365   0.321  13.382  0.3880 -0.0316 -0.9745
 5402TIP3    H237622   3.218   0.306  13.353  0.2619 -1.0138  0.1033
 5403TIP3   OH237623   5.482   6.173  11.183 -0.1749 -0.1022  0.1015
 5403TIP3    H137624   5.434   6.102  11.139  1.4285 -2.7689  2.2654
 5403TIP3    H237625   5.549   6.199  11.120 -1.5024  0.3378 -1.1720
 5404TIP3   OH237626   5.259   6.632   4.958 -0.2387 -0.4676 -0.1154
 5404TIP3    H137627   5.299   6.562   5.010  0.2505  0.1879  0.3921
 5404TIP3    H237628   5.183   6.659   5.009  0.0556 -0.0487  0.1044
 5405TIP3   OH237629   0.753   3.099   5.262 -0.0716  0.2365 -0.0547
 5405TIP3    H137630   0.756   3.195   5.254 -1.3687  0.8356  4.0106
 5405TIP3    H237631   0.837   3.076   5.301  0.4198 -0.4258 -1.4355
 5406TIP3   OH237632   2.354   0.587   4.570 -0.2913  0.5298  0.1451
 5406TIP3    H137633   2.439   0.548   4.553  0.2341  1.7351 -0.1438
 5406TIP3    H237634   2.326   0.550   4.654  0.1507 -0.4625 -0.1373
 5407TIP3   OH237635   2.466   3.519  11.340 -0.2719  0.3218 -0.5250
 5407TIP3    H137636   2.542   3.487  11.291 -0.8855  0.1748 -1.4048
 5407TIP3    H237637   2.403   3.543  11.272 -0.5694  1.5663  0.1703
 5408TIP3   OH237638   2.421   1.218   1.200 -0.1440  0.3244 -0.1636
 5408TIP3    H137639   2.384   1.132   1.177  0.6900  0.0645 -0.5410
 5408TIP3    H237640   2.481   1.199   1.272 -1.5368  0.9068  1.2294
 5409TIP3   OH237641   2.609   0.098   1.601  0.5740  0.2018  0.3647
 5409TIP3    H137642   2.677   0.066   1.541 -0.3944 -0.2884 -0.4951
 5409TIP3    H237643   2.611   0.193   1.591  2.6181  0.4149  2.0028
 5410TIP3   OH237644   6.201   2.938   1.170 -0.1566  0.7494 -0.4053
 5410TIP3    H137645   6.221   2.967   1.260  1.8905 -2.1123  0.1869
 5410TIP3    H237646   6.107   2.919   1.171  0.0018 -0.1177  1.4388
 5411TIP3   OH237647   4.572   5.587   0.344 -0.4383  0.2225 -0.2887
 5411TIP3    H137648   4.513   5.663   0.341 -1.2677 -0.3652 -3.4821
 5411TIP3    H237649   4.650   5.616   0.297 -0.7665 -0.8269 -1.5518
 5412TIP3   OH237650   3.186   5.269  13.830  0.2208  0.6925 -0.1211
 5412TIP3    H137651   3.263   5.305  13.786 -1.2618  3.4922 -0.6702
 5412TIP3    H237652   3.133   5.233  13.760  0.0291  0.8080 -0.0373
 5413TIP3   OH237653   3.870   3.126   1.513 -0.3546 -0.2780 -0.5184
 5413TIP3    H137654   3.858   3.221   1.507 -0.6806 -0.1520  1.5985
 5413TIP3    H237655   3.815   3.091   1.442 -0.2089  1.0959 -1.3472
 5414TIP3   OH237656   5.700   6.360   3.214  0.2699 -0.0265  1.2140
 5414TIP3    H137657   5.762   6.422   3.175  0.5362 -0.8219  0.3231
 5414TIP3    H237658   5.751   6.281   3.229 -0.4746 -0.6322  0.6420
 5415TIP3   OH237659   2.999   5.228   1.604 -0.4699  0.2499  0.4088
 5415TIP3    H137660   3.038   5.217   1.517  1.5290 -1.3065  1.4133
 5415TIP3    H237661   2.975   5.140   1.631 -3.1692  0.9632  0.5859
 5416TIP3   OH237662   4.753   1.162  13.196  0.0599  0.0536 -0.1408
 5416TIP3    H137663   4.708   1.150  13.112 -0.1227  3.7180 -0.7240
 5416TIP3    H237664   4.682   1.175  13.259  0.2371 -1.5770  0.4613
 5417TIP3   OH237665   1.826   2.979   2.624 -0.1543 -0.1667 -0.6741
 5417TIP3    H137666   1.749   2.962   2.679  0.9194 -0.6738  0.7252
 5417TIP3    H237667   1.892   2.917   2.655  0.4247 -0.6592 -2.7445
 5418TIP3   OH237668   5.336   3.709  15.136  0.5606  0.5036  0.3897
 5418TIP3    H137669   5.392   3.781  15.164  1.8378  0.5459 -2.0220
 5418TIP3    H237670   5.353   3.699  15.042 -3.6733  0.6578 -0.6240
 5419TIP3   OH237671   5.408   0.283   4.072  0.6369  0.0848 -0.0526
 5419TIP3    H137672   5.449   0.353   4.122 -1.8350  0.9149  0.9156
 5419TIP3    H237673   5.314   0.299   4.078  0.0197 -2.6273 -0.8359
 5420TIP3   OH237674   3.776   1.711   4.391 -0.0296  0.3719  0.2487
 5420TIP3    H137675   3.698   1.711   4.336 -0.0969 -0.2262  0.3357
 5420TIP3    H237676   3.827   1.786   4.360 -0.0748  0.0604 -0.6048
 5421TIP3   OH237677   3.632   1.712  14.516  0.3818 -0.2021 -0.6154
 5421TIP3    H137678   3.581   1.781  14.474 -1.0315 -0.5645  0.3981
 5421TIP3    H237679   3.688   1.757  14.579 -2.0114 -0.0186  1.5352
 5422TIP3   OH237680   5.124   6.293  13.782  0.1839  0.7719  0.0967
 5422TIP3    H137681   5.182   6.274  13.709 -0.7961 -2.2247 -0.0174
 5422TIP3    H237682   5.041   6.253  13.759 -1.2192  2.7101  1.4044
 5423TIP3   OH237683   2.181   0.218   2.917 -0.3542  0.1201  0.0491
 5423TIP3    H137684   2.095   0.193   2.951  0.4494 -1.2296  1.1718
 5423TIP3    H237685   2.225   0.260   2.990  0.4267 -0.4155 -0.1007
 5424TIP3   OH237686   1.244   5.581  15.314 -0.1107  0.7694  0.5182
 5424TIP3    H137687   1.330   5.609  15.344  1.5582 -1.5612 -1.7652
 5424TIP3    H237688   1.208   5.531  15.388  0.0241  2.4790  1.8138
 5425TIP3   OH237689   3.640   0.354   6.593  0.2808 -0.1305  0.5151
 5425TIP3    H137690   3.580   0.280   6.584 -0.0741  0.0071  1.6068
 5425TIP3    H237691   3.727   0.316   6.578  0.1737 -0.9460  1.7735
 5426TIP3   OH237692   2.230   4.197   4.176  0.0018 -0.1585 -0.2304
 5426TIP3    H137693   2.215   4.223   4.267  0.1239  0.7147 -0.4558
 5426TIP3    H237694   2.165   4.128   4.160  0.9059 -1.3413  0.9485
 5427TIP3   OH237695   3.803   6.587   3.195  0.0143  0.5149 -0.7628
 5427TIP3    H137696   3.743   6.578   3.121  1.3235  0.9154 -1.9218
 5427TIP3    H237697   3.889   6.601   3.155  0.8978 -0.0331  0.8424
 5428TIP3   OH237698   4.129   1.415   3.975 -0.3037  0.2991  0.6345
 5428TIP3    H137699   4.038   1.392   3.953  0.7928 -3.5626 -0.6417
 5428TIP3    H237700   4.143   1.379   4.062  0.9165 -2.6872 -0.6500
 5429TIP3   OH237701   6.423   6.059  15.904 -0.4886 -0.1300  0.0773
 5429TIP3    H137702   6.442   5.966  15.917 -0.9257  0.1158  3.0582
 5429TIP3    H237703   6.508   6.102  15.909 -0.5115 -0.1709  0.7897
 5430TIP3   OH237704   3.033   0.576   1.129 -0.1485 -0.3394  0.5136
 5430TIP3    H137705   3.053   0.659   1.172  2.3841 -0.4043 -0.3415
 5430TIP3    H237706   3.050   0.592   1.036  2.9874 -2.3895  0.5834
 5431TIP3   OH237707   4.343   6.103  15.584  0.0572 -0.1955 -0.1633
 5431TIP3    H137708   4.405   6.073  15.650 -2.1858 -1.2782  1.5449
 5431TIP3    H237709   4.357   6.044  15.510  0.4997 -0.9218  0.4897
 5432TIP3   OH237710   2.184   0.690  14.122  0.0748 -0.3626  0.1408
 5432TIP3    H137711   2.119   0.639  14.074  1.4669 -1.9149 -0.1865
 5432TIP3    H237712   2.235   0.625  14.171  1.0675  0.8363  0.7738
 5433TIP3   OH237713   4.202   1.917  17.027 -0.6724 -0.0253 -0.1194
 5433TIP3    H137714   4.252   1.870  16.961  0.1393  1.8056 -0.8809
 5433TIP3    H237715   4.181   2.001  16.986 -0.5540  0.9803  1.7663
 5434TIP3   OH237716   2.328   0.599  17.115 -0.1894 -0.0558  0.0284
 5434TIP3    H137717   2.307   0.625  17.025 -0.2211 -0.0956  0.0240
 5434TIP3    H237718   2.255   0.543  17.141  0.8190 -1.7392 -0.6429
 5435TIP3   OH237719   3.232   3.002  12.376  0.1177  0.0288  0.2200
 5435TIP3    H137720   3.171   3.076  12.374  0.4943  0.3569  0.5827
 5435TIP3    H237721   3.180   2.927  12.348 -0.5874  0.2073  1.0321
 5436TIP3   OH237722   0.975   2.372  14.125 -0.5571  0.1235  0.1856
 5436TIP3    H137723   0.990   2.294  14.179 -0.3176  0.3809  0.4950
 5436TIP3    H237724   0.963   2.338  14.037 -5.0736 -0.7515  0.8814
 5437TIP3   OH237725   5.102   4.941  11.458  0.2464  0.0653 -0.2887
 5437TIP3    H137726   5.105   4.913  11.366  0.4985  0.1629 -0.3107
 5437TIP3    H237727   5.010   4.963  11.473  0.3319  0.7421 -0.7214
 5438TIP3   OH237728   5.751   5.391   3.630 -0.0444 -0.5286  0.7795
 5438TIP3    H137729   5.764   5.297   3.622  2.8646 -0.2501  0.9132
 5438TIP3    H237730   5.779   5.426   3.545 -2.6085  0.1802  0.1445
 5439TIP3   OH237731   1.731   5.548  15.501  0.4956  0.1561  0.2462
 5439TIP3    H137732   1.708   5.561  15.594  1.3458  1.7297  0.2706
 5439TIP3    H237733   1.648   5.562  15.455  0.0629 -0.6343  0.7547
 5440TIP3   OH237734   3.663   2.057   3.113  0.2036 -0.1015 -0.6045
 5440TIP3    H137735   3.676   2.118   3.040  3.3683 -0.0072 -0.0947
 5440TIP3    H237736   3.705   1.976   3.083 -1.7373 -1.2849 -0.2770
 5441TIP3   OH237737   5.989   3.605  14.564  0.0031  0.2193  0.1229
 5441TIP3    H137738   5.930   3.632  14.634 -1.3734  0.8737 -1.2282
 5441TIP3    H237739   6.058   3.672  14.564  0.3530 -0.1245  1.2168
 5442TIP3   OH237740   0.516   0.756   5.010  0.2922  0.1864 -0.6977
 5442TIP3    H137741   0.601   0.714   5.000  0.1776 -0.6178  1.2511
 5442TIP3    H237742   0.535   0.846   5.034  0.5571  0.5218 -2.1012
 5443TIP3   OH237743   6.784   5.084  10.257 -0.1528  0.3722  0.0445
 5443TIP3    H137744   6.783   5.009  10.318 -0.0765 -0.3127 -0.7753
 5443TIP3    H237745   6.867   5.128  10.275 -0.4967  0.6687  0.9976
 5444TIP3   OH237746   4.684   2.502  11.994  0.2519 -0.1454 -0.4347
 5444TIP3    H137747   4.609   2.543  12.036 -1.1776 -0.4392 -2.5562
 5444TIP3    H237748   4.734   2.575  11.957  1.0788  0.0481  0.9662
 5445TIP3   OH237749   5.059   2.891  15.681  0.1721 -0.4523 -0.2509
 5445TIP3    H137750   5.117   2.967  15.671  0.0413 -0.3968 -0.6295
 5445TIP3    H237751   5.011   2.908  15.762 -0.3335  0.2085 -0.6656
 5446TIP3   OH237752   6.103   6.052   0.843  0.6164  0.5073 -0.2615
 5446TIP3    H137753   6.146   6.097   0.916  0.1942  0.2343  0.1655
 5446TIP3    H237754   6.136   5.962   0.849 -2.2443 -0.5400  1.9653
 5447TIP3   OH237755   4.211   0.362  14.949  0.0758  0.2182 -0.1395
 5447TIP3    H137756   4.146   0.386  15.015 -1.4495 -0.7430 -1.2417
 5447TIP3    H237757   4.252   0.283  14.983 -2.7431 -2.0138 -1.5434
 5448TIP3   OH237758   3.335   2.906   3.859 -0.6417 -0.0209  0.2466
 5448TIP3    H137759   3.288   2.842   3.913 -2.0172 -0.3416 -1.2852
 5448TIP3    H237760   3.269   2.943   3.802  0.4181  1.7642  0.1112
 5449TIP3   OH237761   0.404   4.785  15.539  0.7318  0.6072  0.1118
 5449TIP3    H137762   0.336   4.788  15.606  1.3783 -0.7634  0.8892
 5449TIP3    H237763   0.469   4.724  15.574  1.8464  1.0460 -1.0823
 5450TIP3   OH237764   5.257   0.177   3.614 -0.6284 -0.0891  0.3329
 5450TIP3    H137765   5.307   0.183   3.533 -1.4152 -1.5641 -0.3144
 5450TIP3    H237766   5.317   0.135   3.676 -0.1091  0.8058  0.4428
 5451TIP3   OH237767   0.163   0.420  16.475 -0.7548  0.0775 -0.0968
 5451TIP3    H137768   0.168   0.409  16.570 -0.2222 -1.1540 -0.2479
 5451TIP3    H237769   0.253   0.411  16.445 -0.7605  1.5121 -0.6441
 5452TIP3   OH237770   0.713   2.171  16.516  0.0052  0.2600 -0.4529
 5452TIP3    H137771   0.641   2.177  16.453 -0.2760 -0.0834 -0.1646
 5452TIP3    H237772   0.777   2.114  16.474  0.0808  0.5041 -0.6768
 5453TIP3   OH237773   5.015   4.990   0.897 -0.5597 -0.0263  0.2942
 5453TIP3    H137774   4.958   5.064   0.918  0.7411  0.9806  0.3831
 5453TIP3    H237775   4.961   4.934   0.840 -2.0555  0.2391  1.3862
 5454TIP3   OH237776   1.853   2.840  14.925  0.4105 -0.3685 -0.2235
 5454TIP3    H137777   1.869   2.811  14.835 -0.7400 -2.3044  0.1380
 5454TIP3    H237778   1.929   2.810  14.973  0.4319 -0.4726 -0.3209
 5455TIP3   OH237779   1.666   6.535   3.810 -0.0540  0.0569  0.4409
 5455TIP3    H137780   1.574   6.552   3.830 -1.1111 -2.4034 -1.6878
 5455TIP3    H237781   1.689   6.601   3.744  0.0543  1.2303  1.6049
 5456TIP3   OH237782   6.785   2.908   4.519  0.4884  0.2619 -0.1830
 5456TIP3    H137783   6.871   2.927   4.482 -0.3899  0.7125 -2.0952
 5456TIP3    H237784   6.763   2.821   4.486 -0.8755  1.2106 -1.9228
 5457TIP3   OH237785   0.568   0.600  10.356 -0.0191  0.6355  0.3113
 5457TIP3    H137786   0.655   0.580  10.321 -0.1691 -1.2631  0.9237
 5457TIP3    H237787   0.513   0.528  10.324 -0.9641  0.8590  1.3922
 5458TIP3   OH237788   0.181   5.866   3.472 -0.0627  0.4665 -0.1111
 5458TIP3    H137789   0.232   5.788   3.449  0.5794  0.6283  0.7099
 5458TIP3    H237790   0.242   5.939   3.462  0.2382  0.5619  1.9219
 5459TIP3   OH237791   5.402   6.577  13.622  0.0133  0.0856  0.6491
 5459TIP3    H137792   5.326   6.632  13.603 -0.4466 -1.1898 -1.6083
 5459TIP3    H237793   5.443   6.618  13.698 -2.0639  1.6858  0.9982
 5460TIP3   OH237794   2.356   2.827   2.343 -0.3696  0.6186 -0.2655
 5460TIP3    H137795   2.320   2.831   2.254  0.9023  0.7192 -0.7988
 5460TIP3    H237796   2.283   2.852   2.399 -1.2350  0.4369 -1.2688
 5461TIP3   OH237797   1.697   3.881  15.394  0.1055 -0.0368  0.5937
 5461TIP3    H137798   1.618   3.930  15.417  0.8390  2.1585 -1.1654
 5461TIP3    H237799   1.685   3.858  15.302  2.4826  2.5904 -0.5100
 5462TIP3   OH237800   2.961   2.580   4.044  0.4305  0.2481 -0.0963
 5462TIP3    H137801   3.000   2.552   4.127 -1.1085  1.3558  1.0685
 5462TIP3    H237802   2.904   2.508   4.018  0.9548 -0.1237 -0.2291
 5463TIP3   OH237803   2.277   6.160  13.016  0.7319  0.3886 -0.1891
 5463TIP3    H137804   2.276   6.128  12.926 -3.0185  0.1222 -0.2324
 5463TIP3    H237805   2.202   6.220  13.020  0.5886  0.1371  2.8229
 5464TIP3   OH237806   4.807   3.157   3.853  0.3946  0.2917  0.3129
 5464TIP3    H137807   4.751   3.158   3.775 -0.4530 -0.4061  0.8871
 5464TIP3    H237808   4.746   3.139   3.925  1.4066 -0.8500  0.9087
 5465TIP3   OH237809   3.146   3.606  16.284 -0.3511  0.4853  0.4373
 5465TIP3    H137810   3.194   3.662  16.344  2.2037 -0.2937 -0.7477
 5465TIP3    H237811   3.144   3.656  16.202  0.7252 -0.5314 -0.2316
 5466TIP3   OH237812   1.057   2.413  10.777  0.0664 -0.4303  0.2650
 5466TIP3    H137813   1.141   2.382  10.743  1.3635  1.9120  1.0752
 5466TIP3    H237814   1.031   2.481  10.715 -1.4941 -1.4350 -0.2168
 5467TIP3   OH237815   4.489   2.091   1.671 -0.1279  0.1696 -0.2959
 5467TIP3    H137816   4.529   2.004   1.676 -2.9901 -1.3019 -0.6228
 5467TIP3    H237817   4.536   2.135   1.601  0.7217 -1.5214 -0.8490
 5468TIP3   OH237818   0.136   5.402  12.570  0.4126 -0.1096  0.0109
 5468TIP3    H137819   0.092   5.443  12.645  0.5010 -0.0634  0.0372
 5468TIP3    H237820   0.175   5.322  12.606  0.4562 -0.0869  0.0142
 5469TIP3   OH237821   5.892   2.034   2.384  0.2443  0.1158  0.5065
 5469TIP3    H137822   5.878   2.112   2.330 -0.2006 -0.9890 -1.0510
 5469TIP3    H237823   5.935   1.971   2.325 -0.0616 -1.0643  1.5011
 5470TIP3   OH237824   6.473   0.527   5.256  0.3691 -0.6529  0.2101
 5470TIP3    H137825   6.441   0.473   5.184  0.8566 -0.9358  0.2024
 5470TIP3    H237826   6.394   0.565   5.294  0.2219  2.1615 -2.5051
 5471TIP3   OH237827   2.005   1.688   5.592 -0.4697 -0.3120 -0.1048
 5471TIP3    H137828   2.094   1.671   5.564 -0.7206 -0.0633 -1.0813
 5471TIP3    H237829   1.981   1.611   5.644  0.9586  0.4576  1.8248
 5472TIP3   OH237830   6.049   4.832  13.721 -0.2892 -0.0584  0.2595
 5472TIP3    H137831   6.087   4.758  13.675  0.0720  0.3404 -0.0942
 5472TIP3    H237832   6.007   4.884  13.653 -0.7915 -0.0870  0.5449
 5473TIP3   OH237833   1.630   4.706  13.231 -0.1301 -0.6691 -0.0503
 5473TIP3    H137834   1.579   4.760  13.292 -0.3936  1.0416 -1.7031
 5473TIP3    H237835   1.578   4.627  13.221 -1.4106  0.1386 -0.0619
 5474TIP3   OH237836   2.315   4.542  15.352 -0.2130  0.1564 -0.3526
 5474TIP3    H137837   2.317   4.624  15.301  0.6267  0.5747  0.3259
 5474TIP3    H237838   2.245   4.556  15.416  0.5198  0.7213  0.3457
 5475TIP3   OH237839   0.963   1.903  12.591 -0.3321  0.3090  0.4411
 5475TIP3    H137840   0.894   1.967  12.608 -0.6009 -0.1071  0.9226
 5475TIP3    H237841   1.044   1.955  12.594 -0.5986  0.7511  0.1228
 5476TIP3   OH237842   2.371   3.837   5.299  0.3139  0.5391 -0.6891
 5476TIP3    H137843   2.375   3.795   5.385  0.2727 -2.1564 -1.8765
 5476TIP3    H237844   2.343   3.926   5.316 -0.8773 -0.2623  1.9906
 5477TIP3   OH237845   4.096   2.387  16.796  0.0827 -0.6593  0.1379
 5477TIP3    H137846   4.170   2.326  16.805  0.5015 -0.2281 -0.3702
 5477TIP3    H237847   4.019   2.333  16.817  0.5962 -0.9090  1.4981
 5478TIP3   OH237848   2.079   0.942   3.901  0.3298 -0.1851 -0.5514
 5478TIP3    H137849   2.059   0.980   3.987 -0.2892 -0.4021 -0.5970
 5478TIP3    H237850   2.095   1.018   3.845 -0.3646  0.0050 -0.5072
 5479TIP3   OH237851   2.343   0.650  11.997 -0.3489 -0.1201  0.4325
 5479TIP3    H137852   2.374   0.566  11.964 -1.8051 -0.5658  0.1575
 5479TIP3    H237853   2.383   0.715  11.939  0.7080 -0.5999  0.5923
 5480TIP3   OH237854   2.371   6.174  14.713  0.1149 -0.5566 -0.7269
 5480TIP3    H137855   2.446   6.120  14.738  0.2211 -0.8556 -1.6572
 5480TIP3    H237856   2.299   6.141  14.768  0.4644 -0.8295 -0.4280
 5481TIP3   OH237857   3.918   5.541   4.975 -0.3260 -0.3321  0.4233
 5481TIP3    H137858   3.898   5.574   5.063 -1.1815 -2.4901  1.0940
 5481TIP3    H237859   3.890   5.611   4.916  0.2481  1.1577  1.8465
 5482TIP3   OH237860   4.885   5.010  16.292 -0.3789  0.7210 -0.3158
 5482TIP3    H137861   4.814   4.998  16.355 -0.8684  1.1975 -0.7663
 5482TIP3    H237862   4.852   5.076  16.231 -0.5029 -0.7509 -1.9170
 5483TIP3   OH237863   5.617   2.940   2.079 -0.3852  0.5088 -0.0353
 5483TIP3    H137864   5.572   2.857   2.094  0.3451  0.0689 -0.2259
 5483TIP3    H237865   5.560   2.988   2.019 -0.0827 -0.4877 -1.1422
 5484TIP3   OH237866   1.210   1.457   5.107  0.3741  0.4668 -0.0695
 5484TIP3    H137867   1.116   1.439   5.099  0.5513 -1.0102  0.7763
 5484TIP3    H237868   1.228   1.452   5.201  1.9574 -3.3514 -0.3660
 5485TIP3   OH237869   2.032   4.488  12.509  0.1944 -0.4201  0.0348
 5485TIP3    H137870   1.941   4.458  12.505  1.3614 -4.5301  0.3808
 5485TIP3    H237871   2.062   4.484  12.418 -0.1220  1.9012 -0.2384
 5486TIP3   OH237872   1.712   2.679  16.993 -0.4544  0.3041  0.0784
 5486TIP3    H137873   1.784   2.694  17.054 -0.9139 -0.0980  0.7343
 5486TIP3    H237874   1.688   2.587  17.007 -0.6575  0.2455 -0.6151
 5487TIP3   OH237875   0.561   2.357  11.527 -0.1634  0.1490 -0.6072
 5487TIP3    H137876   0.596   2.269  11.510  0.4892  0.6025 -1.7744
 5487TIP3    H237877   0.479   2.360  11.478 -1.3704 -0.5541  1.2788
 5488TIP3   OH237878   2.174   6.787   2.582  0.1545 -0.4747 -0.1136
 5488TIP3    H137879   2.242   6.723   2.559  0.6438  0.3177 -0.9315
 5488TIP3    H237880   2.213   6.871   2.560 -1.3566 -0.0468 -1.2206
 5489TIP3   OH237881   1.273   5.196  12.491  0.3163  0.5463  0.3301
 5489TIP3    H137882   1.268   5.103  12.467  0.2837  0.6278  0.0254
 5489TIP3    H237883   1.194   5.211  12.543 -0.0977  0.6000 -0.2974
 5490TIP3   OH237884   0.893   0.918  12.950 -0.0170  0.0097 -0.1235
 5490TIP3    H137885   0.985   0.896  12.934 -0.2209 -0.8695 -0.1352
 5490TIP3    H237886   0.877   0.888  13.040 -0.0852  0.8825  0.1686
 5491TIP3   OH237887   6.158   4.231   0.483 -0.3755  0.5417  0.4392
 5491TIP3    H137888   6.183   4.153   0.434  1.1735  0.6255  1.0303
 5491TIP3    H237889   6.114   4.197   0.561  0.7222  0.2109  0.9346
 5492TIP3   OH237890   3.238   1.500   0.025  0.7539  0.0214 -0.0799
 5492TIP3    H137891   3.256   1.587   0.063 -1.2082  0.1675  0.6550
 5492TIP3    H237892   3.304   1.490  -0.043  0.0406  2.8429 -1.3452
 5493TIP3   OH237893   5.934   6.744   0.966 -0.3879 -0.1898  0.1430
 5493TIP3    H137894   5.853   6.728   0.917  0.0791 -0.0178 -0.7149
 5493TIP3    H237895   5.952   6.837   0.954  0.4274 -0.4101 -0.4751
 5494TIP3   OH237896   5.572   1.588  11.419  0.2479  0.2435 -0.1393
 5494TIP3    H137897   5.640   1.587  11.352 -0.2740 -0.9154 -0.6776
 5494TIP3    H237898   5.578   1.676  11.457  2.2402  0.0821  0.0563
 5495TIP3   OH237899   3.569   0.344   3.513 -0.1286 -0.4170  0.7467
 5495TIP3    H137900   3.614   0.412   3.464 -1.5052  0.4808  0.6940
 5495TIP3    H237901   3.599   0.356   3.604 -1.4374  1.2265  1.0052
 5496TIP3   OH237902   5.160   6.278  12.904 -0.1250 -0.2274 -0.3324
 5496TIP3    H137903   5.223   6.350  12.897  0.2742 -0.6724 -1.6299
 5496TIP3    H237904   5.104   6.302  12.978  0.1814  1.2610 -0.5564
 5497TIP3   OH237905   1.744   5.277  11.221  0.4114  0.3937  0.0026
 5497TIP3    H137906   1.691   5.212  11.267 -0.8837  0.0280 -1.8804
 5497TIP3    H237907   1.773   5.338  11.289 -1.0839 -0.3133  1.3266
 5498TIP3   OH237908   5.621   3.687  16.409 -0.1796  0.0169  0.3051
 5498TIP3    H137909   5.688   3.755  16.398  0.2488 -0.4012  0.2664
 5498TIP3    H237910   5.572   3.688  16.327 -0.9150  1.0515  0.7402
 5499TIP3   OH237911   0.465   0.110   3.367  0.2787 -0.7032 -0.4398
 5499TIP3    H137912   0.490   0.052   3.439  0.1212  0.7985  0.8817
 5499TIP3    H237913   0.547   0.152   3.341  0.1163 -0.2102 -0.1697
 5500TIP3   OH237914   1.703   5.904   0.257 -0.1672 -0.5157  0.6256
 5500TIP3    H137915   1.688   5.812   0.281 -0.1557 -0.4720  0.8009
 5500TIP3    H237916   1.728   5.946   0.339  1.5046 -0.6996  0.2456
 5501TIP3   OH237917   3.119   4.215   5.209  0.3288  0.1613 -0.1294
 5501TIP3    H137918   3.050   4.280   5.194  0.3314  0.2916  0.4086
 5501TIP3    H237919   3.075   4.143   5.255  0.7653  0.7042  1.1676
 5502TIP3   OH237920   4.344   1.181  15.292 -0.0584  0.3262 -0.1320
 5502TIP3    H137921   4.325   1.165  15.384  0.2912  1.1422  0.0897
 5502TIP3    H237922   4.435   1.156  15.281 -0.3186 -0.5114 -0.4440
 5503TIP3   OH237923   5.050   3.555   1.457 -0.5968 -0.3339 -0.2241
 5503TIP3    H137924   5.096   3.496   1.516 -0.1053 -0.5005 -0.7635
 5503TIP3    H237925   5.095   3.545   1.373 -0.3784  0.9631 -0.2781
 5504TIP3   OH237926   4.510   1.828   2.430  0.2907 -0.3341  0.5809
 5504TIP3    H137927   4.555   1.792   2.353 -1.1221 -0.3065 -0.3109
 5504TIP3    H237928   4.506   1.755   2.492  0.2626 -0.7783  0.0691
 5505TIP3   OH237929   2.744   2.157   4.939  0.0184 -0.3167 -0.1294
 5505TIP3    H137930   2.683   2.229   4.951 -0.4157 -0.9418  1.8697
 5505TIP3    H237931   2.829   2.194   4.964 -0.3470 -0.6716  1.8374
 5506TIP3   OH237932   5.653   4.131   0.917  0.1293  0.8132  0.5242
 5506TIP3    H137933   5.653   4.205   0.978 -0.2188  1.4055 -0.1775
 5506TIP3    H237934   5.717   4.155   0.850 -1.5949  1.5700 -0.9465
 5507TIP3   OH237935   5.216   2.889   0.347 -0.2618 -0.1501 -0.4665
 5507TIP3    H137936   5.181   2.905   0.435  1.2090 -0.8955  0.3024
 5507TIP3    H237937   5.288   2.951   0.339  0.9772 -1.4887 -0.2502
 5508TIP3   OH237938   0.823   4.935   6.507  0.2330 -0.1260  0.4798
 5508TIP3    H137939   0.750   4.945   6.567  1.0629 -0.0115  1.5116
 5508TIP3    H237940   0.880   5.010   6.526 -0.6878  1.4315 -2.2753
 5509TIP3   OH237941   0.409   5.384  13.267 -0.7290 -0.2098  0.0476
 5509TIP3    H137942   0.415   5.391  13.171  0.1534  0.0677  0.1134
 5509TIP3    H237943   0.329   5.431  13.289 -1.2284 -0.7265 -0.5946
 5510TIP3   OH237944   0.857   1.632   2.558 -0.5139  0.1032 -0.0869
 5510TIP3    H137945   0.901   1.717   2.566 -0.7532  0.2868 -0.7104
 5510TIP3    H237946   0.928   1.569   2.546 -0.3070  0.1530  0.8161
 5511TIP3   OH237947   3.858   4.951   0.183 -0.0156 -0.4242  0.3474
 5511TIP3    H137948   3.811   4.959   0.100 -0.4429 -1.9340  0.4165
 5511TIP3    H237949   3.905   5.034   0.192  0.2878 -0.3450 -1.5476
 5512TIP3   OH237950   4.077   2.895   5.348  0.3289 -0.0215 -0.3324
 5512TIP3    H137951   3.982   2.895   5.360  0.0632 -2.7411 -1.7486
 5512TIP3    H237952   4.090   2.905   5.254  1.2339 -2.5951 -0.5661
 5513TIP3   OH237953   2.644   4.766   2.277 -0.1275 -0.3837  0.0241
 5513TIP3    H137954   2.707   4.714   2.326  1.0126  0.5916 -0.3725
 5513TIP3    H237955   2.692   4.799   2.201 -1.0797  0.4745 -0.2401
 5514TIP3   OH237956   0.483   1.360   1.691 -0.5433  0.2922 -0.7743
 5514TIP3    H137957   0.438   1.343   1.773 -1.7009 -1.5903 -1.7222
 5514TIP3    H237958   0.568   1.397   1.716 -0.8659 -0.2584  1.2371
 5515TIP3   OH237959   4.029   3.602   3.168 -0.5523 -0.1259 -0.0778
 5515TIP3    H137960   4.022   3.561   3.081 -0.6408 -1.3495  0.4793
 5515TIP3    H237961   3.952   3.570   3.215 -1.8159  2.4206 -0.2663
 5516TIP3   OH237962   0.618   1.608   1.235 -0.8666  0.3706 -0.2146
 5516TIP3    H137963   0.575   1.562   1.308 -0.8264  0.7687  0.0634
 5516TIP3    H237964   0.560   1.682   1.216 -0.8353  0.3109 -0.5324
 5517TIP3   OH237965   6.580   3.147   2.963  0.1489 -0.2032 -0.1322
 5517TIP3    H137966   6.588   3.136   3.058  0.8990 -0.1601 -0.1846
 5517TIP3    H237967   6.514   3.215   2.952  2.0159  1.8029  0.4549
 5518TIP3   OH237968   4.228   2.687  16.439 -0.2396 -0.4342 -0.2148
 5518TIP3    H137969   4.216   2.598  16.474  0.6864 -1.6390 -2.7450
 5518TIP3    H237970   4.228   2.676  16.344  0.6853  2.1818 -0.5969
 5519TIP3   OH237971   1.670   2.931   3.549 -0.3002  0.1405  0.1981
 5519TIP3    H137972   1.671   2.852   3.602 -0.1383 -0.9098 -1.3077
 5519TIP3    H237973   1.648   3.001   3.610 -0.5728 -1.0759  1.5364
 5520TIP3   OH237974   3.045   4.592  13.930 -0.7927 -0.3752 -0.1233
 5520TIP3    H137975   3.083   4.643  13.858 -0.1004 -1.3753 -0.4791
 5520TIP3    H237976   3.052   4.650  14.006 -0.2602  0.1631 -0.5702
 5521TIP3   OH237977   6.753   0.808   3.160 -0.3124  0.1033  0.7280
 5521TIP3    H137978   6.780   0.730   3.111 -0.3510 -0.8396  2.1750
 5521TIP3    H237979   6.658   0.811   3.151 -0.4278 -0.6836  1.6312
 5522TIP3   OH237980   6.251   3.085   5.400  0.5256  0.0522  0.7401
 5522TIP3    H137981   6.316   3.106   5.332  1.1952 -1.9649  0.6844
 5522TIP3    H237982   6.280   3.135   5.476 -0.8221  3.1618 -0.6531
 5523TIP3   OH237983   3.112   4.391  15.219  0.2020 -0.2307  0.2535
 5523TIP3    H137984   3.135   4.383  15.311  1.6215 -1.3820 -0.1488
 5523TIP3    H237985   3.194   4.415  15.176 -0.4202  0.2367 -0.7120
 5524TIP3   OH237986   1.579   6.585  13.224  0.4516 -0.0911  0.6058
 5524TIP3    H137987   1.583   6.526  13.300  1.4476 -3.4823 -1.8035
 5524TIP3    H237988   1.486   6.591  13.204  0.3576 -1.7178  0.3885
 5525TIP3   OH237989   0.554   3.722  16.682  0.2568  0.2299 -0.0681
 5525TIP3    H137990   0.479   3.697  16.627  0.4862  1.5404 -1.0217
 5525TIP3    H237991   0.626   3.735  16.620  0.9791  0.1015  0.7241
 5526TIP3   OH237992   5.079   4.958  15.408  0.3465  0.1000 -0.4574
 5526TIP3    H137993   5.019   4.962  15.333 -0.7881 -1.0461  0.3461
 5526TIP3    H237994   5.034   5.008  15.477 -0.8491 -2.5281  0.8521
 5527TIP3   OH237995   6.193   4.350   2.471  1.0535  0.0253  0.3221
 5527TIP3    H137996   6.196   4.386   2.560 -0.9485 -1.6924  1.1335
 5527TIP3    H237997   6.208   4.256   2.482 -1.0469 -0.5074 -0.9159
 5528TIP3   OH237998   1.139   2.330  15.517  0.3107  0.6036 -0.3241
 5528TIP3    H137999   1.156   2.272  15.443 -0.8033  1.6484 -1.4464
 5528TIP3    H238000   1.203   2.401  15.508  0.0219  0.8541 -0.4384
 5529TIP3   OH238001   6.395   3.668   5.836  0.0150  0.0797  0.1600
 5529TIP3    H138002   6.342   3.730   5.886 -0.7841  0.9077 -1.6307
 5529TIP3    H238003   6.479   3.712   5.825 -0.2833  0.5138 -0.4225
 5530TIP3   OH238004   5.884   6.339   1.768 -0.6987 -0.1481 -0.2932
 5530TIP3    H138005   5.812   6.277   1.782  0.5228 -1.6840 -0.4996
 5530TIP3    H238006   5.873   6.404   1.838 -1.4381 -1.1738  0.5806
 5531TIP3   OH238007   5.187   1.827   1.773  0.4379  0.0190 -0.5411
 5531TIP3    H138008   5.194   1.883   1.697  0.7538  2.5742  1.2535
 5531TIP3    H238009   5.240   1.870   1.840 -1.7142 -0.7965  1.8547
 5532TIP3   OH238010   6.310   1.164  16.991  0.5431 -0.2529  0.2102
 5532TIP3    H138011   6.280   1.192  17.077  2.4446  0.9563  0.5399
 5532TIP3    H238012   6.268   1.226  16.930 -1.0608 -1.3119  0.2009
 5533TIP3   OH238013   2.281   3.203  15.003  0.4625  0.0391 -0.2350
 5533TIP3    H138014   2.288   3.251  15.086  2.1675 -1.3356  0.4748
 5533TIP3    H238015   2.335   3.254  14.942  1.5085 -0.4441  0.2670
 5534TIP3   OH238016   5.245   1.791   3.507 -0.3199 -0.3906 -0.1612
 5534TIP3    H138017   5.186   1.826   3.574  0.7516  1.4417 -0.1126
 5534TIP3    H238018   5.282   1.868   3.465  0.8282 -1.5055 -1.2849
 5535TIP3   OH238019   0.678   3.646  10.914  0.5118 -0.4577 -0.1061
 5535TIP3    H138020   0.725   3.723  10.947 -1.6486  1.2801 -0.8504
 5535TIP3    H238021   0.643   3.674  10.829 -0.9431 -2.0205 -0.0629
 5536TIP3   OH238022   0.675   3.859  10.429 -0.0914  0.1803 -0.2820
 5536TIP3    H138023   0.751   3.906  10.395 -0.7470 -0.4098 -2.7699
 5536TIP3    H238024   0.692   3.767  10.408 -0.3485 -0.3154  1.5078
 5537TIP3   OH238025   3.113   2.843   4.405 -0.6052 -0.0786  0.2687
 5537TIP3    H138026   3.195   2.868   4.363 -0.6816 -0.5291 -0.1478
 5537TIP3    H238027   3.137   2.773   4.466 -0.3767  1.0268  1.5063
 5538TIP3   OH238028   3.614   0.684  14.620 -0.5837  0.2705  0.3095
 5538TIP3    H138029   3.541   0.739  14.591 -0.2265  0.1981 -0.7739
 5538TIP3    H238030   3.691   0.740  14.609 -0.3842  0.0699  0.6824
 5539TIP3   OH238031   6.489   2.697   0.942 -0.0354 -0.0856 -0.3826
 5539TIP3    H138032   6.568   2.647   0.960 -1.5293 -1.9974  1.3012
 5539TIP3    H238033   6.502   2.780   0.989  1.5889  0.3264 -1.4789
 5540TIP3   OH238034   5.724   1.548   0.028 -0.3041  0.8428 -0.3955
 5540TIP3    H138035   5.729   1.557   0.123  1.0386  1.4480 -0.4999
 5540TIP3    H238036   5.776   1.471   0.008 -2.7581 -0.9214 -0.4601
 5541TIP3   OH238037   5.540   5.410   6.268 -0.5631  0.1428  0.0529
 5541TIP3    H138038   5.530   5.335   6.325 -0.7074 -0.3446 -0.5973
 5541TIP3    H238039   5.628   5.443   6.285 -0.3680 -0.3945  0.0797
 5542TIP3   OH238040   4.787   1.588  10.828 -0.0981 -0.6671 -0.1660
 5542TIP3    H138041   4.752   1.641  10.900 -0.8623  1.7515 -2.1823
 5542TIP3    H238042   4.881   1.605  10.829 -0.4958  2.0522 -1.6747
 5543TIP3   OH238043   5.113   4.161  13.607  0.5848 -0.0915  0.4481
 5543TIP3    H138044   5.058   4.101  13.557 -1.5567  2.7014 -0.8727
 5543TIP3    H238045   5.188   4.177  13.551  0.6427 -0.7058  0.3413
 5544TIP3   OH238046   5.732   2.368   1.356  0.2780 -0.6205 -0.4576
 5544TIP3    H138047   5.821   2.369   1.321  0.8451  0.1407  0.9046
 5544TIP3    H238048   5.733   2.434   1.426 -0.7952 -1.9639  0.9036
 5545TIP3   OH238049   4.012   5.040   3.659 -0.2951  0.1658  0.3624
 5545TIP3    H138050   4.105   5.059   3.670  0.5147 -0.8764 -3.2140
 5545TIP3    H238051   3.977   5.116   3.613 -0.7550 -0.1980  0.0996
 5546TIP3   OH238052   0.521   4.664   5.264 -0.4675  0.1192  0.2464
 5546TIP3    H138053   0.427   4.651   5.274 -0.3270 -1.0205  0.3296
 5546TIP3    H238054   0.544   4.610   5.188  0.0055  0.9925 -0.2467
 5547TIP3   OH238055   5.665   4.316  12.721 -0.2148 -0.1166  0.2706
 5547TIP3    H138056   5.740   4.350  12.673 -1.3935 -0.6198 -2.0454
 5547TIP3    H238057   5.687   4.330  12.813  1.1782  2.9416 -0.4315
 5548TIP3   OH238058   0.992   5.929  16.107  0.0240  0.2871 -0.3274
 5548TIP3    H138059   0.928   5.988  16.068 -0.0729  1.1524  1.0806
 5548TIP3    H238060   1.076   5.974  16.097 -0.0595  0.7276  0.8117
 5549TIP3   OH238061   0.956   0.412  13.285 -0.5612  0.0171 -0.4792
 5549TIP3    H138062   1.034   0.388  13.334 -1.7113 -0.8607  0.9837
 5549TIP3    H238063   0.899   0.455  13.348 -2.1097 -1.1860 -0.9722
 5550TIP3   OH238064   3.154   5.711  13.312  0.0754  0.9599  0.1747
 5550TIP3    H138065   3.228   5.772  13.309  0.8305  0.0187 -1.1216
 5550TIP3    H238066   3.155   5.667  13.227  1.0031 -2.5166  1.7904
 5551TIP3   OH238067   3.827   0.578   3.950  0.2604  0.3235  0.6061
 5551TIP3    H138068   3.869   0.595   3.866 -1.8967 -0.6082 -0.7496
 5551TIP3    H238069   3.875   0.503   3.986  1.5342  1.0560  0.5105
 5552TIP3   OH238070   1.069   5.451   0.065 -0.8477  0.0776  0.0708
 5552TIP3    H138071   1.083   5.368   0.020 -0.7737  0.4930 -0.7018
 5552TIP3    H238072   1.003   5.496   0.012  0.2997  1.1866 -0.4722
 5553TIP3   OH238073   2.234   5.438   2.541 -0.0854  0.0768 -0.3701
 5553TIP3    H138074   2.169   5.395   2.486  2.7558  0.0262 -4.0249
 5553TIP3    H238075   2.280   5.366   2.585  0.1133 -0.1799 -0.9907
 5554TIP3   OH238076   5.827   6.330  13.060  0.2713  0.0981  0.6197
 5554TIP3    H138077   5.805   6.262  12.998  0.9663 -0.7285  1.2588
 5554TIP3    H238078   5.913   6.305  13.094 -0.1945  0.3903  2.0837
 5555TIP3   OH238079   3.181   0.768   4.302 -0.2714  0.3895 -0.6121
 5555TIP3    H138080   3.094   0.763   4.341  0.0735 -1.2248  0.0537
 5555TIP3    H238081   3.237   0.719   4.363  1.0221  1.0254 -1.2427
 5556TIP3   OH238082   0.560   2.429   2.063  0.3500  0.1989 -0.1533
 5556TIP3    H138083   0.634   2.372   2.042 -0.1811 -0.2064 -0.9312
 5556TIP3    H238084   0.551   2.422   2.159  1.2801  0.2158 -0.0566
 5557TIP3   OH238085   6.598   5.603  17.186  0.3585 -0.1361  0.0287
 5557TIP3    H138086   6.556   5.531  17.139  0.4828 -0.2420  0.0755
 5557TIP3    H238087   6.640   5.656  17.118  0.8141 -0.4698  0.0408
 5558TIP3   OH238088   4.120   5.813  11.223 -0.5167  0.3325 -0.5807
 5558TIP3    H138089   4.089   5.830  11.134 -1.2512  0.1851 -0.3545
 5558TIP3    H238090   4.193   5.753  11.211 -1.0021 -0.1804 -1.0461
 5559TIP3   OH238091   3.851   3.554  13.852 -0.4976 -0.1662  0.8339
 5559TIP3    H138092   3.791   3.486  13.885 -0.3897  0.2189  1.8695
 5559TIP3    H238093   3.815   3.636  13.884 -0.9738  0.3633 -0.9450
 5560TIP3   OH238094   6.744   6.307   3.667 -0.0864 -0.0399 -0.0286
 5560TIP3    H138095   6.724   6.246   3.596 -0.6609 -0.0564  0.1371
 5560TIP3    H238096   6.835   6.290   3.689  0.4874  0.8307 -1.6052
 5561TIP3   OH238097   4.244   6.269  16.409  0.3688  0.1512  0.3859
 5561TIP3    H138098   4.170   6.259  16.469  0.9101  0.6316  1.1472
 5561TIP3    H238099   4.220   6.217  16.332 -0.0630 -0.9992  1.2697
 5562TIP3   OH238100   1.120   3.291   0.443  0.5671 -0.1922 -0.6678
 5562TIP3    H138101   1.065   3.363   0.414 -0.5118 -0.3264  0.8995
 5562TIP3    H238102   1.207   3.313   0.413  0.0312  1.1263 -1.3230
 5563TIP3   OH238103   5.972   3.912   4.482  0.1931  0.7727 -0.1644
 5563TIP3    H138104   5.948   3.997   4.445 -0.5340 -0.0613 -1.7188
 5563TIP3    H238105   6.051   3.886   4.435 -0.3191  0.0326 -0.6543
 5564TIP3   OH238106   4.617   5.336   4.963 -0.2231 -0.2413  0.2542
 5564TIP3    H138107   4.574   5.364   4.882  1.0065  0.9843 -0.0056
 5564TIP3    H238108   4.683   5.273   4.935 -0.4194 -0.5257  0.4199
 5565TIP3   OH238109   5.264   2.136  16.598 -0.5467 -0.1566 -0.0262
 5565TIP3    H138110   5.300   2.182  16.674 -1.6989  0.5499  0.1226
 5565TIP3    H238111   5.170   2.129  16.617 -0.8181 -0.1693 -1.2855
 5566TIP3   OH238112   3.129   0.311   5.403  0.3765 -0.4092  0.0662
 5566TIP3    H138113   3.142   0.274   5.491  1.4284 -3.3992 -1.2183
 5566TIP3    H238114   3.046   0.275   5.374  1.2385 -1.5510 -1.0821
 5567TIP3   OH238115   3.636   3.379  14.322 -0.1143  0.2619  0.9575
 5567TIP3    H138116   3.632   3.445  14.391  0.5894  2.9003 -1.3632
 5567TIP3    H238117   3.557   3.394  14.270  0.7728  0.2755 -0.4393
 5568TIP3   OH238118   5.230   1.349   4.561 -0.2363  0.6248  0.0310
 5568TIP3    H138119   5.300   1.409   4.536 -0.2082  0.9580  0.8732
 5568TIP3    H238120   5.274   1.264   4.573 -0.2113  0.5173 -0.7767
 5569TIP3   OH238121   5.329   2.122   4.083 -0.2037  0.0986  0.3067
 5569TIP3    H138122   5.335   2.092   3.993  1.5907 -0.5137  0.5898
 5569TIP3    H238123   5.375   2.206   4.084 -1.9677  1.1273  0.2864
 5570TIP3   OH238124   2.682   6.394  13.572  0.0561 -0.2151  0.6427
 5570TIP3    H138125   2.637   6.361  13.494 -2.7373 -2.2443  2.9026
 5570TIP3    H238126   2.657   6.487  13.577 -0.1074 -0.1786 -0.6045
 5571TIP3   OH238127   0.158   1.313   3.821 -0.0585  0.0660 -0.4853
 5571TIP3    H138128   0.065   1.295   3.837  0.0361  0.4816  0.6237
 5571TIP3    H238129   0.195   1.325   3.908  1.4287 -1.8863 -0.7716
 5572TIP3   OH238130   6.488   0.260   0.268 -0.6063  0.0006 -0.0087
 5572TIP3    H138131   6.459   0.253   0.177 -0.9401  0.7581  0.0324
 5572TIP3    H238132   6.417   0.306   0.312 -1.0932 -1.6037  0.9580
 5573TIP3   OH238133   6.306   2.048   0.497 -0.3111 -0.4086 -0.2453
 5573TIP3    H138134   6.215   2.065   0.521 -0.1942  0.5385 -0.4550
 5573TIP3    H238135   6.353   2.045   0.581 -0.3352  0.3439 -0.1971
 5574TIP3   OH238136   2.452   5.903   3.142 -0.0551  0.1971  0.1993
 5574TIP3    H138137   2.409   5.840   3.085  1.2561  0.2377 -0.8811
 5574TIP3    H238138   2.545   5.891   3.126  0.2465  2.3293  0.0230
 5575TIP3   OH238139   1.582   4.021  14.653 -0.0332 -0.4431 -0.6427
 5575TIP3    H138140   1.637   4.001  14.729 -0.7460  2.3419  0.7532
 5575TIP3    H238141   1.641   4.065  14.591 -0.3911  1.7697  0.4920
 5576TIP3   OH238142   0.184   1.941  12.735  0.0263 -0.1557 -0.4496
 5576TIP3    H138143   0.141   2.013  12.782 -0.1233 -1.2303  1.0927
 5576TIP3    H238144   0.226   1.984  12.660 -0.2694  1.5014  0.2938
 5577TIP3   OH238145   2.013   1.971   5.542  0.2195 -0.1495 -0.1901
 5577TIP3    H138146   1.970   1.886   5.553  1.0772 -0.6896 -0.8904
 5577TIP3    H238147   2.084   1.970   5.606 -0.3221  0.4140  0.4208
 5578TIP3   OH238148   0.604   4.567  14.033  0.0729 -0.3085  0.0164
 5578TIP3    H138149   0.547   4.580  14.109 -0.7798  0.9962 -0.8073
 5578TIP3    H238150   0.562   4.616  13.963  1.5693 -0.3481 -0.9500
 5579TIP3   OH238151   2.344   5.371  10.895  0.1025  0.0045  0.1485
 5579TIP3    H138152   2.304   5.320  10.965 -1.4001  1.3258  0.3028
 5579TIP3    H238153   2.438   5.365  10.911 -0.1053 -1.4812  0.9986
 5580TIP3   OH238154   3.243   4.509  11.621 -0.2981 -0.2449  0.8001
 5580TIP3    H138155   3.208   4.532  11.535  0.1344 -0.0610  0.6697
 5580TIP3    H238156   3.166   4.499  11.676 -0.6296 -1.1167  0.2107
 5581TIP3   OH238157   3.180   0.644  15.560 -0.1252 -0.2372 -0.8008
 5581TIP3    H138158   3.201   0.735  15.537  0.9723 -0.7081 -1.7721
 5581TIP3    H238159   3.206   0.636  15.652 -1.9665  0.9159 -0.1186
 5582TIP3   OH238160   4.597   3.678   4.181 -0.4611 -0.4273 -0.2336
 5582TIP3    H138161   4.501   3.685   4.177 -0.4074  0.7745  0.1802
 5582TIP3    H238162   4.617   3.600   4.131 -1.8586 -2.2852  1.8763
 5583TIP3   OH238163   6.321   3.506  11.828  0.5532 -0.1776  0.3213
 5583TIP3    H138164   6.407   3.478  11.857  1.5097 -0.1365 -2.2741
 5583TIP3    H238165   6.311   3.594  11.865  1.9254  0.0849  0.1140
 5584TIP3   OH238166   0.645   3.889   1.841  0.4528  0.0580 -0.5171
 5584TIP3    H138167   0.700   3.811   1.846 -0.3082 -0.5566 -1.4247
 5584TIP3    H238168   0.583   3.870   1.771 -0.2587  1.1557 -0.2048
 5585TIP3   OH238169   4.026   4.262   0.415  0.2720  0.1390 -0.5340
 5585TIP3    H138170   4.035   4.167   0.410  0.1931  0.1505 -0.9342
 5585TIP3    H238171   3.953   4.283   0.357  1.3367  0.5990 -1.7637
 5586TIP3   OH238172   6.069   4.482   5.273 -0.3115 -1.0485  1.2132
 5586TIP3    H138173   6.063   4.576   5.255 -1.1001 -0.8709  2.2436
 5586TIP3    H238174   6.089   4.442   5.189 -0.9469 -0.0414  0.5621
 5587TIP3   OH238175   4.184   0.126  14.447 -0.1918 -0.2061  0.9219
 5587TIP3    H138176   4.120   0.092  14.384 -0.8789 -1.9449  2.4952
 5587TIP3    H238177   4.131   0.162  14.518  0.4790 -2.2881  2.5792
 5588TIP3   OH238178   6.525   1.897   4.606 -0.2543  0.2216 -0.1048
 5588TIP3    H138179   6.476   1.955   4.548 -0.5807  0.8332  0.7775
 5588TIP3    H238180   6.543   1.949   4.683  0.4946 -0.4765  0.2052
 5589TIP3   OH238181   6.754   1.859   3.890  0.4324 -0.1651 -0.2284
 5589TIP3    H138182   6.732   1.890   3.802  1.4422  0.2603 -0.3357
 5589TIP3    H238183   6.701   1.914   3.948 -1.0640 -1.1629 -0.5870
 5590TIP3   OH238184   3.059   2.979   3.253  0.3456  0.1805 -0.2145
 5590TIP3    H138185   2.987   2.920   3.275 -1.2437  1.9305 -0.4963
 5590TIP3    H238186   3.033   3.019   3.170  1.8602  0.5538 -0.5447
 5591TIP3   OH238187   5.281   1.722  15.681 -0.0714  0.4645 -0.1928
 5591TIP3    H138188   5.329   1.693  15.759  1.1157 -0.3489 -1.2015
 5591TIP3    H238189   5.347   1.764  15.627 -0.9005  1.0572 -0.7531
 5592TIP3   OH238190   2.349   1.820  15.738 -0.1737  0.0877 -0.5213
 5592TIP3    H138191   2.350   1.724  15.728  0.0837  0.0562 -0.2138
 5592TIP3    H238192   2.268   1.838  15.786  0.1923 -0.0555  0.1634
 5593TIP3   OH238193   4.564   5.535  14.758  0.4966 -0.3838  0.3339
 5593TIP3    H138194   4.608   5.509  14.678  1.5039  2.1287 -0.0205
 5593TIP3    H238195   4.471   5.543  14.734  0.5246 -1.2582 -0.0990
 5594TIP3   OH238196   6.081   2.888   4.736  0.0454 -0.3958  0.4156
 5594TIP3    H138197   6.061   2.895   4.642  0.3592 -1.4658  0.2639
 5594TIP3    H238198   6.171   2.857   4.739  0.2224  0.1484  1.0881
 5595TIP3   OH238199   6.056   5.632   1.172  0.6309 -0.8148  0.2112
 5595TIP3    H138200   6.027   5.598   1.256  0.9266 -1.9618 -0.1290
 5595TIP3    H238201   6.030   5.566   1.108 -0.9273  0.7035 -0.8346
 5596TIP3   OH238202   0.275   1.553  14.835  0.6582 -0.2192 -0.2787
 5596TIP3    H138203   0.242   1.483  14.779 -0.5870 -2.6658  3.1872
 5596TIP3    H238204   0.358   1.519  14.870  0.0258 -0.0736  1.4780
 5597TIP3   OH238205   6.378   5.266   6.917  0.1596 -0.0086 -0.3249
 5597TIP3    H138206   6.362   5.327   6.845 -2.6709 -1.5596 -1.1884
 5597TIP3    H238207   6.328   5.303   6.990 -0.8978 -0.8319 -0.6140
 5598TIP3   OH238208   0.712   0.352  11.981  0.1657 -0.6337  0.4001
 5598TIP3    H138209   0.752   0.298  11.913 -1.7257 -2.0056  0.2833
 5598TIP3    H238210   0.685   0.431  11.935  1.9104 -0.0611  0.3123
 5599TIP3   OH238211   6.575   2.584  16.787  0.2251  1.1561 -0.7476
 5599TIP3    H138212   6.664   2.613  16.770 -0.0387  1.9194 -0.8893
 5599TIP3    H238213   6.535   2.657  16.836 -0.3524  0.8821 -0.8007
 5600TIP3   OH238214   4.093   0.424  12.378  0.1371 -0.5227  0.3444
 5600TIP3    H138215   4.150   0.370  12.434  0.8910  1.0778  1.1899
 5600TIP3    H238216   4.064   0.495  12.435 -0.2457  0.3695 -0.9185
 5601TIP3   OH238217   6.301   5.141   0.769 -0.2138 -0.2382 -0.4450
 5601TIP3    H138218   6.257   5.117   0.850 -0.5326  0.0680 -0.5279
 5601TIP3    H238219   6.259   5.088   0.701 -0.2787 -0.1344 -0.4855
 5602TIP3   OH238220   4.691   5.936   5.384 -0.3305 -0.9105  0.2935
 5602TIP3    H138221   4.615   5.983   5.348  0.0894  0.2893  0.9241
 5602TIP3    H238222   4.751   5.928   5.310 -0.7794 -1.2529 -0.0393
 5603TIP3   OH238223   5.021   2.107   3.219  0.2123  0.8172  0.0039
 5603TIP3    H138224   5.104   2.139   3.182  1.8477 -2.2100  0.7381
 5603TIP3    H238225   5.039   2.097   3.312 -0.7382 -0.5333  0.0695
 5604TIP3   OH238226   0.096   1.408   2.204  0.2190 -0.3607 -0.2101
 5604TIP3    H138227   0.158   1.352   2.250 -0.9989 -1.7368 -0.1331
 5604TIP3    H238228   0.127   1.409   2.113 -0.8760 -3.0913 -0.7381
 5605TIP3   OH238229   5.160   3.183  13.108  0.1032 -0.3905 -0.0748
 5605TIP3    H138230   5.215   3.148  13.038 -1.1026 -0.7397 -0.9007
 5605TIP3    H238231   5.152   3.276  13.089 -0.2294 -0.4861 -0.4373
 5606TIP3   OH238232   2.779   3.341   4.186  0.5831  0.2193  0.0924
 5606TIP3    H138233   2.773   3.299   4.100  0.8403  0.5077 -0.0676
 5606TIP3    H238234   2.778   3.267   4.248  4.5122 -0.3986 -0.3003
 5607TIP3   OH238235   0.561   3.394  12.525 -0.1539 -0.1776 -0.2497
 5607TIP3    H138236   0.621   3.426  12.458  1.7258 -0.1783  1.3475
 5607TIP3    H238237   0.615   3.387  12.604 -2.2131 -0.4470  1.2023
 5608TIP3   OH238238   3.129   2.022   0.798 -0.4877  0.9061 -0.1094
 5608TIP3    H138239   3.073   2.041   0.723  0.5161 -1.1128 -1.4532
 5608TIP3    H238240   3.079   2.052   0.874 -2.4588  1.0857 -1.4186
 5609TIP3   OH238241   4.666   3.677  14.342  0.1133 -0.0614  0.1461
 5609TIP3    H138242   4.579   3.699  14.307 -0.1264 -1.5204 -0.2259
 5609TIP3    H238243   4.673   3.728  14.423  0.2806  2.6564 -1.4667
 5610TIP3   OH238244   2.182   3.658  15.410 -0.9032 -0.2059 -0.8140
 5610TIP3    H138245   2.106   3.691  15.362 -1.1883  1.2945  0.5600
 5610TIP3    H238246   2.231   3.736  15.434  1.3360 -1.1597 -1.9818
 5611TIP3   OH238247   6.367   4.722   4.217  0.2401 -0.6252  0.6083
 5611TIP3    H138248   6.285   4.766   4.197  1.2360  0.3163 -1.8420
 5611TIP3    H238249   6.342   4.638   4.253 -1.7663  0.0608  0.9194
 5612TIP3   OH238250   1.566   4.776  14.565 -0.1275  0.0763  0.1374
 5612TIP3    H138251   1.641   4.801  14.618 -1.0114  3.1532  0.1307
 5612TIP3    H238252   1.578   4.822  14.482 -0.9274 -1.1903 -0.7250
 5613TIP3   OH238253   5.280   6.772  11.359 -0.2023  0.3665 -0.4185
 5613TIP3    H138254   5.325   6.703  11.309  0.4153  1.8009 -1.9348
 5613TIP3    H238255   5.214   6.806  11.299 -0.9703  0.6463  0.5585
 5614TIP3   OH238256   6.717   1.077   4.103  0.0109 -0.5222  0.6911
 5614TIP3    H138257   6.789   1.026   4.067  0.8545  0.3761  1.0763
 5614TIP3    H238258   6.687   1.131   4.030  0.7636  0.2356  0.9291
 5615TIP3   OH238259   2.190   4.136   1.810 -0.1948 -0.1450 -0.3200
 5615TIP3    H138260   2.162   4.078   1.740  0.2402  1.0641 -1.5259
 5615TIP3    H238261   2.170   4.087   1.891 -3.0053 -0.5803 -1.1612
 5616TIP3   OH238262   4.635   4.090   3.927 -0.4804  0.4966 -0.7689
 5616TIP3    H138263   4.635   4.119   3.836 -2.2062  0.9298 -0.6651
 5616TIP3    H238264   4.548   4.053   3.940 -0.2452  0.4148  0.6944
 5617TIP3   OH238265   1.970   1.898   0.530  0.3812  0.1227 -0.1307
 5617TIP3    H138266   1.934   1.825   0.480 -0.6583  1.7433 -1.8648
 5617TIP3    H238267   2.052   1.864   0.566  0.2014 -1.7094 -1.3336
 5618TIP3   OH238268   6.608   3.848   5.890 -0.3446  0.1876 -0.1190
 5618TIP3    H138269   6.578   3.939   5.890 -0.6825  0.0756  0.3051
 5618TIP3    H238270   6.588   3.816   5.977 -1.2830 -0.6339 -0.6165
 5619TIP3   OH238271   5.552   5.294   5.839  0.5032 -0.1743 -0.1218
 5619TIP3    H138272   5.545   5.351   5.915 -0.3915  0.9059 -0.9908
 5619TIP3    H238273   5.647   5.288   5.823  0.6319  0.9001  0.1304
 5620TIP3   OH238274   0.727   3.342  12.235  0.3890 -0.3589 -0.0989
 5620TIP3    H138275   0.786   3.274  12.268  0.4511 -0.0058  0.5386
 5620TIP3    H238276   0.780   3.391  12.172  0.5702 -0.4500 -0.0192
 5621TIP3   OH238277   3.314   3.895   0.829  0.4568  0.1009  0.1145
 5621TIP3    H138278   3.356   3.820   0.788  0.7092  1.1780 -1.6891
 5621TIP3    H238279   3.227   3.898   0.789 -0.2212 -0.2441  1.4905
 5622TIP3   OH238280   4.564   1.588  11.203  0.2316  0.1722 -0.5779
 5622TIP3    H138281   4.639   1.645  11.189 -0.3722  1.4897  1.1208
 5622TIP3    H238282   4.498   1.644  11.243 -1.5242 -1.0445 -1.5772
 5623TIP3   OH238283   2.986   5.667  12.376  0.2514  0.1771 -0.4847
 5623TIP3    H138284   3.006   5.661  12.469  0.3549 -0.0667 -0.5225
 5623TIP3    H238285   2.891   5.677  12.372  0.1026 -1.0424 -0.4007
 5624TIP3   OH238286   1.804   5.561   1.290  0.5994 -0.0883  0.4513
 5624TIP3    H138287   1.795   5.625   1.220 -1.9716  0.2596  1.0083
 5624TIP3    H238288   1.720   5.515   1.293  1.3058 -1.4236  2.0530
 5625TIP3   OH238289   3.699   3.477  14.062 -0.1466 -0.3309 -0.5530
 5625TIP3    H138290   3.608   3.494  14.088  0.2113 -0.0815  0.5582
 5625TIP3    H238291   3.727   3.405  14.118  0.8256  0.5954  0.1722
 5626TIP3   OH238292   1.373   5.343  10.550  0.5506 -1.1236  0.3544
 5626TIP3    H138293   1.356   5.396  10.628  0.8719  0.7672 -0.8119
 5626TIP3    H238294   1.321   5.264  10.563  1.0847 -1.1437  2.7536
 5627TIP3   OH238295   2.889   0.606   2.633 -0.0431 -0.4086  0.2757
 5627TIP3    H138296   2.957   0.564   2.687  0.3372 -1.0448 -0.6690
 5627TIP3    H238297   2.923   0.602   2.544 -1.7556 -1.7202 -0.3947
 5628TIP3   OH238298   3.862   6.325  15.315  0.3796  0.0308 -0.2144
 5628TIP3    H138299   3.956   6.333  15.300  0.1593 -0.7382 -2.3309
 5628TIP3    H238300   3.824   6.324  15.228 -1.5775 -0.0298  0.5947
 5629TIP3   OH238301   6.191   3.483  16.270 -1.0884 -0.1809 -0.1822
 5629TIP3    H138302   6.213   3.573  16.248 -2.7907  0.7970  1.7349
 5629TIP3    H238303   6.095   3.484  16.279 -1.0280 -1.8585  1.0999
 5630TIP3   OH238304   0.163   3.405  13.917  0.3136 -0.2903 -0.4209
 5630TIP3    H138305   0.232   3.377  13.977  1.2148  1.9085 -0.3204
 5630TIP3    H238306   0.207   3.462  13.854 -1.4926  1.9685  0.1970
 5631TIP3   OH238307   4.727   3.526   2.177 -0.6319 -0.1761  0.0047
 5631TIP3    H138308   4.710   3.452   2.236  0.8628  0.2804  1.0812
 5631TIP3    H238309   4.746   3.485   2.092  0.0299 -1.0427  0.5510
 5632TIP3   OH238310   5.431   6.569   4.155  0.0115  0.1749 -0.4707
 5632TIP3    H138311   5.518   6.574   4.114  0.0306  0.0649 -0.4440
 5632TIP3    H238312   5.433   6.488   4.205  0.2107  0.6392  0.2782
 5633TIP3   OH238313   3.033   1.824  14.607 -0.3420  0.2866 -0.1828
 5633TIP3    H138314   3.019   1.915  14.581  0.3924  0.3610 -0.3398
 5633TIP3    H238315   2.969   1.809  14.676  0.3895  1.3361  0.7617
 5634TIP3   OH238316   4.576   1.276   0.412 -0.2675 -0.1929 -0.2539
 5634TIP3    H138317   4.642   1.225   0.458 -1.0691 -0.2065  0.9188
 5634TIP3    H238318   4.626   1.329   0.350  0.6601 -1.6401 -0.7855
 5635TIP3   OH238319   3.838   0.343  13.098 -0.4985  0.1904  0.3997
 5635TIP3    H138320   3.859   0.316  13.188 -3.4755 -0.6201  0.9685
 5635TIP3    H238321   3.887   0.281  13.043 -0.1010 -0.5182  1.4999
 5636TIP3   OH238322   1.951   0.176  12.011 -0.4744 -0.0054  0.1571
 5636TIP3    H138323   1.980   0.088  11.985 -0.9763 -0.4073  0.9302
 5636TIP3    H238324   2.025   0.233  11.992  0.6353 -0.9235  1.6098
 5637TIP3   OH238325   1.180   6.376  12.859  0.2975  0.0905  0.1570
 5637TIP3    H138326   1.199   6.306  12.921  2.1917  2.3350  2.2969
 5637TIP3    H238327   1.259   6.383  12.805 -0.0546  0.3166 -0.3426
 5638TIP3   OH238328   6.627   2.175  15.649 -0.0857 -0.2459 -0.1138
 5638TIP3    H138329   6.695   2.194  15.713  0.5324  0.0673 -0.8435
 5638TIP3    H238330   6.545   2.192  15.695  0.1017 -3.7922  1.8774
 5639TIP3   OH238331   4.751   2.092  14.589 -0.0109  0.8768 -0.5248
 5639TIP3    H138332   4.718   2.152  14.656 -0.1858  2.2190 -1.7635
 5639TIP3    H238333   4.813   2.036  14.636  1.9062  3.4975  0.3249
 5640TIP3   OH238334   3.647   0.608   2.207 -0.1559 -0.8549  0.2062
 5640TIP3    H138335   3.595   0.685   2.184  0.4239 -0.8251 -1.0259
 5640TIP3    H238336   3.598   0.534   2.171  0.5995 -0.8308 -0.9222
 5641TIP3   OH238337   2.067   5.607  12.810  0.1686  0.0888  0.6920
 5641TIP3    H138338   1.988   5.560  12.781  0.7769 -0.9047  0.6074
 5641TIP3    H238339   2.139   5.557  12.772  0.9671 -0.6994  3.0850
 5642TIP3   OH238340   3.348   0.078   4.126 -0.3103 -0.5935  0.1782
 5642TIP3    H138341   3.359   0.169   4.096  1.1236 -0.5691  0.6973
 5642TIP3    H238342   3.411   0.028   4.075  1.7220 -0.6483  2.5706
 5643TIP3   OH238343   1.729   3.567   5.429  0.6806 -0.3555  0.4037
 5643TIP3    H138344   1.719   3.483   5.384 -3.2769 -0.1625  0.5877
 5643TIP3    H238345   1.680   3.556   5.510  0.0382  2.1014  0.4222
 5644TIP3   OH238346   4.161   0.775  12.421 -0.4201 -0.3653 -0.1920
 5644TIP3    H138347   4.112   0.764  12.339 -1.2935 -0.3559  0.3083
 5644TIP3    H238348   4.186   0.867  12.422 -0.5567 -0.3252 -0.3758
 5645TIP3   OH238349   0.098   0.630  13.295 -0.2769 -0.2154  0.2170
 5645TIP3    H138350   0.103   0.554  13.236  0.7990 -0.5491  0.7083
 5645TIP3    H238351   0.180   0.677  13.279 -1.6932  1.8809 -1.4029
 5646TIP3   OH238352   0.532   6.202  13.269 -0.8369 -0.2292 -0.2395
 5646TIP3    H138353   0.600   6.150  13.225 -2.2998 -0.3173 -2.6152
 5646TIP3    H238354   0.564   6.213  13.358  0.8177 -2.9062 -0.3725
 5647TIP3   OH238355   4.861   2.148   4.203 -0.2369 -0.1369  0.0944
 5647TIP3    H138356   4.920   2.086   4.161 -1.1328 -0.8078 -0.2061
 5647TIP3    H238357   4.919   2.211   4.246  0.7534  1.1677 -2.9030
 5648TIP3   OH238358   5.937   6.117  12.715  0.1162  0.4340  0.4168
 5648TIP3    H138359   5.842   6.116  12.725  0.0290  0.6060 -0.3077
 5648TIP3    H238360   5.955   6.198  12.668  0.7216  0.8716  1.3787
 5649TIP3   OH238361   5.247   5.703  12.729  0.1918  0.5752 -0.3146
 5649TIP3    H138362   5.247   5.785  12.680  0.2546  1.4258  1.0536
 5649TIP3    H238363   5.154   5.680  12.738  0.1980  0.1459 -1.2279
 5650TIP3   OH238364   1.250   2.774   2.873 -0.5902  0.0708 -0.2223
 5650TIP3    H138365   1.306   2.818   2.938 -0.7426 -0.5329  0.3283
 5650TIP3    H238366   1.306   2.764   2.796  0.3215 -1.2086  0.5806
 5651TIP3   OH238367   4.563   2.396  17.206  0.0826  0.0350 -0.6785
 5651TIP3    H138368   4.551   2.307  17.239  0.4406 -0.4418 -1.7803
 5651TIP3    H238369   4.649   2.423  17.238 -0.5993  0.5231  0.8015
 5652TIP3   OH238370   6.106   4.387  16.670 -0.0336  1.1850 -0.2081
 5652TIP3    H138371   6.193   4.410  16.638  1.0098 -2.3721 -0.3693
 5652TIP3    H238372   6.119   4.373  16.764  0.4452 -2.0813 -0.6146
 5653TIP3   OH238373   0.711   3.742   6.601  0.4078 -0.0663 -0.1264
 5653TIP3    H138374   0.728   3.813   6.539  0.5006  0.1041  0.0908
 5653TIP3    H238375   0.620   3.718   6.586 -0.0088  0.9318  0.6234
 5654TIP3   OH238376   0.220   5.449   4.676 -0.4431  0.2166  0.1489
 5654TIP3    H138377   0.297   5.499   4.704 -0.5962  1.7166 -1.9010
 5654TIP3    H238378   0.251   5.358   4.671  1.1259  0.7401 -0.3288
 5655TIP3   OH238379   4.496   1.407  15.059 -0.3011  0.1766  0.1883
 5655TIP3    H138380   4.426   1.342  15.056 -0.1149 -0.0639  0.8967
 5655TIP3    H238381   4.576   1.356  15.071  0.0436  0.4318 -0.8657
 5656TIP3   OH238382   6.310   5.591   1.362  0.1037 -0.0730 -0.0482
 5656TIP3    H138383   6.230   5.639   1.339 -1.1404 -2.4940 -1.0575
 5656TIP3    H238384   6.297   5.567   1.453 -0.4873 -0.7358 -0.3004
 5657TIP3   OH238385   6.146   0.871  12.196 -0.3542  0.3617  0.4371
 5657TIP3    H138386   6.151   0.846  12.104 -0.7871  0.5263  0.3670
 5657TIP3    H238387   6.238   0.878  12.224 -0.2185  0.4925 -0.0304
 5658TIP3   OH238388   5.785   0.129   6.226 -0.0406  0.8652  0.0822
 5658TIP3    H138389   5.735   0.111   6.147 -0.0916  1.3026  0.0112
 5658TIP3    H238390   5.791   0.225   6.230  0.2518  0.8381  0.4238
 5659TIP3   OH238391   2.573   3.666  15.898 -0.4595 -0.1858 -0.0234
 5659TIP3    H138392   2.502   3.644  15.838  0.7090 -1.5862 -0.9810
 5659TIP3    H238393   2.647   3.686  15.842  0.3750 -0.4779  0.9319
 5660TIP3   OH238394   3.870   2.547   0.225 -0.2086  0.0364  0.6744
 5660TIP3    H138395   3.898   2.608   0.156  0.7267 -2.4531 -1.3030
 5660TIP3    H238396   3.840   2.469   0.177 -0.6478 -1.3787  3.0869
 5661TIP3   OH238397   3.153   5.236   5.219 -0.0014  0.3346  0.0710
 5661TIP3    H138398   3.209   5.281   5.282 -0.6733  1.7115 -0.2774
 5661TIP3    H238399   3.143   5.298   5.147 -1.2708 -0.2104 -0.2537
 5662TIP3   OH238400   3.316   0.474  14.134 -0.3503  0.0104 -0.3728
 5662TIP3    H138401   3.274   0.388  14.128 -0.4536 -0.0914  1.2887
 5662TIP3    H238402   3.265   0.520  14.201  0.1169  1.1221 -0.7663
 5663TIP3   OH238403   0.673   5.649   2.446  0.2995 -0.2891 -0.6180
 5663TIP3    H138404   0.642   5.667   2.358 -4.4282 -2.3384  0.3177
 5663TIP3    H238405   0.735   5.576   2.436  1.5420  0.9028 -2.2715
 5664TIP3   OH238406   1.892   6.327  11.783 -0.3116 -0.0288 -0.3178
 5664TIP3    H138407   1.923   6.350  11.871 -0.4775  1.3317 -0.5877
 5664TIP3    H238408   1.805   6.290  11.798 -0.6017  0.7702  0.0602
 5665TIP3   OH238409   2.746   6.617  12.409 -0.1361 -0.2567  0.5941
 5665TIP3    H138410   2.761   6.540  12.354 -1.6899 -1.0081  1.1531
 5665TIP3    H238411   2.813   6.679  12.382 -1.3009 -0.2645 -2.7901
 5666TIP3   OH238412   2.697   4.907  13.457 -0.3748  0.4064  0.8254
 5666TIP3    H138413   2.613   4.864  13.476  0.7937 -1.7569  1.4083
 5666TIP3    H238414   2.762   4.838  13.466  1.5700  2.1570  0.9637
 5667TIP3   OH238415   0.223   1.741   1.466 -0.0952  0.1768 -0.4747
 5667TIP3    H138416   0.286   1.803   1.503 -0.6815  0.2629  0.4001
 5667TIP3    H238417   0.260   1.655   1.488  0.0508  0.2246 -0.5326
 5668TIP3   OH238418   5.850   3.724   2.621 -0.4648 -0.1547 -0.4617
 5668TIP3    H138419   5.885   3.813   2.616  1.6693 -1.0220 -2.4515
 5668TIP3    H238420   5.883   3.690   2.704 -0.7819  0.6571  0.0130
 5669TIP3   OH238421   2.239   1.109   1.549  0.4388 -0.5424  0.1991
 5669TIP3    H138422   2.326   1.085   1.580  0.8477 -1.3054 -1.4136
 5669TIP3    H238423   2.185   1.113   1.628  2.0249  0.4460  1.2887
 5670TIP3   OH238424   0.400   1.203  12.877 -0.7023  0.1958 -0.3635
 5670TIP3    H138425   0.419   1.117  12.843  0.4392  0.3995 -0.2610
 5670TIP3    H238426   0.419   1.197  12.971  0.9415  0.9739 -0.6128
 5671TIP3   OH238427   1.714   4.595  17.073 -0.1072 -0.2917  0.7490
 5671TIP3    H138428   1.741   4.533  17.005  2.0130  1.0787  0.2388
 5671TIP3    H238429   1.618   4.594  17.069 -0.0769 -1.0110 -1.5768
 5672TIP3   OH238430   4.293   2.510   1.851  0.1502  0.3708  0.3338
 5672TIP3    H138431   4.277   2.422   1.885 -1.0020  0.8134  1.0053
 5672TIP3    H238432   4.242   2.513   1.770 -0.3205  0.6118  0.6330
 5673TIP3   OH238433   3.162   2.717   3.471 -0.5885 -0.5092 -0.5250
 5673TIP3    H138434   3.138   2.763   3.551  0.5236 -0.6563 -0.0929
 5673TIP3    H238435   3.220   2.647   3.500  0.4047 -0.1264 -1.5255
 5674TIP3   OH238436   4.592   2.024  11.622  0.0804 -0.0192 -0.2005
 5674TIP3    H138437   4.526   1.997  11.557  1.1295  0.1342 -1.3577
 5674TIP3    H238438   4.626   2.107  11.589 -0.0499  0.5689  1.0811
 5675TIP3   OH238439   2.724   6.462   2.321 -0.1013  0.1670  0.8441
 5675TIP3    H138440   2.651   6.523   2.325 -0.2378  0.2536 -1.4733
 5675TIP3    H238441   2.695   6.393   2.261  1.9634  0.6179 -0.7890
 5676TIP3   OH238442   1.809   6.548  15.753  0.1145 -0.1375  0.0075
 5676TIP3    H138443   1.830   6.639  15.775 -0.1086 -0.2901  0.9160
 5676TIP3    H238444   1.890   6.513  15.716  0.2253  0.4118 -0.2747
 5677TIP3   OH238445   1.541   6.436   1.325 -0.4990  1.0961  0.2873
 5677TIP3    H138446   1.472   6.397   1.379 -0.2531 -0.0763 -0.2146
 5677TIP3    H238447   1.503   6.439   1.237  0.0789  0.4214  0.0022
 5678TIP3   OH238448   5.802   1.227  12.191 -0.0652 -0.2756  0.1680
 5678TIP3    H138449   5.710   1.210  12.210 -1.4475 -1.1218 -5.4756
 5678TIP3    H238450   5.805   1.318  12.161  0.6939 -0.5213 -0.5653
 5679TIP3   OH238451   2.305   0.108   4.962  0.3047 -0.3132 -0.1400
 5679TIP3    H138452   2.391   0.066   4.963 -0.2822 -1.5974 -1.3467
 5679TIP3    H238453   2.282   0.116   5.055  0.7406 -2.0541  0.1428
 5680TIP3   OH238454   4.692   3.636   0.951 -0.5252  0.0507 -0.2726
 5680TIP3    H138455   4.673   3.691   0.875  0.3149  0.1939 -0.3794
 5680TIP3    H238456   4.766   3.582   0.924 -0.8433 -0.5872  0.1074
 5681TIP3   OH238457   0.384   5.814   3.134  0.1927 -0.6574 -0.0158
 5681TIP3    H138458   0.319   5.883   3.146  0.9738  0.1323 -0.1862
 5681TIP3    H238459   0.362   5.774   3.051 -1.0081 -1.4477  0.6621
 5682TIP3   OH238460   5.814   0.405   1.112 -1.1946  0.0597 -0.0281
 5682TIP3    H138461   5.751   0.471   1.143 -1.7755 -1.6518  2.8362
 5682TIP3    H238462   5.886   0.456   1.076 -2.3168  2.2221  0.5849
 5683TIP3   OH238463   0.466   0.196   3.676 -0.5893  0.2613 -0.4675
 5683TIP3    H138464   0.560   0.214   3.667 -0.4702 -0.6545 -1.1636
 5683TIP3    H238465   0.461   0.125   3.739 -0.7757 -0.0953 -0.8833
 5684TIP3   OH238466   1.364   0.955   2.071  0.4238  0.2782  0.1088
 5684TIP3    H138467   1.435   0.918   2.124 -0.8729  0.4174  2.0806
 5684TIP3    H238468   1.305   0.881   2.057 -0.7960  0.8848  1.6638
 5685TIP3   OH238469   6.468   6.457  11.672 -0.1342 -0.7960  0.0106
 5685TIP3    H138470   6.456   6.509  11.751  2.4920  1.1719 -0.7468
 5685TIP3    H238471   6.409   6.497  11.608  0.8700  0.4415 -0.1784
 5686TIP3   OH238472   1.735   3.841  12.064 -0.2062 -0.1096 -0.6061
 5686TIP3    H138473   1.655   3.791  12.077 -0.7947  0.7890 -0.6394
 5686TIP3    H238474   1.776   3.846  12.150 -0.5176 -0.0303 -0.4633
 5687TIP3   OH238475   5.023   4.447  14.102 -0.1164  0.3247  0.1689
 5687TIP3    H138476   5.111   4.485  14.106  0.2710 -0.4531 -0.5642
 5687TIP3    H238477   5.000   4.448  14.010 -0.1649 -0.9970  0.1376
 5688TIP3   OH238478   1.181   6.202  11.527 -0.1251 -0.1755 -0.2138
 5688TIP3    H138479   1.142   6.239  11.448 -0.1891 -1.9008 -1.0506
 5688TIP3    H238480   1.151   6.111  11.528  0.7349 -0.4782  1.2439
 5689TIP3   OH238481   3.937   4.606  12.519  0.5975 -0.2691  0.1465
 5689TIP3    H138482   3.906   4.602  12.609  0.0754 -2.3683 -0.0848
 5689TIP3    H238483   4.032   4.613  12.526  0.7815 -2.6506  0.9269
 5690TIP3   OH238484   4.428   4.607  14.085 -0.2458 -0.0572 -0.2239
 5690TIP3    H138485   4.522   4.604  14.104  0.2351  1.2577 -2.1274
 5690TIP3    H238486   4.413   4.695  14.050 -2.6231  0.5295  1.8910
 5691TIP3   OH238487   5.231   0.648   3.717 -0.5163 -0.0397 -0.0868
 5691TIP3    H138488   5.255   0.740   3.731  0.0780 -0.2819  0.4859
 5691TIP3    H238489   5.137   0.651   3.699 -0.8447  0.5312  1.5500
 5692TIP3   OH238490   3.574   6.373   6.539  0.5028  0.0594  0.4928
 5692TIP3    H138491   3.549   6.284   6.511  0.1610  0.2433  0.1940
 5692TIP3    H238492   3.586   6.366   6.633  1.6165 -0.5627  0.3107
 5693TIP3   OH238493   1.232   4.958   5.267  0.1931 -0.0609  0.3747
 5693TIP3    H138494   1.208   4.984   5.178 -0.5042  2.4261  1.2164
 5693TIP3    H238495   1.222   5.038   5.319  1.4329 -1.2211  2.5409
 5694TIP3   OH238496   6.528   1.122   3.240 -0.1275 -0.1947 -0.2766
 5694TIP3    H138497   6.463   1.170   3.291 -0.6063  1.2088 -2.1129
 5694TIP3    H238498   6.569   1.062   3.303 -1.1394  0.9814  1.5694
 5695TIP3   OH238499   3.206   0.163   2.143  0.0489 -0.4016 -0.2760
 5695TIP3    H138500   3.263   0.166   2.220  0.8706 -2.2142 -0.7493
 5695TIP3    H238501   3.230   0.082   2.099 -1.6689 -0.3144 -1.4823
 5696TIP3   OH238502   3.031   2.613  11.327  0.4369  0.1813  0.1344
 5696TIP3    H138503   3.090   2.540  11.347  0.4589  0.2880  0.4644
 5696TIP3    H238504   3.069   2.687  11.373  0.2336  0.3285  0.0640
 5697TIP3   OH238505   6.141   6.279   2.824 -0.4733  0.0281 -0.2267
 5697TIP3    H138506   6.164   6.354   2.770  0.9681 -0.5550 -0.4948
 5697TIP3    H238507   6.140   6.205   2.763  0.0404 -0.4560  0.3407
 5698TIP3   OH238508   4.396   1.285  12.248 -0.4848  0.1520  0.5500
 5698TIP3    H138509   4.359   1.208  12.204  1.5892 -0.1798 -0.7730
 5698TIP3    H238510   4.335   1.356  12.227 -1.7339 -0.8395  0.6732
 5699TIP3   OH238511   4.948   5.509   4.949  0.4310  0.0937 -0.1785
 5699TIP3    H138512   4.964   5.591   4.903  1.3130  0.9400  1.5295
 5699TIP3    H238513   5.031   5.462   4.944  0.3798 -0.0293  0.1055
 5700TIP3   OH238514   1.264   4.343   0.082 -0.1320 -0.0607  0.1874
 5700TIP3    H138515   1.283   4.433   0.108  1.4923 -0.3020 -0.0589
 5700TIP3    H238516   1.190   4.317   0.137 -1.8994  2.0379 -1.0899
 5701TIP3   OH238517   6.553   0.732   0.875 -0.3851  0.1124 -0.3792
 5701TIP3    H138518   6.620   0.793   0.908  1.1664 -1.1101 -1.1097
 5701TIP3    H238519   6.580   0.715   0.785 -2.3245  0.3978 -1.0467
 5702TIP3   OH238520   2.913   2.362  11.712  0.4188  0.3295  0.1835
 5702TIP3    H138521   2.936   2.319  11.630 -0.5930 -1.0830  0.5826
 5702TIP3    H238522   2.971   2.322  11.777  1.5804  1.8177  0.1071
 5703TIP3   OH238523   0.219   0.999   4.363  0.5363 -0.2929 -0.2155
 5703TIP3    H138524   0.270   0.972   4.286  0.4242 -0.7392 -0.1325
 5703TIP3    H238525   0.270   1.071   4.401  0.4128  0.1657 -0.9074
 5704TIP3   OH238526   4.469   5.964   2.819 -1.2595  0.0209  0.3339
 5704TIP3    H138527   4.513   5.986   2.901 -0.1622 -3.7840  0.9653
 5704TIP3    H238528   4.377   5.956   2.842 -1.2609  0.9966  0.6945
 5705TIP3   OH238529   3.156   5.213  14.704 -0.2937 -0.0666  0.1153
 5705TIP3    H138530   3.092   5.229  14.773  0.7157 -0.6104  1.2005
 5705TIP3    H238531   3.187   5.300  14.680 -2.1073  0.2990 -1.1242
 5706TIP3   OH238532   6.334   5.740  11.661  0.3599 -0.1153 -0.1274
 5706TIP3    H138533   6.343   5.805  11.591  1.4234 -0.6984 -0.5549
 5706TIP3    H238534   6.289   5.787  11.732  1.3680  1.1702 -0.3111
 5707TIP3   OH238535   3.615   3.580   5.986 -0.5275 -0.1212  0.5999
 5707TIP3    H138536   3.587   3.493   6.015  2.0627 -1.5151 -0.6999
 5707TIP3    H238537   3.677   3.563   5.915 -0.0073  2.8079  0.2063
 5708TIP3   OH238538   2.876   6.249  15.189 -0.2161 -0.0669 -0.2886
 5708TIP3    H138539   2.965   6.263  15.220 -0.2678 -0.3816  0.0080
 5708TIP3    H238540   2.886   6.203  15.106 -0.1083 -0.3509 -0.1195
 5709TIP3   OH238541   1.041   4.556   1.801 -0.3735  0.3983 -0.2160
 5709TIP3    H138542   1.018   4.643   1.835  0.1184  0.2274  0.5871
 5709TIP3    H238543   1.081   4.511   1.875  1.3368  0.2381 -1.1633
 5710TIP3   OH238544   1.737   5.053   2.636  0.4987 -0.0939 -0.2355
 5710TIP3    H138545   1.705   5.059   2.546  1.0165  1.2912 -0.3436
 5710TIP3    H238546   1.815   5.108   2.638  1.5767 -1.5819  0.6087
 5711TIP3   OH238547   4.957   2.809  16.336 -0.2452 -0.5758  0.2345
 5711TIP3    H138548   4.924   2.832  16.423  0.6034 -0.3702  0.5040
 5711TIP3    H238549   4.961   2.892  16.289 -0.6044 -0.6731  0.0291
 5712TIP3   OH238550   3.883   6.771  13.850 -0.5450  0.4415 -0.5445
 5712TIP3    H138551   3.815   6.836  13.870 -0.0877  0.7985 -0.1192
 5712TIP3    H238552   3.954   6.792  13.911  0.9433  1.5870 -2.5729
 5713TIP3   OH238553   6.134   1.940  16.188  0.1805  0.1699 -0.0646
 5713TIP3    H138554   6.065   2.006  16.181 -0.0559 -0.1542 -0.9890
 5713TIP3    H238555   6.096   1.862  16.149 -0.1487 -1.0598  2.5280
 5714TIP3   OH238556   3.816   5.732   4.813  0.0407 -0.5758  0.0587
 5714TIP3    H138557   3.881   5.730   4.743 -0.6176  2.0944 -0.7674
 5714TIP3    H238558   3.732   5.732   4.768 -0.4609 -0.8752  0.9700
 5715TIP3   OH238559   3.812   5.224   2.344  0.6752  0.2637  0.1618
 5715TIP3    H138560   3.768   5.225   2.258 -0.2706 -0.5429  0.6155
 5715TIP3    H238561   3.757   5.279   2.399  0.4096 -0.4743  0.6467
 5716TIP3   OH238562   0.544   6.084   0.416  0.3953  0.4383 -0.0237
 5716TIP3    H138563   0.531   6.031   0.337  1.5525  1.7131 -1.1101
 5716TIP3    H238564   0.471   6.146   0.415  0.1135  0.1122  0.2016
 5717TIP3   OH238565   3.467   5.500  13.200  0.2814  0.2750 -0.0680
 5717TIP3    H138566   3.499   5.459  13.280  1.8521  0.0229 -0.7855
 5717TIP3    H238567   3.519   5.580  13.191 -0.7496  0.9535 -0.2050
 5718TIP3   OH238568   0.727   1.142   1.973 -0.3267  0.8017 -0.7048
 5718TIP3    H138569   0.806   1.132   1.920 -0.9471 -0.6660 -1.4038
 5718TIP3    H238570   0.665   1.080   1.935 -0.4698 -1.1639  2.3732
 5719TIP3   OH238571   2.772   6.704   6.099 -0.2364  0.1345 -0.0832
 5719TIP3    H138572   2.781   6.619   6.141 -4.1895 -0.6051 -0.3356
 5719TIP3    H238573   2.777   6.767   6.171  1.6065 -0.3520  0.2499
 5720TIP3   OH238574   0.844   3.791   3.027 -0.9032 -0.0580 -0.1643
 5720TIP3    H138575   0.924   3.769   2.979  0.2234  1.7111  0.7828
 5720TIP3    H238576   0.845   3.733   3.103 -0.8531 -0.4656 -0.4741
 5721TIP3   OH238577   1.758   3.676  11.004 -0.6819 -0.2441  0.0150
 5721TIP3    H138578   1.718   3.593  10.977 -0.4257 -0.3512 -0.0329
 5721TIP3    H238579   1.733   3.686  11.096  1.2783 -1.5636  0.7423
 5722TIP3   OH238580   1.519   5.677  11.854  0.1915  0.6214 -0.0691
 5722TIP3    H138581   1.606   5.653  11.886  0.6527  1.0885 -0.9163
 5722TIP3    H238582   1.536   5.721  11.770 -0.8063  1.3706  0.1038
 5723TIP3   OH238583   5.480   1.430  13.896 -0.0896  0.2185  0.4601
 5723TIP3    H138584   5.461   1.395  13.983  1.0157 -0.6244  0.3883
 5723TIP3    H238585   5.504   1.521  13.912 -0.5704  0.2644  0.9567
 5724TIP3   OH238586   0.914   4.763   2.369  0.3178  0.3098  0.0096
 5724TIP3    H138587   0.967   4.832   2.409  0.8769  0.3642 -0.8148
 5724TIP3    H238588   0.967   4.684   2.378  1.0594  0.5607 -1.7957
 5725TIP3   OH238589   1.359   1.209   4.767  0.5020 -0.2473 -1.1393
 5725TIP3    H138590   1.379   1.237   4.856 -0.5858  1.0658 -1.2740
 5725TIP3    H238591   1.443   1.212   4.721  0.8977 -0.0007 -0.4088
 5726TIP3   OH238592   1.318   3.641   4.192 -0.6281  0.0348  0.4015
 5726TIP3    H138593   1.294   3.591   4.114 -1.2529 -1.5247  1.5566
 5726TIP3    H238594   1.268   3.723   4.185 -0.8915 -0.2040 -0.6749
 5727TIP3   OH238595   5.987   3.692  14.231 -0.1365 -0.4674 -0.5579
 5727TIP3    H138596   5.920   3.674  14.165 -0.2139 -1.4051 -0.2295
 5727TIP3    H238597   6.068   3.658  14.193 -0.4392 -2.4458  0.4443
 5728TIP3   OH238598   6.670   4.766   3.032 -0.2809  0.6405  0.0990
 5728TIP3    H138599   6.612   4.698   3.000 -0.3472  0.3680  0.7846
 5728TIP3    H238600   6.755   4.723   3.042  0.0039  0.9862 -0.7080
 5729TIP3   OH238601   5.702   6.373   0.432 -0.4856  0.4467  0.0463
 5729TIP3    H138602   5.755   6.297   0.456  0.0616 -0.0821 -2.5246
 5729TIP3    H238603   5.617   6.357   0.474  0.0485 -0.8899  0.6813
 5730TIP3   OH238604   1.997   6.057  10.940 -0.4359  0.2698  0.0229
 5730TIP3    H138605   2.072   6.010  10.903 -3.0833 -2.3376 -2.5397
 5730TIP3    H238606   2.005   6.146  10.906  0.2540 -0.5991 -2.2944
 5731TIP3   OH238607   2.592   3.997  17.004  0.3214  0.0926 -0.0850
 5731TIP3    H138608   2.589   4.028  16.913  0.8776 -0.4377 -0.2924
 5731TIP3    H238609   2.560   3.907  16.999  1.7068 -0.4295  0.0062
 5732TIP3   OH238610   2.599   1.038   1.938  0.0451 -0.6407 -0.0007
 5732TIP3    H138611   2.685   1.040   1.896  0.4739 -0.0841  0.8637
 5732TIP3    H238612   2.619   1.022   2.031 -0.6445  1.2188  0.5084
 5733TIP3   OH238613   5.793   0.759   2.604 -0.3573  0.2878 -0.2369
 5733TIP3    H138614   5.881   0.795   2.615  0.1786 -1.1034  0.1778
 5733TIP3    H238615   5.797   0.710   2.522 -0.9210  0.6693 -0.5018
 5734TIP3   OH238616   2.672   3.849   5.978 -0.2388 -0.7609 -0.2753
 5734TIP3    H138617   2.656   3.939   5.948 -0.4690 -1.1384 -1.3603
 5734TIP3    H238618   2.671   3.855   6.073 -2.9061 -0.0331 -0.2634
 5735TIP3   OH238619   3.531   4.460  12.860 -0.2194 -0.1376 -0.2097
 5735TIP3    H138620   3.439   4.447  12.884 -0.3311 -0.1757 -0.6428
 5735TIP3    H238621   3.579   4.450  12.942 -0.7011  1.0719  0.2358
 5736TIP3   OH238622   0.874   3.927  12.651  0.2598  0.2857 -0.3757
 5736TIP3    H138623   0.891   4.002  12.594  1.0589 -0.1253 -0.6873
 5736TIP3    H238624   0.865   3.964  12.738  0.0604  0.8049 -0.6120
 5737TIP3   OH238625   3.570   5.922   1.234  0.3318  0.6759  0.2721
 5737TIP3    H138626   3.555   5.936   1.141 -0.6311 -0.2421  0.2552
 5737TIP3    H238627   3.613   5.836   1.239  2.2267  1.6030  0.5772
 5738TIP3   OH238628   1.287   0.518  13.684 -0.3317 -0.8263  0.1478
 5738TIP3    H138629   1.258   0.557  13.766 -0.5238  0.8240 -0.6513
 5738TIP3    H238630   1.371   0.477  13.704 -0.2811 -0.2662  1.1189
 5739TIP3   OH238631   5.401   3.994  11.980  0.3564  0.4725  0.1441
 5739TIP3    H138632   5.402   4.038  11.895 -0.4031  1.8887  0.8419
 5739TIP3    H238633   5.314   3.953  11.985 -0.2775  1.8446  0.9230
 5740TIP3   OH238634   1.430   2.664   4.485  0.0977 -0.5214 -0.0083
 5740TIP3    H138635   1.407   2.747   4.527 -1.6446 -1.8147  1.7999
 5740TIP3    H238636   1.501   2.686   4.425 -2.8272  3.0289 -2.6382
 5741TIP3   OH238637   0.271   2.025   5.186 -0.3007  0.2270 -0.1398
 5741TIP3    H138638   0.269   1.931   5.200  0.9926  0.1790 -0.1614
 5741TIP3    H238639   0.338   2.057   5.246 -0.3169  1.0493 -0.5430
 5742TIP3   OH238640   6.136   4.751   1.480  0.2974  0.0794 -0.1169
 5742TIP3    H138641   6.223   4.734   1.444  0.3165  0.2327 -0.1472
 5742TIP3    H238642   6.094   4.666   1.484  0.8303 -0.1465  0.8870
 5743TIP3   OH238643   3.930   4.709   5.570  0.4420  0.2698 -0.3591
 5743TIP3    H138644   3.840   4.742   5.571  0.0545 -0.6840 -1.3909
 5743TIP3    H238645   3.984   4.787   5.553 -0.2852  0.6848 -0.8091
 5744TIP3   OH238646   4.618   6.309  11.597 -0.1337  0.5354 -0.2528
 5744TIP3    H138647   4.677   6.340  11.528  0.4667  1.9710  0.8645
 5744TIP3    H238648   4.540   6.365  11.587  1.0881  2.8142  1.9922
 5745TIP3   OH238649   6.418   1.352  10.542 -0.0243  0.3885  0.9738
 5745TIP3    H138650   6.351   1.408  10.580 -0.3045 -0.1394  1.2698
 5745TIP3    H238651   6.468   1.410  10.485 -1.6808  0.4619 -0.4774
 5746TIP3   OH238652   3.812   6.281   2.694 -0.4291 -0.1383  0.7385
 5746TIP3    H138653   3.893   6.240   2.723  0.2975  0.5256 -0.3127
 5746TIP3    H238654   3.750   6.208   2.687  0.7488 -1.0341 -0.7610
 5747TIP3   OH238655   2.264   3.401   0.278 -0.7336  0.4656  0.4016
 5747TIP3    H138656   2.244   3.482   0.231 -1.2247  0.0527 -0.1151
 5747TIP3    H238657   2.356   3.410   0.302  0.3088 -0.3558 -2.8162
 5748TIP3   OH238658   4.162   0.482   0.161 -0.3281 -0.1565  0.1917
 5748TIP3    H138659   4.098   0.411   0.156 -1.6468  0.8155  2.1315
 5748TIP3    H238660   4.188   0.497   0.070 -1.3360 -1.9087 -0.4448
 5749TIP3   OH238661   1.842   0.764  13.501  0.8429  0.5727 -0.5272
 5749TIP3    H138662   1.816   0.761  13.409  0.2845  2.8045 -0.4799
 5749TIP3    H238663   1.885   0.849  13.511  1.6706 -0.0059  1.0957
 5750TIP3   OH238664   2.513   3.699   6.201 -0.1830  0.1753  0.1844
 5750TIP3    H138665   2.521   3.636   6.272  1.0782  0.1968  0.0822
 5750TIP3    H238666   2.587   3.758   6.213 -1.0150  1.3053 -0.0646
 5751TIP3   OH238667   6.086   2.628   4.127  0.0533  0.2095 -0.4432
 5751TIP3    H138668   6.007   2.575   4.134 -0.9880  1.7095 -0.4277
 5751TIP3    H238669   6.079   2.670   4.041  1.0816  0.0052 -0.6428
 5752TIP3   OH238670   0.528   0.008   5.598  0.0024 -0.6392 -0.4498
 5752TIP3    H138671   0.590   0.058   5.651 -1.7151 -0.2491  1.3156
 5752TIP3    H238672   0.470   0.074   5.560 -1.4855 -1.1478  0.8460
 5753TIP3   OH238673   3.863   0.720  16.884 -0.3210 -0.1662  0.2620
 5753TIP3    H138674   3.909   0.785  16.831  1.2449 -0.7103  0.9209
 5753TIP3    H238675   3.883   0.636  16.843 -0.1938 -0.4673  0.9271
 5754TIP3   OH238676   5.012   1.966  13.319 -0.3326 -0.1813  0.2031
 5754TIP3    H138677   5.030   2.056  13.346 -0.1025 -0.6551  1.7447
 5754TIP3    H238678   4.920   1.951  13.344 -0.2258 -0.5166  0.4068
 5755TIP3   OH238679   0.981   3.744   2.102  0.5383 -0.2343  0.3772
 5755TIP3    H138680   0.952   3.831   2.131  0.5853 -0.0917 -0.0058
 5755TIP3    H238681   0.910   3.711   2.048  1.1811  0.2264 -0.7875
 5756TIP3   OH238682   3.336   1.647   1.364  0.3567  0.2534 -0.4038
 5756TIP3    H138683   3.401   1.592   1.407  0.8191  0.2753 -1.0496
 5756TIP3    H238684   3.374   1.735   1.365  0.4294  0.2338 -0.9433
 5757TIP3   OH238685   0.833   0.869   2.883 -0.0025 -0.1660  0.1281
 5757TIP3    H138686   0.826   0.789   2.935  1.6097  0.3752  1.2461
 5757TIP3    H238687   0.746   0.880   2.846 -0.0566 -2.9052 -0.8109
 5758TIP3   OH238688   0.388   1.150   2.827 -0.0650 -0.0931  0.3282
 5758TIP3    H138689   0.323   1.107   2.882  0.6331  1.0114  2.1178
 5758TIP3    H238690   0.472   1.124   2.865  0.5312 -0.5800 -1.2373
 5759TIP3   OH238691   4.538   6.277  15.888 -0.2523  0.0985 -0.2065
 5759TIP3    H138692   4.535   6.232  15.972 -2.5158 -0.0689 -0.3396
 5759TIP3    H238693   4.628   6.261  15.856 -0.1934 -2.1977  0.8873
 5760TIP3   OH238694   1.781   4.803  13.972  0.3435  0.3647 -0.4811
 5760TIP3    H138695   1.720   4.795  14.045 -1.5752 -1.0463 -2.1241
 5760TIP3    H238696   1.867   4.789  14.011 -0.5697  0.0367  1.5390
 5761TIP3   OH238697   0.512   0.269   2.145 -0.5815  0.2242 -0.1191
 5761TIP3    H138698   0.498   0.330   2.217 -0.0386  1.4859 -1.0458
 5761TIP3    H238699   0.483   0.184   2.179  1.5098  0.3580  2.2807
 5762TIP3   OH238700   0.786   1.021   5.843  0.1704  0.1316 -0.1194
 5762TIP3    H138701   0.696   1.053   5.852 -0.5315 -1.6520 -0.4486
 5762TIP3    H238702   0.830   1.048   5.924 -0.9418  0.1333  0.4993
 5763TIP3   OH238703   3.692   2.756  16.316  0.0526  0.1364  0.9691
 5763TIP3    H138704   3.777   2.735  16.355 -0.6029 -1.2811  1.6937
 5763TIP3    H238705   3.703   2.845  16.283  1.5798  0.2614  1.7049
 5764TIP3   OH238706   3.148   4.755   4.351  0.7852 -0.3022 -0.1640
 5764TIP3    H138707   3.217   4.723   4.293  0.3290 -0.6858 -0.5020
 5764TIP3    H238708   3.139   4.688   4.418 -1.3303 -1.7929 -1.8015
 5765TIP3   OH238709   4.199   2.421   5.710  0.1055 -0.6497  0.3310
 5765TIP3    H138710   4.200   2.516   5.723  1.1481 -0.2285 -2.1813
 5765TIP3    H238711   4.107   2.398   5.702 -0.2051 -0.0309  1.8705
 5766TIP3   OH238712   4.990   0.950  13.926  0.2287 -0.2070 -0.3373
 5766TIP3    H138713   4.895   0.948  13.916 -0.1200 -0.6428  2.2117
 5766TIP3    H238714   5.011   1.043  13.936 -0.1855 -0.2131  0.7066
 5767TIP3   OH238715   2.476   4.582   2.584 -0.3598 -0.2886  0.3772
 5767TIP3    H138716   2.569   4.603   2.593 -0.1127 -1.6514  1.1878
 5767TIP3    H238717   2.463   4.578   2.489  0.3532  0.1451  0.2486
 5768TIP3   OH238718   5.290   4.916  14.272 -0.5488 -0.6105 -0.4689
 5768TIP3    H138719   5.272   5.010  14.265 -2.5685 -0.9623 -0.5826
 5768TIP3    H238720   5.383   4.908  14.249 -0.2906  1.3570 -0.3307
 5769TIP3   OH238721   4.062   6.344  11.777 -0.2208 -0.4203  0.1278
 5769TIP3    H138722   4.099   6.290  11.846 -0.7567  1.2150  1.7773
 5769TIP3    H238723   4.137   6.366  11.722  0.1289 -2.1542 -0.1541
 5770TIP3   OH238724   3.932   6.071   4.799  0.4330 -0.1584  0.0934
 5770TIP3    H138725   3.843   6.067   4.766  0.0580  1.0448  0.8884
 5770TIP3    H238726   3.987   6.069   4.721 -0.3944  2.0156 -0.6131
 5771TIP3   OH238727   0.327   4.921   5.594 -0.1426  0.0936 -0.1641
 5771TIP3    H138728   0.293   4.857   5.656 -1.0991  1.3063  0.6114
 5771TIP3    H238729   0.388   4.974   5.645 -1.2262  1.3461 -0.1130
 5772TIP3   OH238730   2.825   2.348   4.068  0.5138  0.0176 -0.8813
 5772TIP3    H138731   2.886   2.284   4.031 -0.5331 -2.0264  0.7630
 5772TIP3    H238732   2.740   2.325   4.033  0.3806  1.8868 -1.9245
 5773TIP3   OH238733   1.155   0.112  12.851 -0.0774  0.1218  0.4774
 5773TIP3    H138734   1.246   0.139  12.865 -0.0164  1.3850 -1.9716
 5773TIP3    H238735   1.103   0.191  12.869 -0.7434 -0.5703  1.7933
 5774TIP3   OH238736   0.543   4.139   1.556 -0.4583 -0.2565  0.3611
 5774TIP3    H138737   0.539   4.224   1.601 -0.4063  0.1048 -0.3030
 5774TIP3    H238738   0.550   4.162   1.463 -0.2288 -0.9913  0.1960
 5775TIP3   OH238739   6.233   1.962  13.163 -0.2939 -0.8627  0.3277
 5775TIP3    H138740   6.182   1.888  13.194 -0.6199 -0.5876  0.4596
 5775TIP3    H238741   6.175   2.038  13.175  0.0486 -0.5827  0.2378
 5776TIP3   OH238742   6.643   5.723  10.996  0.7266 -0.2228  0.7606
 5776TIP3    H138743   6.732   5.689  11.001  0.7953  0.1499  2.8859
 5776TIP3    H238744   6.652   5.816  11.018 -0.0590  0.0924 -0.1735
 5777TIP3   OH238745   2.064   5.547   0.923  0.2716 -0.3961  0.1945
 5777TIP3    H138746   2.007   5.472   0.940 -2.1014  0.6207 -2.4831
 5777TIP3    H238747   2.031   5.616   0.980  0.5037 -0.5212  0.4836
 5778TIP3   OH238748   0.529   5.405  14.234  0.3858 -0.3104 -0.2543
 5778TIP3    H138749   0.546   5.498  14.252 -2.6688  0.7095 -1.9423
 5778TIP3    H238750   0.589   5.383  14.163  0.5383  0.6622 -0.4386
 5779TIP3   OH238751   5.119   0.654  11.590 -0.4261 -0.1086  0.3129
 5779TIP3    H138752   5.098   0.598  11.664 -0.6307  0.5534  0.7681
 5779TIP3    H238753   5.066   0.733  11.603  0.4528  0.5363  0.1415
 5780TIP3   OH238754   1.746   2.337  13.073 -0.4649 -0.6492  0.1035
 5780TIP3    H138755   1.804   2.413  13.078 -1.6920  0.2779  1.0196
 5780TIP3    H238756   1.723   2.331  12.980 -0.5285  0.2475  0.0480
 5781TIP3   OH238757   0.788   2.338  17.035  0.3207  0.1769 -0.0400
 5781TIP3    H138758   0.785   2.302  16.946 -1.7597 -0.9424  0.4053
 5781TIP3    H238759   0.786   2.433  17.023  1.7833  0.0940 -1.1954
 5782TIP3   OH238760   6.383   5.978  16.179 -0.2069  0.8821  0.5793
 5782TIP3    H138761   6.376   5.999  16.086 -0.8450  0.4172  0.5098
 5782TIP3    H238762   6.444   5.904  16.183  0.2319  1.2387  0.5907
 5783TIP3   OH238763   5.967   1.320  16.095 -0.3859 -0.2542  0.2607
 5783TIP3    H138764   6.026   1.324  16.020 -0.3161 -0.0392  0.3273
 5783TIP3    H238765   5.890   1.272  16.062  0.4760 -1.9436  0.6225
 5784TIP3   OH238766   3.345   1.612   6.403  0.6439 -0.1704 -0.0722
 5784TIP3    H138767   3.256   1.620   6.369 -0.2068 -0.0680  2.0187
 5784TIP3    H238768   3.401   1.610   6.325 -1.2243 -0.9647 -1.4600
 5785TIP3   OH238769   5.922   2.545  12.635 -0.3628 -0.3129 -0.2390
 5785TIP3    H138770   5.974   2.488  12.692 -0.5448  1.0263  1.3758
 5785TIP3    H238771   5.978   2.621  12.620 -1.7772  1.2098  1.6234
 5786TIP3   OH238772   2.254   2.963   3.985 -0.4099 -0.4980  0.3538
 5786TIP3    H138773   2.268   2.871   3.965 -0.3473 -0.7269  1.3698
 5786TIP3    H238774   2.235   2.964   4.079 -1.4966  0.4181  0.1435
 5787TIP3   OH238775   3.584   5.469  16.519 -0.9213 -0.1219  0.0862
 5787TIP3    H138776   3.498   5.484  16.478 -0.8608  0.2001  0.0735
 5787TIP3    H238777   3.606   5.554  16.558  0.0462  0.2010 -1.1190
 5788TIP3   OH238778   2.251   5.729  16.574 -0.3058  0.1062 -0.3929
 5788TIP3    H138779   2.346   5.739  16.566 -0.3126 -0.4881 -1.5373
 5788TIP3    H238780   2.216   5.783  16.503 -0.8927  1.1149  0.6287
 5789TIP3   OH238781   3.088   1.321   2.557 -0.2049 -0.2950  0.3564
 5789TIP3    H138782   3.105   1.344   2.648  2.8710 -0.9868  0.0560
 5789TIP3    H238783   3.045   1.236   2.561  1.7287 -1.2867  1.1887
 5790TIP3   OH238784   1.685   3.383   4.168 -0.7561  0.0486 -0.1684
 5790TIP3    H138785   1.755   3.437   4.205 -2.3200  0.5923  2.2832
 5790TIP3    H238786   1.671   3.419   4.080 -1.2580  3.3166  1.1025
 5791TIP3   OH238787   5.007   4.693  16.895 -0.1809 -0.0648 -0.4011
 5791TIP3    H138788   4.979   4.603  16.874 -1.0186  0.5398 -2.0687
 5791TIP3    H238789   5.044   4.725  16.813  1.3301  0.6993  0.5474
 5792TIP3   OH238790   5.175   5.127  16.204  0.2184 -0.4677 -0.3383
 5792TIP3    H138791   5.111   5.193  16.230 -0.7353 -0.3923 -2.5667
 5792TIP3    H238792   5.201   5.084  16.285 -1.6535  0.4305  0.7939
 5793TIP3   OH238793   3.980   3.163  12.805 -0.3758  0.2447 -0.1971
 5793TIP3    H138794   3.931   3.243  12.786 -1.2180 -0.1413  0.2987
 5793TIP3    H238795   3.923   3.112  12.862  0.2353 -0.6222 -0.3274
 5794TIP3   OH238796   2.354   4.169   1.540  0.5688 -0.1973  0.2651
 5794TIP3    H138797   2.276   4.225   1.548  1.4779  1.0817  0.5679
 5794TIP3    H238798   2.332   4.090   1.588 -0.2395  0.4945  1.0782
 5795TIP3   OH238799   2.521   1.802  11.589  0.3264 -0.2102  1.0789
 5795TIP3    H138800   2.528   1.878  11.531 -1.3963  0.2225  1.3789
 5795TIP3    H238801   2.553   1.729  11.537 -1.0738  0.1880 -0.4127
 5796TIP3   OH238802   2.683   4.827  14.302  0.4267 -0.4844  0.1605
 5796TIP3    H138803   2.757   4.771  14.328  0.9284 -0.3236 -0.8756
 5796TIP3    H238804   2.642   4.781  14.229 -0.4753 -0.5394  0.6934
 5797TIP3   OH238805   4.100   1.041  15.776 -0.0739 -0.7104 -0.0830
 5797TIP3    H138806   4.046   0.961  15.773 -0.5728 -0.4289  0.9118
 5797TIP3    H238807   4.036   1.112  15.782  0.3761 -0.4605  2.8370
 5798TIP3   OH238808   0.631   1.270  12.061 -0.3546 -1.1269 -0.7234
 5798TIP3    H138809   0.662   1.336  11.999 -0.2516  0.5275  0.9939
 5798TIP3    H238810   0.539   1.292  12.076  0.5182  1.0322  2.5537
 5799TIP3   OH238811   2.548   4.222  15.520 -0.3917  0.8157  0.6766
 5799TIP3    H138812   2.570   4.312  15.544  0.3025  0.6587  0.6287
 5799TIP3    H238813   2.612   4.168  15.566 -0.5541  0.3647  0.3832
 5800TIP3   OH238814   4.127   5.593  13.383  0.0346  0.0301 -0.7850
 5800TIP3    H138815   4.211   5.548  13.380  0.1623  0.2311 -0.2932
 5800TIP3    H238816   4.135   5.664  13.320  0.3542  0.2572 -0.4882
 5801TIP3   OH238817   4.563   5.381   3.688 -0.0523  0.0278 -0.3828
 5801TIP3    H138818   4.538   5.415   3.601  0.9315  0.9555 -0.3266
 5801TIP3    H238819   4.659   5.382   3.687 -0.0325 -0.1075  0.6664
 5802TIP3   OH238820   2.493   4.925   4.631  0.3221 -0.2322 -0.1149
 5802TIP3    H138821   2.459   5.013   4.611 -2.1019 -0.0200  3.8234
 5802TIP3    H238822   2.582   4.941   4.661 -0.3972  1.1316  1.4689
 5803TIP3   OH238823   3.910   2.111  14.099 -0.1826  0.3594  0.5948
 5803TIP3    H138824   3.818   2.136  14.090 -0.8581 -2.4245 -1.7278
 5803TIP3    H238825   3.911   2.050  14.173 -0.0937  0.6750  0.8595
 5804TIP3   OH238826   0.411   3.599  13.395  0.0632  0.7361  0.6794
 5804TIP3    H138827   0.360   3.532  13.441  1.1776  0.2877  1.3037
 5804TIP3    H238828   0.355   3.625  13.322 -0.1606 -1.3812  0.0078
 5805TIP3   OH238829   6.027   4.051  14.185 -0.4956  0.6776  0.1485
 5805TIP3    H138830   6.100   3.990  14.191 -0.3751  0.6153 -1.5502
 5805TIP3    H238831   6.060   4.124  14.133 -1.6700  0.5746 -0.7997
 5806TIP3   OH238832   2.410   5.103  16.583  0.2190  0.4290  0.1112
 5806TIP3    H138833   2.438   5.193  16.600  0.9551  0.3869 -0.7511
 5806TIP3    H238834   2.322   5.097  16.620  0.8118  0.9837  1.6913
 5807TIP3   OH238835   2.513   5.274  14.483  0.3419 -0.0123 -0.3587
 5807TIP3    H138836   2.558   5.219  14.547  0.9650  1.8769  0.9319
 5807TIP3    H238837   2.569   5.272  14.405  0.0016 -1.6843 -0.5850
 5808TIP3   OH238838   6.784   2.952   3.272 -0.1930  0.6105 -0.2681
 5808TIP3    H138839   6.771   2.918   3.360  0.7857  0.6066 -0.1151
 5808TIP3    H238840   6.811   3.043   3.285  0.9747  0.3203 -0.4970
 5809TIP3   OH238841   6.026   4.148   0.706  0.0391  0.2638 -0.4936
 5809TIP3    H138842   6.027   4.053   0.719  2.1161  0.4474  1.3598
 5809TIP3    H238843   5.958   4.179   0.766 -0.7389 -0.0307 -1.2021
 5810TIP3   OH238844   3.074   0.233  14.070  0.6749 -0.1629 -0.3697
 5810TIP3    H138845   2.995   0.234  14.124  1.3120 -1.9931  0.6965
 5810TIP3    H238846   3.117   0.151  14.093  2.0465  0.0015 -2.1634
 5811TIP3   OH238847   5.476   0.222   2.090  0.3452 -0.0564  0.2263
 5811TIP3    H138848   5.503   0.306   2.052  0.3048 -0.4447 -0.6764
 5811TIP3    H238849   5.504   0.227   2.181  0.0524  1.0713  0.2754
 5812TIP3   OH238850   5.730   4.710  12.940  0.2636  0.1247 -0.0975
 5812TIP3    H138851   5.759   4.752  13.021  0.1314  2.1232 -1.0277
 5812TIP3    H238852   5.703   4.782  12.884 -0.1620 -1.2449 -1.7425
 5813TIP3   OH238853   5.615   3.163  13.111 -0.0684  0.1033  0.3550
 5813TIP3    H138854   5.649   3.201  13.193 -0.1894  1.3970 -0.1650
 5813TIP3    H238855   5.565   3.087  13.139 -0.0107  0.4516  1.4815
 5814TIP3   OH238856   3.508   0.650   6.435  0.2689 -0.3460 -0.2485
 5814TIP3    H138857   3.414   0.641   6.452  0.1229  2.6305  1.2882
 5814TIP3    H238858   3.514   0.724   6.375  1.6354  0.2787  0.5950
 5815TIP3   OH238859   2.049   2.225   6.203 -0.1142 -0.2353 -0.6897
 5815TIP3    H138860   2.075   2.316   6.185 -0.2752 -0.1027 -0.2638
 5815TIP3    H238861   1.955   2.223   6.183  0.0520 -0.5115 -1.4617
 5816TIP3   OH238862   3.616   1.009  11.594 -1.0128 -0.2852  0.0631
 5816TIP3    H138863   3.631   0.934  11.652 -1.4112 -0.7644 -0.4436
 5816TIP3    H238864   3.521   1.025  11.599 -1.1059 -0.5572 -0.7252
 5817TIP3   OH238865   4.718   4.608  13.822  0.0649 -0.1650  0.2408
 5817TIP3    H138866   4.698   4.536  13.882  1.6140 -0.2978  0.6321
 5817TIP3    H238867   4.648   4.672  13.838 -0.4962 -0.9263  0.9614
 5818TIP3   OH238868   2.916   0.297   6.364 -0.0514 -0.6534 -0.3262
 5818TIP3    H138869   2.971   0.243   6.308  1.3485 -0.5929  0.9002
 5818TIP3    H238870   2.971   0.374   6.384 -2.0967  1.4893 -2.3160
 5819TIP3   OH238871   0.733   5.662  11.108  0.2272 -0.2404  0.1539
 5819TIP3    H138872   0.703   5.577  11.141 -2.0694  0.6385  0.5540
 5819TIP3    H238873   0.671   5.684  11.038  1.1835  0.7968 -0.3974
 5820TIP3   OH238874   3.625   1.083   1.322  0.2148  0.1176 -0.2710
 5820TIP3    H138875   3.542   1.114   1.286  0.8260  0.6940 -1.2226
 5820TIP3    H238876   3.604   1.054   1.411 -1.0898 -0.2029 -0.6734
 5821TIP3   OH238877   0.944   4.305  16.388  0.1489 -1.0117  0.1463
 5821TIP3    H138878   0.898   4.257  16.319  2.0424  0.5265 -2.3178
 5821TIP3    H238879   0.903   4.391  16.389  2.3741  0.1718 -1.6624
 5822TIP3   OH238880   1.824   0.296   6.088  0.6004 -0.4195  0.3337
 5822TIP3    H138881   1.812   0.204   6.113 -0.1083 -0.0153  1.5792
 5822TIP3    H238882   1.892   0.328   6.148  0.1288  0.1143  0.5936
 5823TIP3   OH238883   6.668   4.193   4.518 -0.7890  0.5075 -0.3389
 5823TIP3    H138884   6.644   4.101   4.504  0.3594  0.2241 -0.5280
 5823TIP3    H238885   6.733   4.190   4.588 -0.6659  1.1707 -0.4203
 5824TIP3   OH238886   3.624   0.856  13.619  0.4134 -0.2289  0.5429
 5824TIP3    H138887   3.642   0.889  13.707  0.8624 -0.8967  0.7057
 5824TIP3    H238888   3.557   0.790  13.631 -1.1528  1.2125  0.1096
 5825TIP3   OH238889   4.101   3.401  11.233 -0.3070  0.0883  0.1022
 5825TIP3    H138890   4.009   3.377  11.223 -0.0788 -0.8595  0.1668
 5825TIP3    H238891   4.111   3.480  11.180 -0.3698 -1.7691 -2.9288
 5826TIP3   OH238892   3.443   2.030  13.204  0.7950  0.4271  0.1057
 5826TIP3    H138893   3.411   1.955  13.154  0.7498 -0.8142  1.8938
 5826TIP3    H238894   3.538   2.027  13.194  0.9482 -0.9492  1.5130
 5827TIP3   OH238895   2.093   6.050   2.000  0.0061  0.2963 -0.5272
 5827TIP3    H138896   2.128   5.997   2.071 -0.0538 -0.8043 -1.2928
 5827TIP3    H238897   2.012   6.086   2.035  0.2811  0.2574  0.1632
 5828TIP3   OH238898   1.766   2.145   6.148 -0.8003 -0.3288 -0.1037
 5828TIP3    H138899   1.758   2.183   6.236  0.5010  1.6964 -0.7866
 5828TIP3    H238900   1.773   2.050   6.163 -2.0311 -0.1628  1.8463
 5829TIP3   OH238901   0.427   1.748  11.343  0.2103 -0.0438  0.3045
 5829TIP3    H138902   0.368   1.784  11.277 -0.3621  0.7710  1.2311
 5829TIP3    H238903   0.514   1.781  11.319 -0.2131  1.5101  0.7981
 5830TIP3   OH238904   6.678   5.085  15.611 -0.5022  0.4161  0.1561
 5830TIP3    H138905   6.609   5.040  15.660  0.0838 -2.5733 -1.5005
 5830TIP3    H238906   6.631   5.142  15.550 -1.4646 -0.2803  0.2293
 5831TIP3   OH238907   4.365   6.349  14.373 -0.4666  0.2622  0.6826
 5831TIP3    H138908   4.423   6.278  14.403  1.2944  1.4918  0.3477
 5831TIP3    H238909   4.294   6.351  14.437  0.2904 -0.7711  1.5874
 5832TIP3   OH238910   2.893   3.296  13.953 -0.5722  0.2254 -0.3532
 5832TIP3    H138911   2.986   3.316  13.965 -0.7730  1.2518 -0.4398
 5832TIP3    H238912   2.857   3.297  14.041 -0.7290  1.0021 -0.4257
 5833TIP3   OH238913   2.941   2.027   5.475  0.2165 -0.8801  0.1853
 5833TIP3    H138914   2.898   1.997   5.555  0.1019  0.7627  0.7929
 5833TIP3    H238915   2.953   2.121   5.489 -1.7339 -0.0887 -2.5878
 5834TIP3   OH238916   5.976   2.132   4.672  0.0234  0.3727 -0.0524
 5834TIP3    H138917   5.978   2.097   4.761  0.3241  1.4581  0.3805
 5834TIP3    H238918   5.965   2.226   4.683  0.2413  0.5452 -1.1592
 5835TIP3   OH238919   4.830   4.637   1.999 -0.0502 -0.0124  0.2502
 5835TIP3    H138920   4.901   4.579   1.970  0.6304  0.3514  1.1619
 5835TIP3    H238921   4.752   4.602   1.956  1.1572  1.7335 -3.8247
 5836TIP3   OH238922   4.180   0.432  13.587  0.3070  0.0491 -0.9609
 5836TIP3    H138923   4.243   0.365  13.614  0.6557  0.9384  0.5188
 5836TIP3    H238924   4.113   0.431  13.655  0.3866  1.2920 -0.8513
 5837TIP3   OH238925   2.440   1.690  17.170  0.2566 -0.3232  0.1993
 5837TIP3    H138926   2.506   1.757  17.158  0.8091 -0.9516 -0.3371
 5837TIP3    H238927   2.489   1.610  17.186 -0.3979 -0.3254  2.5450
 5838TIP3   OH238928   4.787   0.276  15.355  0.0778  0.1923 -0.4714
 5838TIP3    H138929   4.835   0.193  15.367 -0.5606 -0.2028 -0.6207
 5838TIP3    H238930   4.798   0.321  15.439 -1.9016 -1.2830  0.6801
 5839TIP3   OH238931   5.815   3.404  12.696 -0.4742  0.0872 -0.1359
 5839TIP3    H138932   5.860   3.447  12.769 -0.9681 -1.8073  1.3801
 5839TIP3    H238933   5.884   3.387  12.632  0.8801 -1.8040  1.6742
 5840TIP3   OH238934   1.452   5.883  14.532  0.0493  0.6633 -0.3548
 5840TIP3    H138935   1.457   5.976  14.511 -1.3276  0.8448  0.0170
 5840TIP3    H238936   1.481   5.877  14.623  0.6536  0.6472 -0.5459
 5841TIP3   OH238937   5.124   0.102  11.119  1.0090 -0.3322 -0.1296
 5841TIP3    H138938   5.188   0.150  11.066 -0.0919  1.4640  0.0777
 5841TIP3    H238939   5.055   0.077  11.057  1.3516 -1.2787 -0.1472
 5842TIP3   OH238940   0.179   4.531   3.808  1.2425 -0.0812 -0.3173
 5842TIP3    H138941   0.232   4.611   3.801  0.7902  0.3252  0.7799
 5842TIP3    H238942   0.215   4.473   3.741  1.7711  0.9311 -0.9340
 5843TIP3   OH238943   0.136   0.626  16.262 -0.6036  0.0724 -0.2053
 5843TIP3    H138944   0.102   0.607  16.349  1.8153 -0.1161  0.7707
 5843TIP3    H238945   0.180   0.546  16.235 -1.3167  0.1270 -1.6401
 5844TIP3   OH238946   4.601   3.891   5.333  0.4193 -0.7391  1.1708
 5844TIP3    H138947   4.646   3.831   5.274  0.2889 -0.5067  0.8305
 5844TIP3    H238948   4.508   3.870   5.321  0.3824 -0.5682  1.1568
 5845TIP3   OH238949   6.379   0.735  11.686  0.2408  0.1904 -0.3031
 5845TIP3    H138950   6.454   0.779  11.726  0.7035 -1.0311  0.2189
 5845TIP3    H238951   6.313   0.733  11.756 -0.1257  0.8870 -0.6263
 5846TIP3   OH238952   0.163   0.161  11.961  0.2836 -0.4825  0.0862
 5846TIP3    H138953   0.145   0.095  11.894  2.1192 -0.7177 -0.2142
 5846TIP3    H238954   0.133   0.121  12.043  1.3595 -1.6983 -0.0885
 5847TIP3   OH238955   0.776   2.120  13.863  0.1886  0.1086  0.0292
 5847TIP3    H138956   0.780   2.030  13.897 -0.4947 -0.3743 -1.1069
 5847TIP3    H238957   0.716   2.115  13.789  0.8180  1.3430 -0.5934
 5848TIP3   OH238958   2.961   1.603  12.558 -0.1005  0.1784  0.8316
 5848TIP3    H138959   2.993   1.558  12.480  0.5790  0.9054  0.6751
 5848TIP3    H238960   2.884   1.650  12.529  0.7254  1.2651  0.3282
 5849TIP3   OH238961   5.950   1.932  13.941  0.0187  0.2069 -0.1013
 5849TIP3    H138962   5.886   1.937  13.870 -0.2551  3.2417  0.2279
 5849TIP3    H238963   5.900   1.958  14.019  1.2740  1.0869  0.4332
 5850TIP3   OH238964   6.279   6.353   0.676 -0.0472  0.1289 -0.4770
 5850TIP3    H138965   6.188   6.366   0.649 -0.5020  1.2509  1.3964
 5850TIP3    H238966   6.273   6.299   0.754  1.0387 -1.1337 -1.2360
 5851TIP3   OH238967   0.350   3.460   2.145  0.1855  0.2145  0.0236
 5851TIP3    H138968   0.334   3.404   2.221  0.7579 -0.5151 -0.3827
 5851TIP3    H238969   0.421   3.518   2.172  2.3369 -1.8759 -0.8293
 5852TIP3   OH238970   2.496   6.757   5.938  0.5464 -0.1061  0.3832
 5852TIP3    H138971   2.494   6.708   5.855  1.5535 -0.2118  0.4118
 5852TIP3    H238972   2.571   6.720   5.986 -0.7189 -0.8747  1.8614
 5853TIP3   OH238973   3.539   2.208  11.728  0.1220  0.3160  0.1263
 5853TIP3    H138974   3.584   2.131  11.765 -0.4300 -0.8475 -1.5024
 5853TIP3    H238975   3.602   2.245  11.667 -0.5430 -0.4794 -1.0975
 5854TIP3   OH238976   2.234   6.757   3.899  0.1700 -0.8086 -0.0538
 5854TIP3    H138977   2.324   6.739   3.871  0.5199  1.1398 -0.2876
 5854TIP3    H238978   2.180   6.710   3.836  1.0104  0.4081 -1.7589
 5855TIP3   OH238979   4.559   5.988   3.127  0.6799  0.4149 -0.1735
 5855TIP3    H138980   4.558   5.902   3.084  1.0856  0.1959  0.2546
 5855TIP3    H238981   4.613   5.976   3.205 -0.5875  0.6497  0.7614
 5856TIP3   OH238982   4.666   2.005   4.339 -0.7909 -0.1618  0.2120
 5856TIP3    H138983   4.735   2.058   4.300 -0.6164 -1.3139 -1.1154
 5856TIP3    H238984   4.599   1.999   4.271 -1.8345  0.2379  1.1777
 5857TIP3   OH238985   4.167   6.501  16.111  0.7562 -0.3698  0.0232
 5857TIP3    H138986   4.222   6.459  16.046  1.5360 -0.3471  0.6602
 5857TIP3    H238987   4.225   6.560  16.158 -0.0629  0.5465 -0.0645
 5858TIP3   OH238988   1.159   0.154  16.918  0.0152  0.2695  0.7102
 5858TIP3    H138989   1.155   0.183  16.827  1.5304 -0.4076  0.3933
 5858TIP3    H238990   1.078   0.105  16.931 -0.9467  1.6442  0.2234
 5859TIP3   OH238991   5.978   0.634   4.330  0.0208  0.0189  0.3758
 5859TIP3    H138992   6.045   0.569   4.309  1.1137  1.0745  0.5284
 5859TIP3    H238993   6.025   0.704   4.375 -1.1823  0.7969  0.4602
 5860TIP3   OH238994   2.453   3.468  12.628 -0.3242  0.6610  0.3475
 5860TIP3    H138995   2.531   3.413  12.620  0.2842  1.0783  2.6501
 5860TIP3    H238996   2.384   3.419  12.584  0.9568 -0.3020 -0.6448
 5861TIP3   OH238997   6.664   0.206   1.896 -0.1492 -0.2344 -0.1547
 5861TIP3    H138998   6.648   0.121   1.854  1.0937 -1.2041  1.2596
 5861TIP3    H238999   6.588   0.219   1.953 -0.5827 -0.1298 -0.7356
 5862TIP3   OH239000   2.787   5.381  16.151 -0.3428  0.1759 -0.3524
 5862TIP3    H139001   2.709   5.436  16.149  0.5377  1.4779 -0.5018
 5862TIP3    H239002   2.857   5.440  16.179  1.3238  0.0621 -3.6741
 5863TIP3   OH239003   1.898   2.803  12.142  0.3243 -0.0251  0.6950
 5863TIP3    H139004   1.886   2.727  12.198  2.2682 -0.1691  0.9908
 5863TIP3    H239005   1.902   2.877  12.202  0.1095  0.1066  0.5480
 5864TIP3   OH239006   4.805   2.074  10.908  0.2528 -0.3256  0.4695
 5864TIP3    H139007   4.730   2.044  10.855  0.5415  1.4626 -1.0659
 5864TIP3    H239008   4.865   2.000  10.907 -0.4885 -0.9447 -0.2886
 5865TIP3   OH239009   6.448   0.139   4.617 -0.0945 -0.0825  0.3776
 5865TIP3    H139010   6.399   0.200   4.561  2.4243  0.4224 -1.4243
 5865TIP3    H239011   6.450   0.182   4.703 -0.3632  1.2674 -0.2663
 5866TIP3   OH239012   0.958   0.378   2.841 -0.0859 -0.3727 -0.8804
 5866TIP3    H139013   0.863   0.376   2.839 -0.0955 -1.7484 -0.0081
 5866TIP3    H239014   0.985   0.287   2.831  1.0669 -0.2884  0.9387
 5867TIP3   OH239015   1.716   0.410   4.318  0.0743 -0.2938 -0.1492
 5867TIP3    H139016   1.759   0.342   4.267  2.0884  1.0060 -0.2624
 5867TIP3    H239017   1.627   0.413   4.283 -0.4350 -3.5073  0.5349
 5868TIP3   OH239018   2.998   2.342  11.996 -0.3595 -0.3975 -0.1853
 5868TIP3    H139019   2.994   2.249  11.974 -1.9418 -0.6674  1.0749
 5868TIP3    H239020   3.046   2.345  12.080 -0.4859 -0.0944 -0.1228
 5869TIP3   OH239021   0.777   5.544  13.476 -0.0029 -0.0865  0.0083
 5869TIP3    H139022   0.720   5.596  13.532  0.3594  0.2500  0.0692
 5869TIP3    H239023   0.811   5.606  13.411 -1.3211 -0.6965 -1.3107
 5870TIP3   OH239024   5.037   1.093  12.731 -0.4100  0.0849  0.4778
 5870TIP3    H139025   4.974   1.127  12.666  0.9820  2.7641  0.3687
 5870TIP3    H239026   5.103   1.047  12.679  0.5462  1.9762 -0.0702
 5871TIP3   OH239027   1.535   3.280   3.618 -0.4624 -0.1641  0.0401
 5871TIP3    H139028   1.561   3.323   3.699 -1.7182  0.0844  0.3369
 5871TIP3    H239029   1.503   3.194   3.645 -1.0218 -0.0255 -0.1640
 5872TIP3   OH239030   5.948   4.948  15.900 -0.1203  0.0457  0.0038
 5872TIP3    H139031   5.984   4.881  15.958  1.2030 -0.0892 -0.9364
 5872TIP3    H239032   5.909   5.013  15.959  0.8385 -0.2885  1.0305
 5873TIP3   OH239033   1.675   2.581  12.064  0.4955  0.3008  0.1591
 5873TIP3    H139034   1.744   2.584  12.130  0.1230 -0.4094  0.5931
 5873TIP3    H239035   1.644   2.671  12.057  0.5128  0.3763  0.9881
 5874TIP3   OH239036   0.446   2.870  16.698  0.2875  0.2263  0.4679
 5874TIP3    H139037   0.516   2.823  16.652 -0.1000  0.0566  0.0443
 5874TIP3    H239038   0.484   2.956  16.717  0.5428  0.2095  0.0521
 5875TIP3   OH239039   6.325   3.803  13.085  0.6764 -0.7097  0.0623
 5875TIP3    H139040   6.232   3.814  13.066  0.8753 -0.5272 -0.8961
 5875TIP3    H239041   6.355   3.890  13.110  0.5960 -0.7604  0.3341
 5876TIP3   OH239042   2.846   3.514   2.597 -0.1582 -0.7772  0.3777
 5876TIP3    H139043   2.836   3.475   2.511  0.4340  0.4439 -0.2729
 5876TIP3    H239044   2.939   3.503   2.618 -0.2643 -0.9168  0.7814
 5877TIP3   OH239045   0.673   0.843   4.260  0.4259  0.3864  0.1722
 5877TIP3    H139046   0.735   0.890   4.316 -0.1081  1.8200 -0.3816
 5877TIP3    H239047   0.694   0.873   4.171 -0.5026  0.2567 -0.1074
 5878TIP3   OH239048   6.423   3.555   5.597 -0.1732  0.4261 -0.8004
 5878TIP3    H139049   6.355   3.488   5.588  0.8562 -0.8069  0.2108
 5878TIP3    H239050   6.399   3.602   5.677  0.8838 -0.9598  0.3955
 5879TIP3   OH239051   5.805   0.423  15.583 -0.8138  0.4257 -0.6703
 5879TIP3    H139052   5.720   0.383  15.602 -0.6867  0.8253  0.8695
 5879TIP3    H239053   5.864   0.348  15.572 -0.9480  0.1442  0.3915
 5880TIP3   OH239054   1.557   2.399   4.544  0.1617  0.0459 -0.1595
 5880TIP3    H139055   1.542   2.492   4.526 -1.4088 -0.3016 -0.8049
 5880TIP3    H239056   1.642   2.397   4.588 -0.1005  1.8488  0.5207
 5881TIP3   OH239057   1.913   1.742  14.532 -0.0451 -0.0190 -0.0542
 5881TIP3    H139058   1.956   1.767  14.451  0.9601 -1.3460  0.0519
 5881TIP3    H239059   1.979   1.693  14.581 -1.3686 -1.2890  0.5324
 5882TIP3   OH239060   3.682   2.417  14.337  0.2236 -0.3471  0.3839
 5882TIP3    H139061   3.746   2.479  14.303 -0.6630  0.3081 -0.1388
 5882TIP3    H239062   3.632   2.390  14.259  0.0215 -1.0460  0.7437
 5883TIP3   OH239063   2.231   5.999  10.764  0.2435  0.3700 -0.2845
 5883TIP3    H139064   2.323   5.990  10.786  0.2894 -0.6994 -0.8676
 5883TIP3    H239065   2.205   5.914  10.730 -1.1445  0.4458  0.4929
 5884TIP3   OH239066   1.180   6.382  16.026 -0.0201  0.3885 -0.2584
 5884TIP3    H139067   1.254   6.432  15.991 -0.9488  0.7958 -1.7220
 5884TIP3    H239068   1.220   6.303  16.063  1.1479  0.6113 -0.9964
 5885TIP3   OH239069   6.601   5.365  11.562 -0.1976 -0.4263  0.0117
 5885TIP3    H139070   6.519   5.414  11.569  0.4657  0.4882  2.4514
 5885TIP3    H239071   6.582   5.279  11.597 -0.3030 -0.4567 -0.1217
 5886TIP3   OH239072   5.491   6.106   4.779  0.5847 -0.6569 -0.2639
 5886TIP3    H139073   5.475   6.137   4.690 -0.3964 -0.6602 -0.1013
 5886TIP3    H239074   5.585   6.119   4.792  0.3018  1.9772 -0.3086
 5887TIP3   OH239075   2.327   2.231   3.763  0.2611 -0.5270  0.1313
 5887TIP3    H139076   2.324   2.170   3.837  0.6640  0.2337  0.7836
 5887TIP3    H239077   2.252   2.206   3.709  1.0507 -2.3494 -0.2219
 5888TIP3   OH239078   1.785   3.874   2.646  0.4632 -0.0096 -0.5543
 5888TIP3    H139079   1.768   3.787   2.610  1.8453 -0.7825  0.5346
 5888TIP3    H239080   1.879   3.887   2.634  0.2102  1.5482 -1.1021
 5889TIP3   OH239081   2.103   6.422  13.991  0.5218  0.1713  0.5269
 5889TIP3    H139082   2.152   6.499  13.962 -0.0732  1.0839  1.8310
 5889TIP3    H239083   2.150   6.348  13.954  0.0810  1.1864 -2.3175
 5890TIP3   OH239084   0.854   0.100  16.377 -0.5420 -0.4855  0.4401
 5890TIP3    H139085   0.914   0.067  16.444  1.5105  1.1376 -0.4653
 5890TIP3    H239086   0.778   0.042  16.382 -0.8783 -0.0035  4.6478
 5891TIP3   OH239087   1.813   0.373  14.584  0.2177  0.0429 -0.3288
 5891TIP3    H139088   1.722   0.352  14.562  0.2411 -2.1385  1.3746
 5891TIP3    H239089   1.856   0.381  14.499 -0.9021 -2.1775 -1.1859
 5892TIP3   OH239090   5.797   1.960   3.172  0.0985  0.3716 -0.0135
 5892TIP3    H139091   5.889   1.937   3.177  0.2792  0.8046 -1.1442
 5892TIP3    H239092   5.769   1.934   3.084 -0.9360 -0.0219  0.4083
 5893TIP3   OH239093   0.519   4.764  17.190  0.9726  0.2237 -0.3185
 5893TIP3    H139094   0.520   4.857  17.212  1.0233  0.1351  0.0491
 5893TIP3    H239095   0.595   4.727  17.234  0.3982 -0.1770  0.3586
 5894TIP3   OH239096   2.482   2.607  15.288  0.0955 -0.3405 -0.3049
 5894TIP3    H139097   2.399   2.607  15.336  0.5616  1.3514  0.5858
 5894TIP3    H239098   2.468   2.667  15.215  0.8826  0.9431  0.5606
 5895TIP3   OH239099   5.992   0.295  15.382  0.1312  0.0793 -0.5441
 5895TIP3    H139100   5.943   0.217  15.356 -0.4897  0.2393  0.1008
 5895TIP3    H239101   6.073   0.291  15.332 -0.0322 -0.8195 -0.7467
 5896TIP3   OH239102   0.148   6.318  16.135 -0.4343 -0.1122 -0.3437
 5896TIP3    H139103   0.164   6.403  16.175 -2.4315  0.2910 -0.3259
 5896TIP3    H239104   0.074   6.332  16.075  0.5252 -1.3721 -1.9337
 5897TIP3   OH239105   4.515   0.662   0.101 -0.0492  0.1555  0.2225
 5897TIP3    H139106   4.523   0.567   0.091 -0.4112  0.1131  0.2974
 5897TIP3    H239107   4.602   0.696   0.082  0.0439 -0.1799  0.0425
 5898TIP3   OH239108   6.716   4.411   6.780 -0.3681 -0.0952 -0.1347
 5898TIP3    H139109   6.666   4.336   6.810 -1.2810  0.7252  0.4793
 5898TIP3    H239110   6.794   4.374   6.739  0.0074 -1.3240  1.6004
 5899TIP3   OH239111   1.952   0.998   2.887 -0.1063 -0.3194 -0.2522
 5899TIP3    H139112   1.902   0.981   2.808  0.2779 -0.2860 -0.5043
 5899TIP3    H239113   2.043   0.979   2.863  0.0314 -0.1713  0.1373
 5900TIP3   OH239114   2.919   6.612  12.862 -0.1592 -0.4922  0.3847
 5900TIP3    H139115   2.974   6.638  12.788  1.0624 -1.4113  0.9379
 5900TIP3    H239116   2.917   6.690  12.918 -1.1015  0.2122 -0.6001
 5901TIP3   OH239117   4.901   0.800  12.680  0.0811 -0.1103  0.3825
 5901TIP3    H139118   4.866   0.802  12.591 -0.0230 -2.9915  0.2548
 5901TIP3    H239119   4.976   0.860  12.678  0.0205 -0.0403 -1.6276
 5902TIP3   OH239120   2.477   3.058   2.549 -0.0045  0.4581  0.4353
 5902TIP3    H139121   2.457   3.118   2.478  0.6925  3.3924  2.4962
 5902TIP3    H239122   2.533   2.991   2.509 -1.7286  0.4693 -2.2263
 5903TIP3   OH239123   0.253   3.003   1.398  0.4119  0.4916  0.1092
 5903TIP3    H139124   0.235   2.955   1.317 -1.7585  0.8803  0.2892
 5903TIP3    H239125   0.304   2.942   1.451 -0.0597 -0.6282 -0.6863
 5904TIP3   OH239126   2.785   6.068   2.570 -0.4938  0.1888  0.4063
 5904TIP3    H139127   2.775   6.163   2.561  1.6979  0.2643 -2.6211
 5904TIP3    H239128   2.863   6.058   2.625 -0.6849  0.1176  0.6676
 5905TIP3   OH239129   2.357   1.711  11.790  0.0160 -0.6521 -0.1564
 5905TIP3    H139130   2.413   1.742  11.719 -0.9875 -2.2624 -1.7377
 5905TIP3    H239131   2.268   1.711  11.753 -0.3436 -2.9596  0.5123
 5906TIP3   OH239132   3.121   3.841   6.404 -0.4074  0.2221  0.2925
 5906TIP3    H139133   3.087   3.786   6.474 -0.0728 -1.5989 -0.9128
 5906TIP3    H239134   3.046   3.894   6.377 -0.8606  0.0516  1.1671
 5907TIP3   OH239135   2.625   4.717   6.630  0.1059 -0.7514  0.3857
 5907TIP3    H139136   2.537   4.694   6.660 -0.0384  1.6444  2.1829
 5907TIP3    H239137   2.659   4.774   6.699  2.1549  0.3108 -1.3809
 5908TIP3   OH239138   5.776   0.387  14.582  0.2334 -0.5718  0.0276
 5908TIP3    H139139   5.743   0.476  14.589 -0.0618 -0.7844  1.4944
 5908TIP3    H239140   5.857   0.395  14.532 -0.3400  0.3582 -0.7948
 5909TIP3   OH239141   4.112   4.293  11.968 -0.1712  0.4234 -0.0509
 5909TIP3    H139142   4.199   4.329  11.948  0.2027 -1.2882 -1.8455
 5909TIP3    H239143   4.110   4.288  12.064  0.6065  2.9622  0.1950
 5910TIP3   OH239144   3.002   6.337  12.946  0.4541  0.0340 -0.1458
 5910TIP3    H139145   3.095   6.353  12.958  0.0961  2.1955  0.1761
 5910TIP3    H239146   2.969   6.417  12.904 -1.7637  0.6927  2.5843
 5911TIP3   OH239147   4.282   4.724  11.130 -0.2571 -0.3181 -0.1001
 5911TIP3    H139148   4.292   4.806  11.080 -0.0796 -0.3337 -0.0927
 5911TIP3    H239149   4.188   4.706  11.129 -0.4279  0.4434  0.7888
 5912TIP3   OH239150   6.781   1.825  12.513  0.4405 -0.4000 -0.4826
 5912TIP3    H139151   6.861   1.792  12.554  0.1682 -0.5121 -0.0359
 5912TIP3    H239152   6.710   1.779  12.557  0.0704  0.5031 -0.1101
 5913TIP3   OH239153   2.082   2.045   5.156 -0.0115  0.1438  0.3853
 5913TIP3    H139154   2.163   2.063   5.109  0.2970 -1.3410  0.2910
 5913TIP3    H239155   2.087   2.101   5.234 -0.7903  3.0683 -1.4904
 5914TIP3   OH239156   4.276   1.109   3.303 -0.2903  0.2751  0.7393
 5914TIP3    H139157   4.353   1.167   3.300 -0.0152  0.0161  2.1382
 5914TIP3    H239158   4.252   1.106   3.396 -0.6761 -1.3686  0.6097
 5915TIP3   OH239159   3.315   3.508  12.068 -0.2467 -0.3992  0.1258
 5915TIP3    H139160   3.372   3.453  12.122  1.2872  1.2610  0.2716
 5915TIP3    H239161   3.239   3.526  12.123  1.6744  2.0040  2.2129
 5916TIP3   OH239162   3.705   1.618   3.484 -0.0585  0.2246  0.2115
 5916TIP3    H139163   3.791   1.594   3.518 -0.0322 -0.4344 -0.3047
 5916TIP3    H239164   3.655   1.642   3.562  0.1037 -0.9444  0.7050
 5917TIP3   OH239165   3.577   4.532   0.698  0.1096 -0.6856  0.2842
 5917TIP3    H139166   3.553   4.502   0.786  0.1100 -0.0401  0.5107
 5917TIP3    H239167   3.673   4.535   0.700  0.2345 -2.7132 -0.4356
 5918TIP3   OH239168   0.895   2.581  13.945 -0.2461 -0.2369 -0.0134
 5918TIP3    H139169   0.969   2.606  13.890 -0.4269 -1.1474 -0.6883
 5918TIP3    H239170   0.933   2.526  14.013 -0.0027  0.9893  0.8912
 5919TIP3   OH239171   3.915   1.145   4.868 -1.1071  0.6341  0.1319
 5919TIP3    H139172   3.918   1.126   4.775  1.6508 -1.0195  0.4192
 5919TIP3    H239173   3.940   1.238   4.875  2.1328 -0.0273 -0.7649
 5920TIP3   OH239174   1.011   2.728   5.768  0.2354  0.3610 -0.2081
 5920TIP3    H139175   0.974   2.653   5.721 -0.5936  0.5892  0.0704
 5920TIP3    H239176   1.103   2.730   5.741  0.2425 -0.7035 -0.2795
 5921TIP3   OH239177   5.259   5.669  16.788 -0.0719 -0.1693 -0.5982
 5921TIP3    H139178   5.275   5.585  16.746  1.5222  0.3571 -1.0954
 5921TIP3    H239179   5.301   5.663  16.874 -0.9231 -0.2562 -0.1718
 5922TIP3   OH239180   4.984   1.135   1.137 -0.6989  0.3380  0.1621
 5922TIP3    H139181   5.017   1.180   1.214 -0.4770  0.6265 -0.0960
 5922TIP3    H239182   4.925   1.197   1.096  1.6928  1.5718 -1.7225
 5923TIP3   OH239183   5.991   2.311  10.205 -0.2118 -0.3642 -0.3197
 5923TIP3    H139184   6.079   2.285  10.232  0.0658  1.1492  0.3408
 5923TIP3    H239185   5.974   2.259  10.127  0.7143 -1.6777  0.3084
 5924TIP3   OH239186   3.491   6.566  12.725  0.6471  0.0031 -0.4768
 5924TIP3    H139187   3.559   6.597  12.664  2.0626  0.9618  1.4840
 5924TIP3    H239188   3.539   6.514  12.790 -1.0630 -2.4553 -1.0488
 5925TIP3   OH239189   4.207   5.131  16.615  0.0273  0.4734  0.0680
 5925TIP3    H139190   4.140   5.125  16.683  1.2621  0.2556  1.3148
 5925TIP3    H239191   4.289   5.123  16.663  1.0499  2.9236 -1.1437
 5926TIP3   OH239192   2.370   2.783  14.005 -0.2305  0.6071 -0.3767
 5926TIP3    H139193   2.306   2.748  13.943  1.5847 -0.1665 -1.9116
 5926TIP3    H239194   2.355   2.878  14.004 -0.9285  0.4998 -1.1910
 5927TIP3   OH239195   4.777   4.200  17.099 -0.5824  0.8018  0.5757
 5927TIP3    H139196   4.796   4.124  17.044  1.2131  1.6480 -0.0546
 5927TIP3    H239197   4.861   4.221  17.141 -1.2821  1.8319  1.5031
 5928TIP3   OH239198   4.592   3.189  14.283 -0.0680 -0.8035 -0.0349
 5928TIP3    H139199   4.576   3.279  14.312 -0.4730 -1.2313  1.1265
 5928TIP3    H239200   4.552   3.184  14.196  0.6686  0.3588 -0.4655
 5929TIP3   OH239201   5.561   3.112  15.421  0.2610 -0.5844  0.1950
 5929TIP3    H139202   5.511   3.179  15.374 -1.0103 -2.6690 -1.5793
 5929TIP3    H239203   5.565   3.145  15.511  0.2006  2.1156 -0.6984
 5930TIP3   OH239204   3.240   1.172  11.083  0.3988  0.1400  0.0543
 5930TIP3    H139205   3.283   1.257  11.095  1.8210 -0.8157  2.6112
 5930TIP3    H239206   3.186   1.183  11.005 -0.4090  3.7719  0.9431
 5931TIP3   OH239207   6.756   6.020  10.530 -0.0668  0.4053 -0.1133
 5931TIP3    H139208   6.767   6.112  10.556 -0.0847  0.1682  0.7699
 5931TIP3    H239209   6.671   5.995  10.566  0.5405 -0.3407  0.8377
 5932TIP3   OH239210   6.329   3.471   1.707  0.0963 -0.0447 -0.0095
 5932TIP3    H139211   6.270   3.397   1.691 -0.2472  0.6213 -2.1607
 5932TIP3    H239212   6.274   3.534   1.753 -0.2774 -0.2404 -0.1757
 5933TIP3   OH239213   2.473   0.879  11.892 -0.1687 -0.0449 -0.8830
 5933TIP3    H139214   2.504   0.939  11.960 -1.6563 -0.5215  0.2930
 5933TIP3    H239215   2.546   0.871  11.831  0.6808  1.5840 -0.1376
 5934TIP3   OH239216   1.574   6.342   2.828  0.5288  0.1573 -0.0271
 5934TIP3    H139217   1.479   6.358   2.827  0.2524 -1.3535 -0.2494
 5934TIP3    H239218   1.603   6.382   2.910 -0.1292  1.4401 -0.3834
 5935TIP3   OH239219   0.037   5.026  13.750  0.8212  0.2835  0.5691
 5935TIP3    H139220   0.087   5.062  13.677 -0.1661 -0.6107 -0.5978
 5935TIP3    H239221   0.076   4.939  13.765  0.0615 -0.1488  0.0890
 5936TIP3   OH239222   0.377   3.445  15.808 -0.1722  0.5609  0.3655
 5936TIP3    H139223   0.409   3.498  15.735 -0.8175  0.6453  0.1372
 5936TIP3    H239224   0.282   3.461  15.810 -0.3678 -0.5393  0.3397
 5937TIP3   OH239225   2.390   5.783  11.473  0.3065  0.5528 -0.1442
 5937TIP3    H139226   2.447   5.855  11.445  2.8412 -1.4193 -0.4132
 5937TIP3    H239227   2.348   5.816  11.553  1.2313  2.3640 -0.3427
 5938TIP3   OH239228   4.157   0.023  13.469  0.6313 -0.2094  0.5511
 5938TIP3    H139229   4.129   0.090  13.531 -1.1191 -0.3468 -0.0360
 5938TIP3    H239230   4.243   0.052  13.440  0.1305  1.5498  0.6694
 5939TIP3   OH239231   0.086   3.008  16.725  0.0901 -0.1195  1.1315
 5939TIP3    H139232   0.104   2.939  16.660 -0.0516 -0.2645  1.2462
 5939TIP3    H239233   0.017   2.972  16.779 -0.5858  0.4518  0.6678
 5940TIP3   OH239234   3.868   4.316  14.759  0.3944  0.1587 -0.6457
 5940TIP3    H139235   3.854   4.409  14.778  1.3758  0.6387 -2.1256
 5940TIP3    H239236   3.945   4.292  14.810 -1.9769 -0.9271  2.7759
 5941TIP3   OH239237   5.563   5.123  11.573  0.3621 -0.1342  0.2867
 5941TIP3    H139238   5.564   5.212  11.539  0.1862  0.4163  1.6526
 5941TIP3    H239239   5.511   5.073  11.511  1.2405  0.5009 -0.9942
 5942TIP3   OH239240   4.015   1.646   5.639 -0.3406  0.3612 -0.2981
 5942TIP3    H139241   3.991   1.584   5.570 -0.6783  1.7554 -1.4629
 5942TIP3    H239242   4.015   1.731   5.597  2.4725  0.9428  0.6855
 5943TIP3   OH239243   3.409   4.498   3.412  0.2385 -0.0470 -0.2448
 5943TIP3    H139244   3.500   4.481   3.388  0.4577  0.8034 -0.0320
 5943TIP3    H239245   3.388   4.581   3.369 -0.3246 -0.0548  0.0070
 5944TIP3   OH239246   1.463   5.072  14.078  0.2563  0.2246 -0.0365
 5944TIP3    H139247   1.397   5.140  14.072  0.1640  0.0740 -0.8637
 5944TIP3    H239248   1.547   5.119  14.081  0.1583  0.3888  0.1051
 5945TIP3   OH239249   2.402   1.134  12.833  0.4172 -0.7596  0.8641
 5945TIP3    H139250   2.331   1.193  12.809  0.2966 -0.3931  2.0415
 5945TIP3    H239251   2.406   1.138  12.929  2.6564 -0.0149  0.8125
 5946TIP3   OH239252   0.119   4.301   6.642 -0.0124  0.4938 -0.4957
 5946TIP3    H139253   0.212   4.317   6.628  0.3037 -0.5881  0.2394
 5946TIP3    H239254   0.109   4.206   6.635 -0.8565  0.4875  0.5081
 5947TIP3   OH239255   0.867   3.426   2.002 -0.1218  0.6503  0.4646
 5947TIP3    H139256   0.839   3.456   2.089  0.8811 -0.7796  1.3194
 5947TIP3    H239257   0.953   3.386   2.017 -0.2628 -0.2894 -1.0510
 5948TIP3   OH239258   3.289   6.538  14.644  0.2736 -0.3688 -0.0403
 5948TIP3    H139259   3.341   6.616  14.627 -0.8339  0.6158  0.9103
 5948TIP3    H239260   3.321   6.505  14.728  0.6036 -0.8214 -0.3433
 5949TIP3   OH239261   3.632   3.245   0.296 -0.5250  0.0002 -0.3307
 5949TIP3    H139262   3.712   3.215   0.252  0.2849  0.9504  0.4449
 5949TIP3    H239263   3.649   3.337   0.317 -1.8615  0.2426 -0.2237
 5950TIP3   OH239264   5.995   5.674   5.008 -0.1102  0.1323 -0.8253
 5950TIP3    H139265   6.078   5.719   4.993 -0.0905  0.6096  0.6300
 5950TIP3    H239266   5.951   5.726   5.075 -1.4499 -0.2983 -1.3446
 5951TIP3   OH239267   1.644   0.726   5.230  0.1857  0.0713  0.0226
 5951TIP3    H139268   1.549   0.738   5.229 -0.0994 -1.8352  0.3462
 5951TIP3    H239269   1.663   0.687   5.315  1.2484  0.3336 -0.0779
 5952TIP3   OH239270   2.058   1.213   6.012  0.6391 -0.2195 -0.5000
 5952TIP3    H139271   2.083   1.283   6.073  1.5256  0.7491 -1.9149
 5952TIP3    H239272   2.042   1.137   6.068  2.2095  0.4000  0.8839
 5953TIP3   OH239273   1.202   0.965   4.870 -0.1394 -0.2558  0.0088
 5953TIP3    H139274   1.219   1.051   4.831  0.6264 -0.5151 -0.2475
 5953TIP3    H239275   1.277   0.912   4.844 -0.8079 -1.1315 -0.1901
 5954TIP3   OH239276   1.154   5.206  14.944 -0.2170  0.3503 -0.3551
 5954TIP3    H139277   1.218   5.192  14.874  0.2599 -1.6909  0.4230
 5954TIP3    H239278   1.183   5.288  14.985  0.8333  0.3991 -1.1186
 5955TIP3   OH239279   0.473   4.910   2.041 -0.4586 -0.4475  0.5991
 5955TIP3    H139280   0.453   4.817   2.054  0.7397 -0.5678  1.8439
 5955TIP3    H239281   0.426   4.955   2.111  0.3033 -0.3209  1.0495
 5956TIP3   OH239282   2.381   0.932   6.130 -0.2972  0.5360 -0.2803
 5956TIP3    H139283   2.388   0.838   6.112 -0.7282  0.8317 -2.1242
 5956TIP3    H239284   2.468   0.966   6.107 -0.7229  0.8536 -1.4734
 5957TIP3   OH239285   0.557   3.388  15.994  0.6691 -0.4652 -0.2503
 5957TIP3    H139286   0.603   3.471  16.002 -1.8623  0.9913  0.1638
 5957TIP3    H239287   0.480   3.409  15.940 -0.9859 -2.0854  1.3562
 5958TIP3   OH239288   6.748   2.095   4.402 -0.1980  0.2183 -0.0592
 5958TIP3    H139289   6.684   2.024   4.402  0.7933 -0.7011  0.7280
 5958TIP3    H239290   6.726   2.147   4.480  1.5182 -1.5465  1.6915
 5959TIP3   OH239291   2.003   6.396  12.036  0.2301  0.5320 -1.0654
 5959TIP3    H139292   2.017   6.459  12.107  0.3366 -0.5263 -0.1307
 5959TIP3    H239293   1.918   6.357  12.054  1.0180 -1.0146 -0.4898
 5960TIP3   OH239294   4.123   0.177   6.142 -0.3231 -0.8050 -0.1940
 5960TIP3    H139295   4.115   0.125   6.222 -1.3990 -0.1866  0.1261
 5960TIP3    H239296   4.120   0.112   6.071 -1.8264 -1.2004  0.1919
 5961TIP3   OH239297   3.172   0.192  12.446  0.0929  0.3567  1.2729
 5961TIP3    H139298   3.226   0.116  12.426  1.9795  1.5275  1.7384
 5961TIP3    H239299   3.170   0.196  12.541 -1.2028  0.1091  1.2832
 5962TIP3   OH239300   0.206   4.744  14.093 -0.3513  0.1034  0.2234
 5962TIP3    H139301   0.136   4.800  14.060  0.7081  0.1716 -2.1217
 5962TIP3    H239302   0.193   4.742  14.188 -0.2469  4.7037  0.5729
 5963TIP3   OH239303   0.228   0.782  17.164 -0.1569  0.6050 -0.3207
 5963TIP3    H139304   0.314   0.810  17.134 -0.7857  0.3034 -2.5774
 5963TIP3    H239305   0.196   0.856  17.216  1.3619  0.7888  0.4080
 5964TIP3   OH239306   1.050   5.870   0.929  0.6783 -0.3226  0.8925
 5964TIP3    H139307   0.969   5.911   0.898  1.4074 -0.9150 -2.1652
 5964TIP3    H239308   1.021   5.802   0.989 -1.2353 -1.0940 -0.7777
 5965TIP3   OH239309   3.097   0.175   1.406 -0.2978  0.1185 -0.2082
 5965TIP3    H139310   3.015   0.212   1.374 -0.0587  1.3791  0.5899
 5965TIP3    H239311   3.143   0.249   1.446 -0.2896 -1.2375  2.4945
 5966TIP3   OH239312   3.987   2.379  14.536 -0.0291  0.0200 -0.0467
 5966TIP3    H139313   4.052   2.314  14.565 -0.6242  0.0568  1.4399
 5966TIP3    H239314   4.003   2.455  14.591 -1.2387  0.0756  0.2564
 5967TIP3   OH239315   4.760   0.037  11.688  0.0105  0.0333 -0.1234
 5967TIP3    H139316   4.737  -0.030  11.624  3.5089 -0.6236 -0.8972
 5967TIP3    H239317   4.776  -0.011  11.769 -0.0069  0.2870  0.0327
 5968TIP3   OH239318   1.139   2.756  12.444 -0.9127  0.1087 -0.1844
 5968TIP3    H139319   1.136   2.788  12.354  0.1352 -0.7291 -0.5414
 5968TIP3    H239320   1.095   2.671  12.441  0.8736 -0.8520 -0.3554
 5969TIP3   OH239321   0.532   4.907  12.271  0.5713 -0.1087  0.3121
 5969TIP3    H139322   0.625   4.915  12.252  0.1230  2.3259 -1.4147
 5969TIP3    H239323   0.498   4.853  12.200  0.6554 -0.9644  0.9200
 5970TIP3   OH239324   5.888   3.183   0.662 -0.1957  0.3514 -0.5239
 5970TIP3    H139325   5.879   3.107   0.605 -1.1098 -0.1110  0.2113
 5970TIP3    H239326   5.895   3.257   0.602 -0.2377 -0.2147 -1.2428
 5971TIP3   OH239327   0.067   3.631   4.569 -0.2916 -0.2656 -0.2368
 5971TIP3    H139328   0.099   3.543   4.589  0.3346 -0.6069 -2.4390
 5971TIP3    H239329   0.111   3.654   4.488  0.3302  2.5240  0.7879
 5972TIP3   OH239330   2.448   6.398  13.811 -0.4358  0.1754  0.7651
 5972TIP3    H139331   2.519   6.455  13.842 -0.0266  0.8491 -1.2791
 5972TIP3    H239332   2.492   6.317  13.784 -0.9168 -0.8514  2.8258
 5973TIP3   OH239333   4.332   1.611   3.193  0.2680 -0.4895  0.1752
 5973TIP3    H139334   4.320   1.702   3.169  0.4736  0.3015  2.7663
 5973TIP3    H239335   4.423   1.592   3.170  0.3571  0.1065  0.0167
 5974TIP3   OH239336   0.635   2.566  12.225  0.0725  0.3320 -0.6519
 5974TIP3    H139337   0.715   2.524  12.193  0.3366  0.5353 -0.2694
 5974TIP3    H239338   0.652   2.660  12.213  0.6468  0.4829  1.1318
 5975TIP3   OH239339   1.033   5.377  11.136  0.5514 -0.3858  0.3451
 5975TIP3    H139340   1.125   5.358  11.118  0.1463 -1.5143 -0.6960
 5975TIP3    H239341   1.031   5.470  11.158  1.8781 -0.2535 -0.0118
 5976TIP3   OH239342   1.185   5.520  12.797  0.1405 -0.4496 -0.1441
 5976TIP3    H139343   1.220   5.517  12.708 -1.3511 -2.3431 -0.7320
 5976TIP3    H239344   1.185   5.429  12.826 -1.2489 -0.1115  1.0313
 5977TIP3   OH239345   4.576   4.593  16.327 -0.2680  0.3777  0.0434
 5977TIP3    H139346   4.616   4.550  16.402  0.2263 -0.1438 -0.5098
 5977TIP3    H239347   4.486   4.610  16.354 -0.2106 -0.1780  0.5999
 5978TIP3   OH239348   2.107   0.535   2.555 -0.2133  0.6939  0.3492
 5978TIP3    H139349   2.162   0.497   2.486 -0.5209 -0.5585  0.7692
 5978TIP3    H239350   2.127   0.629   2.552  0.7695  0.4793 -0.5500
 5979TIP3   OH239351   0.778   5.248   3.549 -0.4909 -0.3442  0.3041
 5979TIP3    H139352   0.813   5.322   3.599 -1.6707  0.2957  0.2148
 5979TIP3    H239353   0.688   5.239   3.581 -2.0671  1.4428 -3.1130
 5980TIP3   OH239354   4.392   5.815   3.682  0.4622  0.3841  0.0321
 5980TIP3    H139355   4.460   5.869   3.722 -0.3733  0.3127  1.6335
 5980TIP3    H239356   4.379   5.743   3.744 -1.4742  0.7262  0.0732
 5981TIP3   OH239357   5.481   1.339   3.576  0.7293  0.3753  0.0879
 5981TIP3    H139358   5.513   1.404   3.638  1.6803  0.7422 -0.7536
 5981TIP3    H239359   5.418   1.287   3.625 -1.0015  2.6744  0.4902
 5982TIP3   OH239360   1.316   0.407   4.247 -0.0775  0.0438 -0.2910
 5982TIP3    H139361   1.260   0.439   4.177 -0.8490 -1.3219 -0.3251
 5982TIP3    H239362   1.393   0.371   4.202  0.7438  1.6546 -0.2574
 5983TIP3   OH239363   1.806   3.960   0.116  0.0833  0.2837  0.2122
 5983TIP3    H139364   1.783   3.997   0.202  0.1516  1.2245 -0.1602
 5983TIP3    H239365   1.721   3.940   0.076  0.0700 -1.2418  0.9352
 5984TIP3   OH239366   4.397   0.028   5.063  0.0632  0.4934 -0.0801
 5984TIP3    H139367   4.409  -0.015   4.978 -2.6589  0.1406 -0.3871
 5984TIP3    H239368   4.376  -0.044   5.123 -2.0279  1.0825 -0.0424
 5985TIP3   OH239369   6.452   4.515  10.818 -0.5068  0.1160  0.5410
 5985TIP3    H139370   6.389   4.559  10.762  0.4059  1.2408  0.3703
 5985TIP3    H239371   6.513   4.584  10.846  0.3970 -0.8484  1.0525
 5986TIP3   OH239372   5.161   3.302   5.263  0.2394 -0.3652 -0.8635
 5986TIP3    H139373   5.226   3.277   5.329 -1.2156 -1.3022  0.2919
 5986TIP3    H239374   5.192   3.262   5.182  1.8303  0.4271 -0.6846
 5987TIP3   OH239375   4.623   4.076   0.308 -0.4399 -0.1402 -0.1934
 5987TIP3    H139376   4.716   4.096   0.317 -0.4600 -0.6854  1.5952
 5987TIP3    H239377   4.599   4.110   0.222  1.1626  0.9561 -0.2371
 5988TIP3   OH239378   0.544   2.146   3.252  0.1755  0.5112  0.3010
 5988TIP3    H139379   0.632   2.113   3.237  0.3192  0.3670  1.3640
 5988TIP3    H239380   0.535   2.220   3.192  0.4099 -0.4692 -0.9821
 5989TIP3   OH239381   5.243   5.698   6.302  0.4978  0.4004  0.0022
 5989TIP3    H139382   5.221   5.659   6.217  1.5074  0.3185 -0.2331
 5989TIP3    H239383   5.158   5.717   6.342 -0.0645 -1.9488  0.0884
 5990TIP3   OH239384   3.625   4.911   1.823  0.1537  0.0891 -0.0983
 5990TIP3    H139385   3.716   4.902   1.794  0.5929  0.6460  1.0259
 5990TIP3    H239386   3.605   4.827   1.863 -0.0155 -0.2286 -0.8473
 5991TIP3   OH239387   2.138   4.018  11.198  0.0185  0.1723  0.3830
 5991TIP3    H139388   2.089   4.087  11.243 -0.1578  1.0630 -1.1355
 5991TIP3    H239389   2.107   3.937  11.238 -1.9764  0.7829  0.1519
 5992TIP3   OH239390   4.586   5.041  15.975 -0.0900 -0.0656  0.5618
 5992TIP3    H139391   4.673   5.037  15.934 -0.5451  2.1648 -0.7466
 5992TIP3    H239392   4.527   5.002  15.910 -0.2736 -0.2572  0.8400
 5993TIP3   OH239393   1.399   4.972   4.732 -0.5226 -0.2193 -0.0199
 5993TIP3    H139394   1.378   5.056   4.691  0.8504  0.5973  0.8448
 5993TIP3    H239395   1.489   4.983   4.763  0.1773 -2.4748 -1.0456
 5994TIP3   OH239396   6.132   2.489  17.173 -0.4934 -0.1589  0.2549
 5994TIP3    H139397   6.163   2.399  17.182 -0.6776 -0.4055 -1.3321
 5994TIP3    H239398   6.208   2.543  17.195 -0.8881 -0.6124  3.1182
 5995TIP3   OH239399   4.600   3.031   3.364 -0.2164 -0.7468  0.2582
 5995TIP3    H139400   4.507   3.023   3.383 -0.5296 -2.0677 -1.5936
 5995TIP3    H239401   4.630   2.940   3.354  0.9355 -0.2849 -0.6680
 5996TIP3   OH239402   3.879   2.349   3.099 -0.2376 -1.0012  0.4556
 5996TIP3    H139403   3.944   2.409   3.063  1.8291 -2.5874  1.3857
 5996TIP3    H239404   3.835   2.312   3.023 -0.6942  0.6883 -0.1585
 5997TIP3   OH239405   4.852   3.572  11.629  0.6385  0.1619 -0.3885
 5997TIP3    H139406   4.791   3.608  11.693  1.4558 -2.0482  1.7646
 5997TIP3    H239407   4.830   3.479  11.625  1.1812  0.0729 -2.7469
 5998TIP3   OH239408   1.192   3.788  16.562 -0.0588  0.3069 -0.6518
 5998TIP3    H139409   1.210   3.875  16.527  1.7296  0.6953  1.0292
 5998TIP3    H239410   1.178   3.802  16.656  2.9725 -1.3846  0.1937
 5999TIP3   OH239411   4.349   0.943   5.245  0.5129  0.4055 -0.0137
 5999TIP3    H139412   4.270   0.996   5.234 -0.1326 -0.6010 -0.3569
 5999TIP3    H239413   4.396   0.952   5.162  1.0525  1.4530  0.3925
 6000TIP3   OH239414   5.139   2.677   2.278  0.1410  0.5650 -0.3051
 6000TIP3    H139415   5.063   2.696   2.333 -0.0135  0.5638 -0.5220
 6000TIP3    H239416   5.202   2.637   2.338 -0.2246  0.0860 -0.2407
 6001TIP3   OH239417   4.778   2.417  13.651  0.1562 -0.5184 -0.0277
 6001TIP3    H139418   4.736   2.453  13.730  0.2686  1.5011 -0.8185
 6001TIP3    H239419   4.709   2.366  13.608 -0.7965  0.7340 -0.0529
 6002TIP3   OH239420   2.095   2.671  14.985 -0.4768 -0.3848  0.2007
 6002TIP3    H139421   2.097   2.629  14.899  2.2053  1.7264 -0.9216
 6002TIP3    H239422   2.113   2.601  15.047  3.2254 -1.1860 -1.5135
 6003TIP3   OH239423   2.048   4.419   0.136  0.3328 -0.5660  0.0052
 6003TIP3    H139424   1.960   4.384   0.118  0.1959  0.1638 -0.8188
 6003TIP3    H239425   2.032   4.502   0.180  0.6537 -1.3921  1.7572
 6004TIP3   OH239426   3.270   4.476   3.988 -0.0529 -0.3778  0.1216
 6004TIP3    H139427   3.257   4.489   3.894  0.3579 -1.8910 -0.1779
 6004TIP3    H239428   3.364   4.489   4.002  0.0032 -0.8422  0.1923
 6005TIP3   OH239429   2.298   3.953   1.007  0.5486  0.3894 -0.3592
 6005TIP3    H139430   2.247   3.882   1.045  2.0154 -0.7882 -0.5166
 6005TIP3    H239431   2.303   4.019   1.077  1.3342 -0.7844  0.7269
 6006TIP3   OH239432   0.242   1.172  12.423  0.4772  0.1116 -0.2475
 6006TIP3    H139433   0.312   1.149  12.363  2.4192 -2.1351  2.6448
 6006TIP3    H239434   0.263   1.261  12.452  0.3955  0.5926 -1.5898
 6007TIP3   OH239435   1.524   6.353  16.700  0.0011  0.7175  0.0908
 6007TIP3    H139436   1.614   6.386  16.707  0.9601 -1.4170 -1.1559
 6007TIP3    H239437   1.489   6.361  16.788  1.6345  1.0298  0.7555
 6008TIP3   OH239438   1.843   0.229   3.380 -0.1849 -0.0754  1.0275
 6008TIP3    H139439   1.775   0.286   3.417  1.4620  1.0529  2.4621
 6008TIP3    H239440   1.925   0.275   3.397  0.8836 -0.2733 -2.6534
 6009TIP3   OH239441   4.198   2.154   1.696 -0.2906 -0.0154  0.2223
 6009TIP3    H139442   4.292   2.133   1.690 -0.7395 -2.2967  0.2456
 6009TIP3    H239443   4.187   2.186   1.786  0.4494  0.1388  0.2670
 6010TIP3   OH239444   5.543   5.159  15.988  0.1636  0.1475  0.1468
 6010TIP3    H139445   5.490   5.238  15.977  1.6615  1.3073  1.0109
 6010TIP3    H239446   5.633   5.190  15.990  0.8696 -1.7162 -0.6339
 6011TIP3   OH239447   0.635   2.114   1.479  0.5518  0.4386  0.0354
 6011TIP3    H139448   0.668   2.188   1.428  0.2291  0.5061 -0.0776
 6011TIP3    H239449   0.714   2.067   1.507  0.7433  0.5936 -0.2368
 6012TIP3   OH239450   0.715   2.285   5.802  0.5436  0.1092 -0.0689
 6012TIP3    H139451   0.757   2.245   5.878 -0.2840  0.0147  0.3545
 6012TIP3    H239452   0.636   2.326   5.837 -0.1946 -0.4842 -0.9709
 6013TIP3   OH239453   4.528   3.545  13.668 -0.0686 -0.2922  0.2387
 6013TIP3    H139454   4.607   3.492  13.682  0.2962  0.2920  0.4469
 6013TIP3    H239455   4.531   3.611  13.737  0.1811  0.8061 -0.7857
 6014TIP3   OH239456   4.350   5.409   0.430 -0.2134  0.3220 -0.1375
 6014TIP3    H139457   4.279   5.464   0.398  0.5452  1.6439  0.3853
 6014TIP3    H239458   4.363   5.344   0.361 -1.8300  0.1244 -0.2931
 6015TIP3   OH239459   1.319   2.681  10.853  0.1150  0.1591 -0.5962
 6015TIP3    H139460   1.286   2.596  10.824 -0.5905 -0.4732  1.8285
 6015TIP3    H239461   1.247   2.742  10.836  0.0936  0.0142 -1.0512
 6016TIP3   OH239462   5.584   1.434  13.028 -0.0946  0.8373 -0.0357
 6016TIP3    H139463   5.606   1.395  13.113 -0.2476  0.1751 -0.2975
 6016TIP3    H239464   5.560   1.360  12.973 -2.2911  1.4498  0.0054
 6017TIP3   OH239465   0.124   3.813   5.852 -0.4036 -0.3218 -0.8658
 6017TIP3    H139466   0.146   3.851   5.767 -2.6283 -0.9023 -1.7646
 6017TIP3    H239467   0.156   3.723   5.847 -0.4192 -0.3176 -1.0476
 6018TIP3   OH239468   2.820   1.990  15.488 -0.3639 -0.1998 -0.0854
 6018TIP3    H139469   2.807   1.908  15.441 -0.4325 -0.1529 -0.1473
 6018TIP3    H239470   2.787   1.973  15.576 -1.1133  0.0121 -0.3228
 6019TIP3   OH239471   6.404   4.186  15.489 -0.1615 -0.6105  0.2091
 6019TIP3    H139472   6.483   4.239  15.490 -1.4090  1.4625  2.9080
 6019TIP3    H239473   6.386   4.171  15.396  2.4854  0.1448 -0.5206
 6020TIP3   OH239474   1.818   3.121  16.413  0.1305  0.1886  0.0224
 6020TIP3    H139475   1.806   3.129  16.318  0.1380  0.4543  0.0445
 6020TIP3    H239476   1.733   3.091  16.445  0.4213 -0.9304 -0.1935
 6021TIP3   OH239477   0.145   1.722  10.671  0.2257  0.2881 -0.0053
 6021TIP3    H139478   0.070   1.668  10.646  0.9145 -1.1167  0.8132
 6021TIP3    H239479   0.135   1.733  10.766 -0.3397  2.3457 -0.2530
 6022TIP3   OH239480   4.052   4.268   1.939  0.4243 -0.0378  0.3907
 6022TIP3    H139481   4.137   4.223   1.940  1.7131  2.1533 -1.0941
 6022TIP3    H239482   4.027   4.270   1.846 -0.2950  0.9436  0.5869
 6023TIP3   OH239483   5.278   0.406  14.046 -0.4083  0.4264 -0.4156
 6023TIP3    H139484   5.348   0.437  14.103 -0.8022  2.7596 -1.1105
 6023TIP3    H239485   5.274   0.311  14.063  2.0869  0.4088  0.4988
 6024TIP3   OH239486   2.693   1.414   3.886  0.2531 -0.0312 -0.4203
 6024TIP3    H139487   2.626   1.351   3.910  0.4282  0.6132  1.9417
 6024TIP3    H239488   2.678   1.490   3.943  2.5058  0.4289 -0.3376
 6025TIP3   OH239489   2.793   6.060   4.987  0.3566 -0.6468  0.1458
 6025TIP3    H139490   2.882   6.088   4.968 -0.2962  0.0235 -2.1555
 6025TIP3    H239491   2.773   6.100   5.072  2.7358 -2.1569  1.5360
 6026TIP3   OH239492   5.808   4.294   3.961 -0.0546  0.3305  0.4023
 6026TIP3    H139493   5.899   4.288   3.992  1.1694 -0.8310 -2.9479
 6026TIP3    H239494   5.812   4.355   3.887 -1.9128 -0.1475 -0.1448
 6027TIP3   OH239495   1.871   5.660  17.196  0.2080 -0.7537 -0.3587
 6027TIP3    H139496   1.944   5.683  17.253 -1.2740 -1.4190  1.9320
 6027TIP3    H239497   1.912   5.627  17.116  2.3781 -0.0391  0.4081
 6028TIP3   OH239498   3.712   1.667   6.414 -0.4092 -0.2345  0.0868
 6028TIP3    H139499   3.778   1.597   6.421  0.4387  0.3638 -1.4266
 6028TIP3    H239500   3.629   1.623   6.430  0.2883 -1.1052  1.6000
 6029TIP3   OH239501   1.204   3.048  14.587 -0.0488  0.0625  0.4982
 6029TIP3    H139502   1.273   2.983  14.600  2.1590  2.4564  1.7301
 6029TIP3    H239503   1.126   3.009  14.626  0.0916 -3.3396 -2.1715
 6030TIP3   OH239504   1.836   1.097  12.025 -0.1493  0.5127  0.0223
 6030TIP3    H139505   1.815   1.026  11.964 -2.7112  0.2323  1.1138
 6030TIP3    H239506   1.797   1.070  12.108  0.4575  2.3563  0.9612
 6031TIP3   OH239507   5.902   0.731  16.237 -0.0777 -0.3672 -0.2675
 6031TIP3    H139508   5.914   0.795  16.308  0.4010 -0.7586  0.0068
 6031TIP3    H239509   5.960   0.763  16.168  0.7104 -0.8906  0.1364
 6032TIP3   OH239510   4.515   4.609   3.024  0.4507  0.0909  0.0795
 6032TIP3    H139511   4.508   4.630   3.117 -0.5657  1.3446 -0.2427
 6032TIP3    H239512   4.502   4.693   2.980  0.3525 -0.5789 -1.2081
 6033TIP3   OH239513   3.380   2.000   3.776 -0.3202 -0.5877 -0.0594
 6033TIP3    H139514   3.469   1.998   3.741  0.5333  0.9129  1.8551
 6033TIP3    H239515   3.337   1.923   3.737  1.7729 -1.3226 -1.0654
 6034TIP3   OH239516   6.448   1.337   0.915 -0.2934 -0.4876  0.0414
 6034TIP3    H139517   6.489   1.423   0.915  0.8385 -0.9768 -1.5572
 6034TIP3    H239518   6.427   1.320   0.823 -1.9451 -1.2868  0.5151
 6035TIP3   OH239519   6.524   3.603  14.111  0.0932 -0.5567 -0.7672
 6035TIP3    H139520   6.527   3.614  14.016 -2.3958 -1.2180 -1.0137
 6035TIP3    H239521   6.525   3.509  14.124 -0.1058 -0.4811 -0.1767
 6036TIP3   OH239522   3.387   5.072  16.455 -0.4703  0.8643  0.2119
 6036TIP3    H139523   3.410   5.110  16.540  0.8201 -1.0274  0.7742
 6036TIP3    H239524   3.441   5.120  16.392  0.8072  0.3181  0.8552
 6037TIP3   OH239525   6.457   0.936  14.254 -0.5746  0.2658 -0.2437
 6037TIP3    H139526   6.378   0.987  14.233  0.0487  1.3279 -0.0947
 6037TIP3    H239527   6.496   0.917  14.169 -1.1682 -0.5641 -0.3367
 6038TIP3   OH239528   0.075   6.687   4.372  0.3211  0.7006  0.4317
 6038TIP3    H139529   0.006   6.655   4.313  2.3052  0.6786 -2.0330
 6038TIP3    H239530   0.091   6.614   4.432 -0.2380 -0.1500 -0.4291
 6039TIP3   OH239531   5.227   4.522   3.609  0.6928  0.4569  0.0839
 6039TIP3    H139532   5.191   4.441   3.646 -0.2374  0.9897  0.3648
 6039TIP3    H239533   5.261   4.496   3.523 -0.4843 -0.0412 -0.2456
 6040TIP3   OH239534   0.428   3.226   3.726 -0.1128 -0.1562  0.1221
 6040TIP3    H139535   0.468   3.155   3.675  0.7264  1.5932 -1.8154
 6040TIP3    H239536   0.347   3.247   3.680 -0.9374 -0.5942  1.3433
 6041TIP3   OH239537   2.368   5.747  12.536  0.2717  0.4977  0.3713
 6041TIP3    H139538   2.420   5.690  12.479  0.0135  1.1739 -0.5582
 6041TIP3    H239539   2.334   5.689  12.604 -0.6229 -0.6188 -0.9824
 6042TIP3   OH239540   2.882   5.682   5.014  0.1406  0.1635 -0.0060
 6042TIP3    H139541   2.802   5.656   4.969 -0.1643  0.9734  0.0608
 6042TIP3    H239542   2.852   5.725   5.094  0.6358  0.4715  0.0199
 6043TIP3   OH239543   5.909   3.516  11.832 -0.4478  0.2697  0.7694
 6043TIP3    H139544   5.861   3.554  11.905 -1.3973 -0.8409  0.7466
 6043TIP3    H239545   5.842   3.488  11.770  0.3259  0.8184 -0.3673
 6044TIP3   OH239546   6.364   1.910  10.883  0.4365  0.0609  0.6349
 6044TIP3    H139547   6.458   1.923  10.868 -0.0379  1.9682 -1.1354
 6044TIP3    H239548   6.324   1.931  10.799 -1.6004 -0.7882  1.3399
 6045TIP3   OH239549   4.881   3.871  14.607  0.4053  0.1945  0.0480
 6045TIP3    H139550   4.827   3.949  14.598 -0.1229 -0.3903 -2.8697
 6045TIP3    H239551   4.929   3.865  14.524  0.3213 -2.6224  0.0977
 6046TIP3   OH239552   3.831   0.616   5.509 -0.1852  0.7348 -0.4208
 6046TIP3    H139553   3.872   0.592   5.426  0.5436 -0.0116  0.1385
 6046TIP3    H239554   3.855   0.545   5.568 -0.9747  1.0955  0.3409
 6047TIP3   OH239555   1.753   6.563  14.992 -0.6898  0.8380  0.2943
 6047TIP3    H139556   1.756   6.640  14.935 -0.3171 -0.2230 -1.1623
 6047TIP3    H239557   1.820   6.504  14.957 -1.1876 -0.2993  1.1881
 6048TIP3   OH239558   6.438   2.114   1.271 -1.0046 -0.3455 -0.8828
 6048TIP3    H139559   6.370   2.147   1.329  1.5402  1.3759  1.3980
 6048TIP3    H239560   6.445   2.179   1.202 -0.6509  0.3032 -0.2455
 6049TIP3   OH239561   3.600   6.473  16.043 -0.0037  0.1724 -0.2217
 6049TIP3    H139562   3.656   6.547  16.064  1.7169 -1.4427  1.2252
 6049TIP3    H239563   3.565   6.445  16.127 -1.7349  0.1390 -0.9138
 6050TIP3   OH239564   4.223   3.600  13.133  0.0415 -0.2904  0.1370
 6050TIP3    H139565   4.300   3.550  13.162 -0.0852 -0.3323  0.4098
 6050TIP3    H239566   4.235   3.686  13.173  0.1768 -0.1546 -0.1977
 6051TIP3   OH239567   0.428   6.334  16.896 -0.6630  0.1242 -0.3806
 6051TIP3    H139568   0.417   6.242  16.920  1.8734  0.3655  2.1806
 6051TIP3    H239569   0.522   6.344  16.881 -0.0712  3.0697  3.6779
 6052TIP3   OH239570   1.252   2.869   3.576 -0.2919 -0.5033 -0.1225
 6052TIP3    H139571   1.210   2.907   3.653  1.0407 -0.4440  0.5974
 6052TIP3    H239572   1.342   2.901   3.580  0.3296 -2.1176 -0.6131
 6053TIP3   OH239573   3.549   4.720  15.432 -0.4216  0.2723 -0.0738
 6053TIP3    H139574   3.488   4.785  15.467  0.2550  0.3723  0.9364
 6053TIP3    H239575   3.528   4.640  15.479  0.8204  0.5251  0.9436
 6054TIP3   OH239576   5.041   0.837   6.333 -0.4625 -0.1157  0.4487
 6054TIP3    H139577   5.093   0.804   6.405 -0.9006 -0.5042  0.5890
 6054TIP3    H239578   5.088   0.809   6.254 -0.4086 -0.3772  0.5738
 6055TIP3   OH239579   5.412   2.359  17.099  0.6799  0.2676 -0.7462
 6055TIP3    H139580   5.366   2.430  17.056  0.9829  0.2840 -1.0511
 6055TIP3    H239581   5.491   2.399  17.134 -0.4797  0.6723  1.5613
 6056TIP3   OH239582   6.773   3.947  15.040  0.4191  0.3344  0.1283
 6056TIP3    H139583   6.824   3.870  15.015 -2.9090 -2.3677  0.9435
 6056TIP3    H239584   6.722   3.969  14.962  1.4840  1.9428 -0.1624
 6057TIP3   OH239585   3.171   5.969   4.378  0.8561 -0.2905 -0.3009
 6057TIP3    H139586   3.209   5.884   4.355 -0.5964 -1.2111  0.5699
 6057TIP3    H239587   3.188   6.024   4.302  1.1164 -1.5851 -1.2187
 6058TIP3   OH239588   4.533   2.642   1.024 -0.0059  0.4170 -0.4759
 6058TIP3    H139589   4.455   2.587   1.024 -0.0616  0.4957 -0.6158
 6058TIP3    H239590   4.600   2.590   0.982 -0.0306  0.4162 -0.5144
 6059TIP3   OH239591   5.701   0.080   0.621  0.2352  0.1970  0.3407
 6059TIP3    H139592   5.693   0.009   0.685  1.2883  0.3466  0.6513
 6059TIP3    H239593   5.795   0.091   0.609  0.0669 -0.0006 -1.4474
 6060TIP3   OH239594   1.403   4.504  16.315 -0.2348  0.0673 -0.3561
 6060TIP3    H139595   1.332   4.454  16.276  1.3111 -1.3055 -1.5432
 6060TIP3    H239596   1.450   4.440  16.369 -0.3950  1.1666  1.1686
 6061TIP3   OH239597   6.528   6.139   2.959  0.4483  0.2690  0.5052
 6061TIP3    H139598   6.505   6.066   3.016 -2.7140  0.1039 -0.7682
 6061TIP3    H239599   6.503   6.110   2.871 -1.7082  3.0578  0.0395
 6062TIP3   OH239600   1.956   1.306   3.292 -0.5587 -0.0190  0.3074
 6062TIP3    H139601   2.023   1.322   3.359 -0.1411  0.1971 -0.1605
 6062TIP3    H239602   1.995   1.240   3.234  0.0709  1.5357 -1.1139
 6063TIP3   OH239603   0.247   6.161  14.952  0.5628 -0.6633 -0.4751
 6063TIP3    H139604   0.230   6.205  14.868 -0.1935  0.6751  0.3475
 6063TIP3    H239605   0.260   6.069  14.928 -1.7473 -0.7212 -1.8782
 6064TIP3   OH239606   1.958   6.552   1.885  0.0768  0.1960 -0.5722
 6064TIP3    H139607   1.906   6.570   1.964 -0.7352  0.5764 -1.1806
 6064TIP3    H239608   1.955   6.457   1.876 -0.2582  0.1919 -0.4344
 6065TIP3   OH239609   2.541   2.989   0.172 -0.2016 -0.1569 -0.2645
 6065TIP3    H139610   2.463   3.039   0.146  1.0149  1.8715 -0.2325
 6065TIP3    H239611   2.614   3.036   0.132  1.1633 -0.9414  1.1825
 6066TIP3   OH239612   3.230   1.682  15.186  0.2646 -0.0316  0.2754
 6066TIP3    H139613   3.209   1.661  15.096  2.2360 -1.0890  0.0079
 6066TIP3    H239614   3.264   1.772  15.182 -0.5614  0.2840  0.1444
 6067TIP3   OH239615   1.078   5.634  12.083 -0.2076 -0.4121 -0.3729
 6067TIP3    H139616   1.007   5.695  12.102  0.9148  0.6632  0.5690
 6067TIP3    H239617   1.066   5.610  11.991 -0.3564  1.6849 -0.9486
 6068TIP3   OH239618   2.284   6.597  13.898 -1.0860  0.0918  0.9470
 6068TIP3    H139619   2.329   6.515  13.878 -2.3956 -0.7608  1.3012
 6068TIP3    H239620   2.326   6.662  13.843  0.2302 -0.7370  0.9146
 6069TIP3   OH239621   0.585   6.751   4.107 -0.4876  0.4965 -0.1188
 6069TIP3    H139622   0.533   6.672   4.087 -0.8411  0.7716 -0.2971
 6069TIP3    H239623   0.545   6.786   4.186 -0.1483  0.3413  0.1240
 6070TIP3   OH239624   4.624   5.758   4.100 -0.3116  0.0269 -0.2057
 6070TIP3    H139625   4.685   5.724   4.035  0.1209 -1.8795  1.1204
 6070TIP3    H239626   4.626   5.693   4.171 -3.2387  0.3151  0.2555
 6071TIP3   OH239627   3.827   3.628   0.750  0.3135 -0.3546  0.3914
 6071TIP3    H139628   3.838   3.533   0.752 -1.3511 -0.5812 -0.0332
 6071TIP3    H239629   3.889   3.658   0.684 -1.2492 -1.5068 -1.7074
 6072TIP3   OH239630   0.147   5.840   1.480 -0.4703 -0.1650 -0.6497
 6072TIP3    H139631   0.134   5.929   1.448  0.0584 -0.5354 -1.9583
 6072TIP3    H239632   0.191   5.851   1.565 -3.5621  0.8917  0.9667
 6073TIP3   OH239633   0.145   5.536  13.467 -0.3759 -0.0091  0.1336
 6073TIP3    H139634   0.175   5.622  13.497 -0.1556  0.2100 -0.6867
 6073TIP3    H239635   0.129   5.548  13.373  0.2675 -1.0376 -0.1177
 6074TIP3   OH239636   2.016   4.212  11.948 -0.5281  0.7483  0.0148
 6074TIP3    H139637   2.008   4.163  11.866 -1.3676  1.1345 -0.1391
 6074TIP3    H239638   2.056   4.295  11.923  1.8908 -0.1967  0.4207
 6075TIP3   OH239639   0.021   6.560   0.241  0.0610  0.2922  0.1339
 6075TIP3    H139640  -0.066   6.523   0.222  0.2104  0.6424 -1.4154
 6075TIP3    H239641   0.081   6.486   0.230  0.1755  0.5520 -1.1717
 6076TIP3   OH239642   5.610   1.482  16.139  0.0481  0.1560 -0.3911
 6076TIP3    H139643   5.685   1.494  16.081  0.5513  0.0083  0.2230
 6076TIP3    H239644   5.534   1.493  16.082  0.5070  1.7569 -0.7355
 6077TIP3   OH239645   5.547   0.921   1.485 -0.5157  0.2595  0.4022
 6077TIP3    H139646   5.518   0.888   1.569  2.2869  0.8644  1.7513
 6077TIP3    H239647   5.531   1.015   1.489 -0.1421  0.3260  0.3727
 6078TIP3   OH239648   0.277   5.363  13.833 -0.0812  0.0637  0.5475
 6078TIP3    H139649   0.272   5.345  13.739 -2.1750 -0.1029  0.6436
 6078TIP3    H239650   0.336   5.295  13.867  0.3144 -0.1714 -0.5608
 6079TIP3   OH239651   5.137   0.356  12.225  0.0572 -0.2821 -0.6456
 6079TIP3    H139652   5.228   0.384  12.218  0.0096  0.0666  0.0657
 6079TIP3    H239653   5.113   0.372  12.316 -0.5539 -0.8781 -0.6910
 6080TIP3   OH239654   1.733   0.915   1.167 -0.0603  0.7191 -0.4538
 6080TIP3    H139655   1.722   0.981   1.235  0.0560 -0.1185  0.3948
 6080TIP3    H239656   1.687   0.838   1.201  2.8804 -0.8446  0.3003
 6081TIP3   OH239657   5.995   3.023   0.008  0.7760 -0.3743 -0.0566
 6081TIP3    H139658   5.998   2.930   0.030  0.7554 -0.7655 -1.5869
 6081TIP3    H239659   5.986   3.025  -0.087  0.4941  1.1995 -0.0251
 6082TIP3   OH239660   1.324   1.450   3.743 -0.5531 -0.3036 -0.3269
 6082TIP3    H139661   1.379   1.467   3.667 -2.5606 -1.6233 -2.1874
 6082TIP3    H239662   1.287   1.535   3.766  1.2044  0.3713  0.1702
 6083TIP3   OH239663   2.209   5.369   5.481 -0.7188 -0.8798  0.0688
 6083TIP3    H139664   2.261   5.295   5.452 -1.1114 -0.5315 -1.6646
 6083TIP3    H239665   2.127   5.331   5.513 -0.8376 -1.2128 -0.6230
 6084TIP3   OH239666   3.170   5.807  12.228 -0.3025 -0.0107  0.4784
 6084TIP3    H139667   3.108   5.813  12.155 -1.0061 -0.9009  0.9738
 6084TIP3    H239668   3.126   5.749  12.291  1.4905 -1.5606  0.3770
 6085TIP3   OH239669   5.122   0.897   2.642 -0.1105  0.1315 -0.2695
 6085TIP3    H139670   5.027   0.897   2.634 -0.3902 -0.7117  2.2017
 6085TIP3    H239671   5.150   0.818   2.596 -0.7258 -0.2728  0.0376
 6086TIP3   OH239672   6.698   2.684   4.957  0.0971  0.3242  0.4457
 6086TIP3    H139673   6.645   2.607   4.936 -0.2528  0.4312  0.9161
 6086TIP3    H239674   6.668   2.752   4.896  0.6075  0.0094 -0.1646
 6087TIP3   OH239675   0.565   4.666  14.592 -0.1729 -0.2821  0.1458
 6087TIP3    H139676   0.566   4.570  14.593 -0.9468 -0.2955  0.1950
 6087TIP3    H239677   0.493   4.689  14.651 -0.3381  0.3238 -0.2922
 6088TIP3   OH239678   6.650   2.434  12.983  0.0893 -0.1160 -0.1589
 6088TIP3    H139679   6.602   2.517  12.982  0.6754  0.2291 -0.3595
 6088TIP3    H239680   6.711   2.441  12.909 -1.6534 -1.8181 -1.8395
 6089TIP3   OH239681   1.789   2.953   0.225  0.1900  0.1075 -0.1950
 6089TIP3    H139682   1.786   3.048   0.210 -1.9181  0.0828 -0.1899
 6089TIP3    H239683   1.767   2.943   0.318  0.1678 -0.3920 -0.2536
 6090TIP3   OH239684   6.425   3.583  12.904  0.2111 -0.0708  0.2615
 6090TIP3    H139685   6.372   3.567  12.826  2.1094  0.2718 -1.1595
 6090TIP3    H239686   6.388   3.662  12.942 -1.0697 -0.5321  0.0382
 6091TIP3   OH239687   4.614   1.601   3.106 -0.5974 -0.0679  0.4299
 6091TIP3    H139688   4.621   1.636   3.194  1.3221 -2.0292  1.1492
 6091TIP3    H239689   4.695   1.627   3.063 -0.4468 -1.1253  0.0493
 6092TIP3   OH239690   2.111   0.720  14.612 -0.8817  0.4656  0.5071
 6092TIP3    H139691   2.045   0.788  14.601 -1.0707  0.5643  2.0433
 6092TIP3    H239692   2.089   0.678  14.695 -0.2453 -0.9000  0.0150
 6093TIP3   OH239693   4.730   3.580   0.353 -0.1115  0.6563  0.3117
 6093TIP3    H139694   4.721   3.575   0.448  1.4194 -0.1048  0.4629
 6093TIP3    H239695   4.770   3.665   0.338 -1.9200  1.5233  0.1594
 6094TIP3   OH239696   2.576   3.867   4.421  0.0816  0.7232  0.3294
 6094TIP3    H139697   2.541   3.793   4.371  3.3827 -0.0590 -1.0721
 6094TIP3    H239698   2.545   3.944   4.373 -0.9009  0.1672  0.0349
 6095TIP3   OH239699   3.233   1.762  16.630  0.1457 -0.2085  0.1377
 6095TIP3    H139700   3.251   1.843  16.679  1.1081  0.4100 -1.1653
 6095TIP3    H239701   3.153   1.781  16.581  0.1071 -0.2175  0.1975
 6096TIP3   OH239702   4.344   0.461   4.671 -0.2095  0.0831 -0.2002
 6096TIP3    H139703   4.415   0.400   4.691  0.7947  0.9364 -1.1191
 6096TIP3    H239704   4.270   0.404   4.647  0.2437 -0.7987  0.4361
 6097TIP3   OH239705   1.774   0.035  14.071 -0.7592  0.2758 -0.2282
 6097TIP3    H139706   1.750  -0.003  13.987  0.6267 -2.1663  0.3786
 6097TIP3    H239707   1.703   0.096  14.091 -2.0741 -0.4773 -2.2668
 6098TIP3   OH239708   4.298   0.859   6.039  0.1400 -0.4164  0.0861
 6098TIP3    H139709   4.263   0.803   6.108  0.6899 -1.0106 -0.1131
 6098TIP3    H239710   4.392   0.838   6.035  0.6338  1.3730  0.8370
 6099TIP3   OH239711   5.993   6.154   5.577  0.1167 -0.0060  0.4036
 6099TIP3    H139712   6.020   6.064   5.564  1.2255  0.3950 -0.1846
 6099TIP3    H239713   5.898   6.149   5.590  0.2547 -1.3097  1.0889
 6100TIP3   OH239714   6.712   2.976  11.166 -0.0953  0.3109 -0.1520
 6100TIP3    H139715   6.784   2.913  11.157  0.6505  1.1849 -0.5609
 6100TIP3    H239716   6.749   3.059  11.134 -0.9828  1.0033  0.5470
 6101TIP3   OH239717   5.967   4.609   4.767  0.0379 -0.1206 -0.2405
 6101TIP3    H139718   6.046   4.595   4.716  1.0391 -2.5371  1.7854
 6101TIP3    H239719   5.991   4.677   4.830 -0.0740  0.3500 -0.6975
 6102TIP3   OH239720   0.953   2.425   5.354 -0.3244 -0.7858  0.0630
 6102TIP3    H139721   1.043   2.436   5.325 -1.0237  1.2560 -1.6063
 6102TIP3    H239722   0.948   2.474   5.436 -0.2310  0.4053 -0.6143
 6103TIP3   OH239723   6.513   1.307   5.498 -0.4730  0.4935  0.0854
 6103TIP3    H139724   6.527   1.388   5.545  1.3717  0.0632  0.3270
 6103TIP3    H239725   6.428   1.319   5.455 -2.3603  0.8253  3.5975
 6104TIP3   OH239726   6.501   3.047  14.793 -0.4049 -0.3895 -0.2003
 6104TIP3    H139727   6.542   3.045  14.880  0.8461  2.1737 -0.6425
 6104TIP3    H239728   6.571   3.075  14.734 -1.2809 -1.8763 -2.0468
 6105TIP3   OH239729   0.309   6.751   0.300  0.0518 -0.0281 -0.4277
 6105TIP3    H139730   0.308   6.679   0.238 -1.3636 -1.4575  1.1222
 6105TIP3    H239731   0.224   6.794   0.288 -0.0624 -0.0627  0.2055
 6106TIP3   OH239732   2.111   3.840  16.163 -0.2046 -0.2193  0.3038
 6106TIP3    H139733   2.046   3.894  16.117 -0.7891 -0.2870  1.0415
 6106TIP3    H239734   2.139   3.775  16.098 -1.3006 -0.5490  0.1522
 6107TIP3   OH239735   2.785   2.360   4.641 -0.1888  0.0352 -0.1428
 6107TIP3    H139736   2.823   2.415   4.572 -1.6075  0.1952 -0.8486
 6107TIP3    H239737   2.723   2.417   4.685 -3.4991 -1.4871 -2.4246
 6108TIP3   OH239738   0.316   1.399  16.816 -0.3020 -0.1094 -0.3561
 6108TIP3    H139739   0.346   1.334  16.752 -1.1746 -1.5659  0.6576
 6108TIP3    H239740   0.379   1.393  16.887 -0.9884 -0.6403  0.2174
 6109TIP3   OH239741   5.938   3.580  16.331 -0.1070 -0.0032 -0.3400
 6109TIP3    H139742   5.850   3.573  16.294  0.2283 -0.0470 -1.1440
 6109TIP3    H239743   5.924   3.621  16.417 -0.8413  0.6921 -0.7727
 6110TIP3   OH239744   1.874   0.558   3.607  0.0450 -0.1927  0.6232
 6110TIP3    H139745   1.870   0.649   3.636  0.5448  0.0960 -0.1648
 6110TIP3    H239746   1.870   0.507   3.688  2.5006  0.6000  1.3440
 6111TIP3   OH239747   3.900   1.909  12.902  0.1588  0.3747 -0.0133
 6111TIP3    H139748   3.902   1.831  12.846 -3.2291  0.7909 -0.9541
 6111TIP3    H239749   3.969   1.966  12.867 -0.1646 -0.4408 -2.1394
 6112TIP3   OH239750   1.267   0.047  16.474 -0.6143 -0.5300  0.3892
 6112TIP3    H139751   1.328   0.024  16.545 -0.7812 -1.6699  0.1861
 6112TIP3    H239752   1.316   0.026  16.394 -0.8096 -0.2290  0.1896
 6113TIP3   OH239753   4.248   3.554   2.759  0.3806 -0.0571  0.1103
 6113TIP3    H139754   4.305   3.502   2.816 -2.2886 -1.8953  1.3365
 6113TIP3    H239755   4.279   3.644   2.768  1.5694 -0.6429  2.6067
 6114TIP3   OH239756   2.844   5.182  15.244 -0.1367  0.2858 -0.3612
 6114TIP3    H139757   2.916   5.211  15.301  0.4792  0.6750 -1.3166
 6114TIP3    H239758   2.883   5.118  15.185 -0.9689 -0.7547  0.1883
 6115TIP3   OH239759   2.398   4.914   0.993  0.1544 -0.0788  0.2012
 6115TIP3    H139760   2.411   4.871   1.077 -1.6497  0.3043  0.7194
 6115TIP3    H239761   2.333   4.982   1.010 -1.3572 -0.9254 -1.7663
 6116TIP3   OH239762   2.604   3.233   6.552 -0.4477  0.3513  0.0773
 6116TIP3    H139763   2.513   3.232   6.582 -0.3262 -2.2135  0.5909
 6116TIP3    H239764   2.644   3.305   6.600 -2.3061  1.9352 -0.6097
 6117TIP3   OH239765   1.808   1.391   4.420  0.0935  0.3379  0.0778
 6117TIP3    H139766   1.784   1.367   4.509 -1.2639  3.5533  0.7221
 6117TIP3    H239767   1.725   1.399   4.374  0.8080 -2.6248 -2.0120
 6118TIP3   OH239768   3.293   0.116  13.161 -0.1448  1.1674  0.3008
 6118TIP3    H139769   3.366   0.176  13.175  0.6433 -0.0488  1.7516
 6118TIP3    H239770   3.334   0.031  13.142 -1.0946  0.2517  2.0003
 6119TIP3   OH239771   4.392   5.058   4.795 -0.9809  0.0253  0.3037
 6119TIP3    H139772   4.394   5.117   4.720 -1.2890 -0.9553 -0.5046
 6119TIP3    H239773   4.301   5.029   4.799 -0.6671 -1.0319  0.1541
 6120TIP3   OH239774   2.611   5.110   4.856 -0.2943 -0.4114 -0.2083
 6120TIP3    H139775   2.637   5.073   4.941 -0.8415 -0.9466 -0.2671
 6120TIP3    H239776   2.521   5.140   4.870  0.2472  1.2809 -0.0469
 6121TIP3   OH239777   0.978   5.116  13.938  0.1187 -0.2076 -0.0282
 6121TIP3    H139778   0.947   5.062  14.009  1.1667  0.8502  1.2948
 6121TIP3    H239779   1.047   5.170  13.977  0.9003  0.2276 -1.9011
 6122TIP3   OH239780   6.335   6.682   1.415 -0.2020 -0.6743  0.0899
 6122TIP3    H139781   6.418   6.651   1.378 -0.0145 -0.8313  0.6283
 6122TIP3    H239782   6.274   6.609   1.402 -0.1859 -0.6558 -0.0830
 6123TIP3   OH239783   3.889   0.559   6.686 -0.2405  0.3329  1.0419
 6123TIP3    H139784   3.950   0.625   6.653 -0.1752  0.5368  1.5589
 6123TIP3    H239785   3.945   0.497   6.733 -0.0789 -1.0111 -0.8077
 6124TIP3   OH239786   3.930   2.736   3.755 -0.5680  0.0971  0.2861
 6124TIP3    H139787   3.885   2.785   3.824 -0.1626  0.1006  0.5485
 6124TIP3    H239788   4.017   2.776   3.750 -0.4003 -0.2833  0.1688
 6125TIP3   OH239789   5.457   4.316  14.234  0.1098  0.4235 -0.1137
 6125TIP3    H139790   5.421   4.252  14.172 -0.0277  1.1155 -0.7784
 6125TIP3    H239791   5.379   4.357  14.273  0.1843 -0.7631  1.3626
 6126TIP3   OH239792   0.459   0.560   4.721 -0.2079  0.2577 -0.2447
 6126TIP3    H139793   0.537   0.573   4.668  1.0654 -2.4544  0.7986
 6126TIP3    H239794   0.492   0.545   4.809 -2.1238  1.8624  0.8268
 6127TIP3   OH239795   2.580   3.223   4.482 -0.6969 -0.6269 -0.1910
 6127TIP3    H139796   2.545   3.305   4.515 -0.7559 -0.5633 -0.4063
 6127TIP3    H239797   2.574   3.162   4.555  0.3478 -0.1502  0.3087
 6128TIP3   OH239798   0.592   4.274  13.945  0.3131  0.1269 -0.3182
 6128TIP3    H139799   0.594   4.303  13.854  0.0832  0.7946 -0.1169
 6128TIP3    H239800   0.591   4.355  13.996  1.6465 -0.2259  0.3128
 6129TIP3   OH239801   0.047   5.893  15.051  0.7537 -0.2198 -0.0454
 6129TIP3    H139802  -0.032   5.849  15.081  0.6762  0.2479  0.4740
 6129TIP3    H239803   0.113   5.873  15.118  1.4338 -1.6146 -1.0982
 6130TIP3   OH239804   4.786   2.912   2.600  0.1806  0.3247  0.0067
 6130TIP3    H139805   4.747   2.946   2.681 -1.9927  0.7556 -1.1327
 6130TIP3    H239806   4.818   2.990   2.555 -0.5380  0.3413 -0.4871
 6131TIP3   OH239807   1.869   0.375  13.727  0.7157 -0.2216  0.4126
 6131TIP3    H139808   1.880   0.285  13.699 -2.5584 -1.0907  1.5145
 6131TIP3    H239809   1.835   0.369  13.816  0.0769  2.0942  0.4015
 6132TIP3   OH239810   6.593   4.886   3.318 -0.5320  0.3983  0.5464
 6132TIP3    H139811   6.571   4.866   3.227 -0.7979  1.6336  0.3160
 6132TIP3    H239812   6.688   4.892   3.319 -0.5135  0.1502  0.4072
 6133TIP3   OH239813   2.527   6.636  16.644  0.2522 -0.1094  0.3929
 6133TIP3    H139814   2.451   6.684  16.677  2.2165  3.7030 -0.1096
 6133TIP3    H239815   2.575   6.610  16.722 -0.3619 -0.4377  0.6678
 6134TIP3   OH239816   4.748   0.841  16.067  0.3358  0.2312  0.1003
 6134TIP3    H139817   4.683   0.906  16.043  0.6655  0.1893 -0.9225
 6134TIP3    H239818   4.719   0.761  16.023 -0.5267 -0.5670  1.9960
 6135TIP3   OH239819   4.225   3.717   4.788 -0.8624  0.2959 -0.5388
 6135TIP3    H139820   4.143   3.724   4.838  0.2396 -0.8442  1.5795
 6135TIP3    H239821   4.239   3.623   4.779  0.3942  0.4760 -0.5430
 6136TIP3   OH239822   0.443   4.286   5.227  0.0470  0.5066 -0.6190
 6136TIP3    H139823   0.511   4.349   5.204  0.4542  0.8337  1.3281
 6136TIP3    H239824   0.435   4.230   5.150  1.3771  1.4448 -1.4771
 6137TIP3   OH239825   2.434   0.087  14.344 -0.3000 -0.3755  0.2485
 6137TIP3    H139826   2.441   0.002  14.299  1.8381 -2.1663  3.6135
 6137TIP3    H239827   2.342   0.092  14.369 -0.3872 -1.9588  0.3914
 6138TIP3   OH239828   6.304   1.001  14.553  0.7969  0.3799 -0.7047
 6138TIP3    H139829   6.254   1.006  14.634  0.3793  0.1807 -0.9451
 6138TIP3    H239830   6.246   0.954  14.492  0.5057  1.7809 -1.5621
 6139TIP3   OH239831   2.318   1.755   0.229  0.1199 -0.3928  0.0519
 6139TIP3    H139832   2.302   1.837   0.277  1.0393  0.7704 -1.5170
 6139TIP3    H239833   2.408   1.732   0.251  0.5733  0.1897 -1.1209
 6140TIP3   OH239834   2.917   4.754  12.906  0.2920 -0.5299  0.7936
 6140TIP3    H139835   2.919   4.664  12.872  2.5714 -0.5247  0.7754
 6140TIP3    H239836   2.899   4.808  12.830  2.1732 -0.7689  0.1257
 6141TIP3   OH239837   4.854   0.154  16.580 -0.4028  0.1550  0.0601
 6141TIP3    H139838   4.823   0.089  16.643 -0.6340 -0.5543 -0.7739
 6141TIP3    H239839   4.949   0.145  16.581 -0.4340 -0.1718 -0.0345
 6142TIP3   OH239840   3.573   5.859   0.377 -0.2603 -0.7604  0.3298
 6142TIP3    H139841   3.578   5.795   0.448 -0.4624 -0.0790  0.9728
 6142TIP3    H239842   3.560   5.943   0.421  0.9058 -0.1397 -0.4353
 6143TIP3   OH239843   6.120   0.049  12.333 -0.3881  0.6289  0.7780
 6143TIP3    H139844   6.035   0.064  12.292  0.1426  0.3900 -0.4472
 6143TIP3    H239845   6.149   0.136  12.359 -0.1522  0.9643 -0.5551
 6144TIP3   OH239846   0.292   3.349  17.190  0.1863  0.3062  0.2826
 6144TIP3    H139847   0.348   3.274  17.210  1.1985  1.2451  1.1318
 6144TIP3    H239848   0.314   3.372  17.100 -0.7693 -0.9165 -0.2952
 6145TIP3   OH239849   4.410   4.911  12.844 -0.4924  0.4252 -0.3005
 6145TIP3    H139850   4.362   4.842  12.890  0.2353 -0.6939 -1.1730
 6145TIP3    H239851   4.343   4.954  12.790 -0.8713  0.1544 -0.0554
 6146TIP3   OH239852   1.718   0.067   1.799 -0.1444  0.3363  0.1404
 6146TIP3    H139853   1.647   0.013   1.766  0.4299 -0.8055  0.7038
 6146TIP3    H239854   1.695   0.082   1.891  0.9277 -1.1360  0.6976
 6147TIP3   OH239855   4.528   4.058   1.804  0.5053  0.5765 -0.4566
 6147TIP3    H139856   4.539   4.054   1.709  1.1800 -0.4658 -0.3613
 6147TIP3    H239857   4.586   4.129   1.832  2.7231 -1.0864 -0.5606
 6148TIP3   OH239858   5.808   6.130  14.580 -0.4355  0.5514 -0.3501
 6148TIP3    H139859   5.846   6.058  14.630  0.8344  1.7758  0.5244
 6148TIP3    H239860   5.745   6.170  14.641  1.1176  2.0500  0.3355
 6149TIP3   OH239861   0.901   4.683   4.717 -0.4143 -0.0819  0.9652
 6149TIP3    H139862   0.970   4.620   4.699 -1.7014 -1.1110 -0.7749
 6149TIP3    H239863   0.931   4.765   4.677  0.2151 -0.2615  1.0714
 6150TIP3   OH239864   3.038   4.642   0.307  0.0151 -0.6423 -0.4327
 6150TIP3    H139865   3.113   4.702   0.307 -0.1654 -0.3522 -2.6588
 6150TIP3    H239866   2.969   4.691   0.352  0.9418 -0.6801  1.0958
 6151TIP3   OH239867   2.378   5.729   4.334  0.3442  1.1559  0.1668
 6151TIP3    H139868   2.321   5.681   4.393 -0.1314  1.6508  0.1223
 6151TIP3    H239869   2.453   5.754   4.388  1.6245 -1.4042 -0.3214
 6152TIP3   OH239870   3.422   1.978   0.754  0.4332  0.0667 -0.3314
 6152TIP3    H139871   3.333   1.953   0.728 -0.4887  1.8565  0.9680
 6152TIP3    H239872   3.455   2.029   0.680 -0.6194  1.5807  0.1989
 6153TIP3   OH239873   0.820   3.126  15.698 -0.4825  0.5315 -0.0811
 6153TIP3    H139874   0.839   3.209  15.742 -0.6915 -0.1250  1.3241
 6153TIP3    H239875   0.819   3.147  15.605 -0.9539  2.1908  0.2675
 6154TIP3   OH239876   1.661   3.805  14.065 -0.0792  0.5570  0.3524
 6154TIP3    H139877   1.710   3.838  14.140  2.7668 -2.0788 -0.1357
 6154TIP3    H239878   1.569   3.809  14.092  0.8027 -0.4837  4.1268
 6155TIP3   OH239879   2.909   5.923  12.831 -0.1435 -0.1221  0.0474
 6155TIP3    H139880   2.891   5.972  12.751  0.0114  0.8230  0.5748
 6155TIP3    H239881   2.990   5.962  12.865  1.3886 -2.3742 -0.7832
 6156TIP3   OH239882   5.873   4.600   1.021 -0.1194  0.6749 -0.4062
 6156TIP3    H139883   5.789   4.557   1.032  0.1891  0.4484  1.2922
 6156TIP3    H239884   5.851   4.691   0.999 -0.8194  0.7584  0.5873
 6157TIP3   OH239885   0.396   4.610   4.629 -0.1955  0.2122  0.2754
 6157TIP3    H139886   0.409   4.553   4.553 -1.2403 -0.1919  0.3772
 6157TIP3    H239887   0.370   4.694   4.591  0.4613  0.3717  0.1580
 6158TIP3   OH239888   0.095   1.447   3.423  0.0456 -0.2145  0.2080
 6158TIP3    H139889   0.013   1.413   3.459  0.6149 -0.7766  1.0269
 6158TIP3    H239890   0.102   1.408   3.336 -2.4135  2.8244 -1.5501
 6159TIP3   OH239891   6.785   3.042  15.090 -0.2389  0.1730  0.0828
 6159TIP3    H139892   6.723   3.107  15.122  0.0825  0.1112  0.8534
 6159TIP3    H239893   6.817   3.077  15.007 -0.1924  0.9248  0.4115
 6160TIP3   OH239894   1.524   1.301   3.866  0.0482  0.2401 -0.3768
 6160TIP3    H139895   1.602   1.356   3.871  0.0721  0.3506 -1.6451
 6160TIP3    H239896   1.453   1.361   3.843 -0.6722  0.3311  1.8225
 6161TIP3   OH239897   1.939   6.745   3.335 -0.3094 -0.1131 -0.1577
 6161TIP3    H139898   1.908   6.834   3.351 -2.6685 -1.1815  1.9027
 6161TIP3    H239899   1.885   6.713   3.263 -1.4452 -0.7420  0.9431
 6162TIP3   OH239900   1.020   3.367  16.671  0.0449  0.1389  0.2167
 6162TIP3    H139901   1.012   3.439  16.608  0.2490 -0.2924 -0.3110
 6162TIP3    H239902   0.950   3.306  16.647  1.3893 -1.0399 -0.9691
 6163TIP3   OH239903   4.996   4.052   5.553 -0.0725  0.0869  0.3346
 6163TIP3    H139904   4.910   4.011   5.558 -0.3449  0.4857 -0.6851
 6163TIP3    H239905   4.977   4.146   5.558  0.3970  0.1500  1.0599
 6164TIP3   OH239906   4.663   5.538   4.560  0.3360 -0.3324 -0.3592
 6164TIP3    H139907   4.715   5.468   4.599  1.0677 -0.2153 -1.0998
 6164TIP3    H239908   4.591   5.552   4.622  1.3166 -0.3316  0.8064
 6165TIP3   OH239909   3.645   6.203   3.196  0.4423  0.3369  0.4587
 6165TIP3    H139910   3.614   6.217   3.286  0.4623  1.3355  0.3165
 6165TIP3    H239911   3.603   6.271   3.145 -0.8110 -1.1681 -0.6099
 6166TIP3   OH239912   5.913   2.407   5.667 -0.2925  0.0259  0.3247
 6166TIP3    H139913   5.835   2.397   5.721 -0.0394 -0.5110  0.5917
 6166TIP3    H239914   5.937   2.499   5.677 -0.8577  0.1829  0.2786
 6167TIP3   OH239915   2.749   2.874  15.330 -0.2510  0.3062  0.6616
 6167TIP3    H139916   2.688   2.933  15.286 -0.5539 -1.2790 -1.2019
 6167TIP3    H239917   2.715   2.867  15.420 -2.9855 -0.6555 -0.3485
 6168TIP3   OH239918   6.307   0.292  16.339  0.1729 -0.0429  0.5288
 6168TIP3    H139919   6.396   0.265  16.362  0.8992  1.0766 -0.8658
 6168TIP3    H239920   6.318   0.357  16.270 -1.4646  3.3134  3.0789
 6169TIP3   OH239921   0.623   5.407  10.727 -0.3145 -0.2125 -0.0055
 6169TIP3    H139922   0.590   5.331  10.680 -2.3648  0.8998 -0.4692
 6169TIP3    H239923   0.594   5.393  10.818  0.1827 -0.4515  0.1196
 6170TIP3   OH239924   1.672   2.193  13.780 -0.2369 -0.1503 -0.2191
 6170TIP3    H139925   1.697   2.213  13.690 -1.1874  0.0183 -0.4621
 6170TIP3    H239926   1.730   2.121  13.806  0.0141 -0.2325 -0.9808
 6171TIP3   OH239927   6.083   4.449   1.505  0.9545  0.8238  0.3235
 6171TIP3    H139928   6.088   4.427   1.598  0.6177 -2.3350 -0.2915
 6171TIP3    H239929   5.997   4.416   1.478  0.8685  2.0834 -1.0604
 6172TIP3   OH239930   6.284   5.475   1.618  0.5590  0.1431 -0.2787
 6172TIP3    H139931   6.274   5.493   1.712 -0.6232 -1.1633 -0.1102
 6172TIP3    H239932   6.334   5.394   1.614 -1.3917 -1.1319 -0.6257
 6173TIP3   OH239933   4.756   2.949   2.898 -0.0814 -0.5193  0.2059
 6173TIP3    H139934   4.729   2.863   2.865 -2.3119  0.8159 -1.7916
 6173TIP3    H239935   4.690   2.972   2.963  0.8231 -0.5120  1.1460
 6174TIP3   OH239936   5.998   1.459  12.672 -0.6535  0.0209 -0.2517
 6174TIP3    H139937   5.998   1.525  12.741 -1.2744 -0.7499  0.4935
 6174TIP3    H239938   6.043   1.502  12.599  0.6367  0.6171  0.8371
 6175TIP3   OH239939   2.517   6.274  14.480  0.5319  0.1058  0.2499
 6175TIP3    H139940   2.597   6.239  14.520  1.2776  1.3241 -0.1282
 6175TIP3    H239941   2.446   6.228  14.526  1.4196 -2.2045 -0.5023
 6176TIP3   OH239942   0.357   3.022  12.304  0.1229  0.2720 -0.2161
 6176TIP3    H139943   0.429   3.057  12.252 -1.0856  0.1347 -2.0892
 6176TIP3    H239944   0.383   3.037  12.395  1.1912  2.9275 -0.8492
 6177TIP3   OH239945   0.676   5.709  11.577 -0.2869  0.5651 -0.0081
 6177TIP3    H139946   0.720   5.625  11.565 -0.0600  0.6486  0.2287
 6177TIP3    H239947   0.607   5.691  11.640 -2.4534 -0.2250 -2.4221
 6178TIP3   OH239948   4.330   0.237   1.075 -0.4154 -0.4151 -0.2554
 6178TIP3    H139949   4.255   0.224   1.133  1.3878 -0.6658  2.1702
 6178TIP3    H239950   4.330   0.331   1.055  0.5540  0.2840  2.6464
 6179TIP3   OH239951   0.510   3.220  15.188  0.2232  0.0335  0.6012
 6179TIP3    H139952   0.525   3.229  15.282  0.6327  0.9425  0.4552
 6179TIP3    H239953   0.463   3.299  15.164  2.5778  1.2074 -0.4582
 6180TIP3   OH239954   2.691   0.048   2.324 -0.2848  0.6527  0.4344
 6180TIP3    H139955   2.699   0.022   2.416 -1.0864 -0.3521  0.2311
 6180TIP3    H239956   2.626  -0.012   2.288  0.9989  0.1484 -1.1307
 6181TIP3   OH239957   6.717   2.885  14.470 -0.2203 -0.0352  0.2396
 6181TIP3    H139958   6.627   2.900  14.442 -0.1958 -0.0472  0.1538
 6181TIP3    H239959   6.741   2.802  14.427  0.0836  0.3455 -0.3386
 6182TIP3   OH239960   5.353   3.884  16.905 -0.0968 -0.6215 -1.0247
 6182TIP3    H139961   5.319   3.964  16.865 -0.8273  0.4372  1.5270
 6182TIP3    H239962   5.279   3.823  16.903 -0.1739 -0.5251 -1.1411
 6183TIP3   OH239963   0.615   4.731  11.309 -0.5246  0.3545  0.2106
 6183TIP3    H139964   0.656   4.813  11.337  0.9571 -0.9481  2.1678
 6183TIP3    H239965   0.589   4.689  11.390  0.4503 -1.9404 -0.5911
 6184TIP3   OH239966   0.648   0.742  14.976  0.0928 -0.6868 -0.5686
 6184TIP3    H139967   0.713   0.675  14.997 -1.3398 -2.3030 -1.0016
 6184TIP3    H239968   0.579   0.694  14.929 -0.4036  1.3360 -2.0512
 6185TIP3   OH239969   3.415   3.047   4.097  0.2655  0.2287  0.2177
 6185TIP3    H139970   3.373   3.049   4.011 -0.1251 -2.2699  0.2706
 6185TIP3    H239971   3.509   3.037   4.078  0.4819  2.0409  0.1276
 6186TIP3   OH239972   0.673   0.537  12.275 -0.4437 -0.0101 -0.0345
 6186TIP3    H139973   0.689   0.477  12.348 -1.8338  0.3456  0.5889
 6186TIP3    H239974   0.669   0.624  12.315 -0.5576  0.2669 -0.6311
 6187TIP3   OH239975   5.465   0.128   0.165  0.4470  0.0789  0.0168
 6187TIP3    H139976   5.467   0.132   0.261  0.1535  1.7011 -0.0157
 6187TIP3    H239977   5.516   0.204   0.137 -0.8367  0.5709 -1.0960
 6188TIP3   OH239978   1.186   0.054  16.015  0.3035 -0.5475 -0.7785
 6188TIP3    H139979   1.186   0.033  15.922  0.4212 -2.9904 -0.2945
 6188TIP3    H239980   1.098   0.030  16.045  0.7104 -1.1274 -0.0139
 6189TIP3   OH239981   6.268   2.887  17.140 -0.4965  0.1837 -0.0494
 6189TIP3    H139982   6.324   2.964  17.132 -0.0089 -0.1629 -0.0404
 6189TIP3    H239983   6.219   2.901  17.221 -1.0627  0.8963 -0.5004
 6190TIP3   OH239984   5.764   3.177  16.997 -0.3421 -0.1130  0.5945
 6190TIP3    H139985   5.695   3.128  17.042 -1.4907  0.2525 -0.7056
 6190TIP3    H239986   5.809   3.113  16.943 -2.7792  0.3635 -2.2451
 6191TIP3   OH239987   5.964   0.033  13.004  0.0481 -0.3611  0.7120
 6191TIP3    H139988   5.895  -0.030  12.988 -1.5486  1.0279  1.7451
 6191TIP3    H239989   6.045  -0.018  13.000 -0.9297 -1.8737 -1.4094
 6192TIP3   OH239990   1.956   0.031   5.206  0.7933  0.7480  0.1133
 6192TIP3    H139991   1.998  -0.055   5.214  0.3791  0.6749  1.9457
 6192TIP3    H239992   1.884   0.029   5.269 -1.5010  1.1892 -2.2840
 6193TIP3   OH239993   5.926   4.381   4.916 -0.3974 -0.1597  0.0292
 6193TIP3    H139994   5.995   4.371   4.982 -0.0199  1.5878 -0.0689
 6193TIP3    H239995   5.941   4.468   4.878 -2.1887 -0.0699 -0.5386
 6194TIP3   OH239996   3.057   5.603  11.774 -0.7806  0.3780 -0.1617
 6194TIP3    H139997   3.144   5.587  11.810 -1.0274 -1.3914 -0.2816
 6194TIP3    H239998   2.997   5.576  11.843 -1.2486  0.2510 -0.6146
 6195TIP3   OH239999   0.440   2.055  16.929 -0.0303 -0.1818  0.3409
 6195TIP3    H140000   0.461   2.080  17.019  0.9650  2.3336 -0.4909
 6195TIP3    H240001   0.398   2.133  16.892  0.5173 -0.7618 -1.6522
 6196TIP3   OH240002   1.671   0.551   5.455 -0.4159  0.3590  0.1939
 6196TIP3    H140003   1.726   0.553   5.533 -1.2834 -2.4748  0.9872
 6196TIP3    H240004   1.582   0.546   5.488 -0.8590  0.0514 -0.9880
 6197TIP3   OH240005   0.576   4.455   1.142 -0.3411 -0.2203 -0.2013
 6197TIP3    H140006   0.587   4.383   1.080  0.5421  1.0790 -1.6350
 6197TIP3    H240007   0.483   4.452   1.166 -0.6433 -0.9314 -1.3735
 6198TIP3   OH240008   5.982   5.078  13.295 -0.1359 -0.0382 -0.6836
 6198TIP3    H140009   6.001   5.032  13.213 -0.6506  0.8731 -1.3333
 6198TIP3    H240010   5.961   5.168  13.268  0.3818  0.4573  0.5170
 6199TIP3   OH240011   4.138   4.465  12.878 -0.1490 -0.0863  0.1901
 6199TIP3    H140012   4.169   4.376  12.864 -0.4318  0.0625 -1.5502
 6199TIP3    H240013   4.042   4.458  12.875 -0.2566 -0.0119  2.1168
 6200TIP3   OH240014   5.605   0.124  11.685  0.2822  0.2857  0.0125
 6200TIP3    H140015   5.576   0.074  11.609 -2.2988  1.0620  0.3649
 6200TIP3    H240016   5.584   0.069  11.760 -1.9488  1.4608  0.3626
 6201TIP3   OH240017   2.259   1.031   5.479 -0.2589  0.4677 -0.7498
 6201TIP3    H140018   2.319   0.961   5.455 -1.7328 -0.9356 -0.4940
 6201TIP3    H240019   2.229   1.009   5.567 -2.2357  0.2992 -1.4115
 6202TIP3   OH240020   6.037   4.903  12.492 -0.1357  0.4754  0.5472
 6202TIP3    H140021   5.952   4.933  12.523 -0.2040  1.1913 -0.3061
 6202TIP3    H240022   6.099   4.968  12.525  0.0594  0.0859  0.9652
 6203TIP3   OH240023   4.745   0.924   0.413  0.6338  0.0019  0.3937
 6203TIP3    H140024   4.738   0.872   0.493 -1.4843  1.6393  1.3681
 6203TIP3    H240025   4.794   1.002   0.440  1.9760 -0.4717 -0.5486
 6204TIP3   OH240026   5.610   4.341   1.447  0.0232  0.3708 -0.0454
 6204TIP3    H140027   5.600   4.377   1.359 -0.0659  0.1614 -0.1214
 6204TIP3    H240028   5.580   4.251   1.440  0.4366  0.2164  0.0967
 6205TIP3   OH240029   6.165   3.050  12.737  0.4133 -0.5192 -0.4408
 6205TIP3    H140030   6.121   3.073  12.819 -0.1587 -1.4650 -0.4632
 6205TIP3    H240031   6.249   3.012  12.765 -0.3482 -2.1103 -0.1892
 6206TIP3   OH240032   4.970   4.134  16.784  0.5099 -0.2744  0.0109
 6206TIP3    H140033   5.034   4.152  16.854 -1.1069  0.5261  1.3476
 6206TIP3    H240034   4.915   4.065  16.820  0.1165 -0.3840 -0.7945
 6207TIP3   OH240035   6.351   1.726  16.802  0.0409  0.4894  0.1432
 6207TIP3    H140036   6.395   1.795  16.751 -1.6753  2.5414  1.2862
 6207TIP3    H240037   6.265   1.718  16.761  0.0904 -0.7609  0.2607
 6208TIP3   OH240038   1.243   3.604  15.532 -0.4026 -0.1818 -0.2035
 6208TIP3    H140039   1.315   3.542  15.525 -0.1937  0.0882 -0.4254
 6208TIP3    H240040   1.183   3.564  15.596  0.1911 -0.1538  0.3841
 6209TIP3   OH240041   4.794   3.025   1.963  0.2392  0.0986 -0.0667
 6209TIP3    H140042   4.761   3.017   2.052  0.7547  0.4312  0.1645
 6209TIP3    H240043   4.769   2.943   1.920  0.1225 -0.1293  0.4294
 6210TIP3   OH240044   0.341   4.587  17.077  0.1179  0.2002 -0.6261
 6210TIP3    H140045   0.401   4.518  17.106 -0.8066 -0.2614  0.2365
 6210TIP3    H240046   0.390   4.668  17.092  0.8256 -0.2002 -0.6950
 6211TIP3   OH240047   3.376   3.563  12.709 -0.9010 -0.0612  0.6065
 6211TIP3    H140048   3.431   3.511  12.768 -0.7766 -1.2360 -0.5047
 6211TIP3    H240049   3.288   3.555  12.745 -0.9778 -1.5452  0.1249
 6212TIP3   OH240050   0.138   5.339  12.061  0.0638  0.2465  0.4956
 6212TIP3    H140051   0.139   5.368  12.152  0.1410 -0.0941  0.6038
 6212TIP3    H240052   0.129   5.420  12.011  1.0913  0.5362  0.7614
 6213TIP3   OH240053   4.068   3.147   6.162  0.5737  0.5192 -0.3651
 6213TIP3    H140054   3.987   3.101   6.142 -0.0251  1.2432  0.3188
 6213TIP3    H240055   4.064   3.228   6.112  1.7020 -0.2132 -1.6957
 6214TIP3   OH240056   0.913   2.288  11.281 -0.7514  0.6177 -0.1743
 6214TIP3    H140057   0.923   2.235  11.360 -0.9995  0.9741  0.1025
 6214TIP3    H240058   1.003   2.309  11.255 -0.6696  0.5433  0.0452
 6215TIP3   OH240059   0.482   4.587  11.861  0.1675  0.0430 -0.3188
 6215TIP3    H140060   0.388   4.593  11.877 -0.1133  0.3791 -1.9198
 6215TIP3    H240061   0.521   4.649  11.923 -0.8110  1.0729 -0.7012
 6216TIP3   OH240062   3.360   2.882  14.100 -0.5100  0.1525  0.3705
 6216TIP3    H140063   3.438   2.855  14.051 -0.5655 -0.5914  0.6797
 6216TIP3    H240064   3.336   2.804  14.151 -1.4483  0.3876  0.2888
 6217TIP3   OH240065   0.290   0.120  16.302 -0.3652  0.2785  0.8575
 6217TIP3    H140066   0.344   0.191  16.335 -0.1685  0.9351 -0.7863
 6217TIP3    H240067   0.257   0.076  16.380  0.6465  1.3049  1.8910
 6218TIP3   OH240068   0.196   0.768  11.852 -0.2802  0.4952  0.9420
 6218TIP3    H140069   0.147   0.849  11.870 -1.7856 -0.5344  1.6796
 6218TIP3    H240070   0.133   0.711  11.808  0.7380 -0.3052  0.4853
 6219TIP3   OH240071   1.992   0.577  13.938  0.0441 -0.9373 -0.2101
 6219TIP3    H140072   1.990   0.650  13.876  0.7307  0.3272  1.1910
 6219TIP3    H240073   1.900   0.550  13.946 -0.4193  0.6530  0.2288
 6220TIP3   OH240074   4.702   3.257  13.305 -0.4186  0.0093 -0.3385
 6220TIP3    H140075   4.747   3.200  13.367  2.2064 -1.5117 -3.3103
 6220TIP3    H240076   4.731   3.345  13.328  1.1458 -0.5933  0.1724
 6221TIP3   OH240077   5.940   2.549  10.310 -0.3642  0.3209  0.0183
 6221TIP3    H140078   6.002   2.535  10.382 -1.0005 -0.4423  0.4396
 6221TIP3    H240079   5.937   2.464  10.265  0.6195  1.0034 -1.4074
 6222TIP3   OH240080   1.243   3.670   0.193  0.1912  0.2086 -0.4935
 6222TIP3    H140081   1.184   3.609   0.237  1.9145 -1.1927 -0.0082
 6222TIP3    H240082   1.192   3.706   0.121 -1.0835 -1.3616 -0.4150
 6223TIP3   OH240083   0.734   2.051   4.116 -0.0744 -0.4335  0.0403
 6223TIP3    H140084   0.781   1.991   4.059  4.2356  0.3949  2.3084
 6223TIP3    H240085   0.741   2.136   4.073  1.0481 -0.2271  0.5978
 6224TIP3   OH240086   2.180   2.458   1.353 -0.2502 -0.3683 -0.4422
 6224TIP3    H140087   2.174   2.547   1.389 -1.4282 -0.1057 -1.2240
 6224TIP3    H240088   2.208   2.471   1.262  0.5734 -0.8792 -0.2707
 6225TIP3   OH240089   5.411   2.348   2.196 -0.5078 -0.1074 -0.4188
 6225TIP3    H140090   5.359   2.296   2.257 -1.2510  0.2414 -0.7357
 6225TIP3    H240091   5.349   2.412   2.161  0.3727  0.9748 -0.0592
 6226TIP3   OH240092   5.935   1.331  17.166  0.1819  0.2746 -0.1047
 6226TIP3    H140093   5.993   1.338  17.242 -2.3736  1.2313  1.8958
 6226TIP3    H240094   5.888   1.248  17.180 -0.4776  0.5723 -0.5191
 6227TIP3   OH240095   1.233   3.943  14.326 -0.0658  0.0368  0.9867
 6227TIP3    H140096   1.199   4.029  14.348 -0.5013  0.0134  0.4211
 6227TIP3    H240097   1.286   3.918  14.402  1.4678  1.5197  0.4500
 6228TIP3   OH240098   3.538   1.576  14.880 -0.3284 -0.9662 -0.0690
 6228TIP3    H140099   3.470   1.643  14.872 -1.2475 -2.0458 -2.0987
 6228TIP3    H240100   3.619   1.625  14.890 -0.8759  0.5372 -2.1889
 6229TIP3   OH240101   0.299   1.830  16.955 -0.4331 -0.3427  0.3442
 6229TIP3    H140102   0.333   1.919  16.940 -2.0006 -0.0783 -2.0598
 6229TIP3    H240103   0.214   1.844  16.996 -0.1121 -0.8172  1.1949
 6230TIP3   OH240104   4.059   6.051   4.554  0.0384 -0.1156 -0.3070
 6230TIP3    H140105   4.010   6.068   4.473 -1.8665 -0.3043  0.7430
 6230TIP3    H240106   4.127   6.118   4.555  0.6218 -0.6046 -2.4357
 6231TIP3   OH240107   1.399   6.251   1.838  0.3149  0.2154 -0.1874
 6231TIP3    H140108   1.433   6.210   1.918  1.8342 -0.2194 -1.0318
 6231TIP3    H240109   1.382   6.177   1.779 -0.0144  0.5945 -0.5735
 6232TIP3   OH240110   2.292   4.800   2.061  0.2574  0.2517  0.0463
 6232TIP3    H140111   2.290   4.706   2.079 -0.6403  0.0434 -0.9879
 6232TIP3    H240112   2.232   4.839   2.124 -0.8368 -0.1281 -0.7316
 6233TIP3   OH240113   1.855   5.552  13.000 -0.1932 -0.1605  0.0798
 6233TIP3    H140114   1.782   5.614  13.000  1.0737  1.4724 -1.6300
 6233TIP3    H240115   1.840   5.498  12.922 -0.2343 -0.7205  0.4637
 6234TIP3   OH240116   3.694   6.676  15.225  0.2529  0.2528 -0.2302
 6234TIP3    H140117   3.727   6.658  15.313  1.3964  1.1531 -0.4489
 6234TIP3    H240118   3.649   6.759  15.233  0.4844  0.4071 -0.5219
 6235TIP3   OH240119   2.601   6.073  16.156  0.3763 -0.4291  0.1798
 6235TIP3    H140120   2.563   6.142  16.102 -0.3709 -1.1209 -0.1999
 6235TIP3    H240121   2.694   6.073  16.133  0.2597  0.0079 -0.3025
 6236TIP3   OH240122   3.481   3.604  16.602  0.5386  0.8269  0.6885
 6236TIP3    H140123   3.486   3.590  16.507 -0.8801 -0.1264  0.7243
 6236TIP3    H240124   3.526   3.687  16.616  0.3288  1.2450 -0.8864
 6237TIP3   OH240125   2.419   1.859   5.503 -0.0588  0.4519  0.0690
 6237TIP3    H140126   2.433   1.813   5.586  0.0663 -0.4153 -0.4206
 6237TIP3    H240127   2.478   1.815   5.442 -0.8923  0.4096 -0.7200
 6238TIP3   OH240128   6.014   5.362  16.050  0.3018 -0.3749  0.1950
 6238TIP3    H140129   6.055   5.440  16.013 -0.8866  0.0582 -0.2359
 6238TIP3    H240130   6.037   5.365  16.143  0.2533  0.5053  0.1869
 6239TIP3   OH240131   6.112   5.023   3.519  0.3460  0.3069 -0.0000
 6239TIP3    H140132   6.068   5.064   3.594  1.1555 -0.0764  0.7083
 6239TIP3    H240133   6.196   4.993   3.554  1.3733  1.3886 -1.4190
 6240TIP3   OH240134   5.336   4.165  17.144  0.3391 -0.6102 -0.5051
 6240TIP3    H140135   5.355   4.209  17.061 -0.5161  0.3787 -0.1863
 6240TIP3    H240136   5.381   4.218  17.210  0.4709 -1.0241 -0.2600
 6241TIP3   OH240137   5.069   0.598   0.643  0.4787 -0.4393  0.6902
 6241TIP3    H140138   5.045   0.625   0.732 -1.5495 -0.5539  0.2358
 6241TIP3    H240139   4.993   0.547   0.613  2.1850 -2.5909 -0.2039
 6242TIP3   OH240140   1.902   3.329  13.747  0.6477 -0.4910  0.0880
 6242TIP3    H140141   1.970   3.266  13.721  0.1219 -0.6697 -0.8879
 6242TIP3    H240142   1.950   3.404  13.780  1.3098 -0.9189  0.1127
 6243TIP3   OH240143   3.519   0.062  16.489  0.1777 -0.7796  0.1518
 6243TIP3    H140144   3.603   0.022  16.467  0.8425  0.3821  0.4896
 6243TIP3    H240145   3.533   0.156  16.478 -1.2466 -0.5993 -0.3139
 6244TIP3   OH240146   4.973   0.764  14.171  0.0207  0.0661  0.0616
 6244TIP3    H140147   4.884   0.730  14.163 -0.1089  0.3802  0.1594
 6244TIP3    H240148   4.986   0.816  14.092 -0.2875  0.9321  0.5583
 6245TIP3   OH240149   2.175   0.217  14.367 -0.3476  0.2662  0.6050
 6245TIP3    H140150   2.156   0.151  14.435  0.9147  0.0637  0.7850
 6245TIP3    H240151   2.120   0.192  14.293  0.6038 -1.4308  0.4188
 6246TIP3   OH240152   0.817   1.403   1.312 -0.5500  0.1081  0.0178
 6246TIP3    H140153   0.759   1.479   1.321 -2.0946 -1.1334  1.0538
 6246TIP3    H240154   0.771   1.343   1.254  0.0873 -0.5558  0.1766
 6247TIP3   OH240155   4.445   5.542  14.036 -0.2633  0.5420  0.1609
 6247TIP3    H140156   4.533   5.536  14.000 -0.0918  0.1717  0.6391
 6247TIP3    H240157   4.400   5.464  14.004 -1.4039  2.1550 -2.6405
 6248TIP3   OH240158   5.680   0.663   4.789  0.0516 -0.1536 -0.0997
 6248TIP3    H140159   5.588   0.639   4.777 -1.0897  2.5536  2.0034
 6248TIP3    H240160   5.683   0.706   4.874  3.0283  0.9940 -0.6340
 6249TIP3   OH240161   1.701   5.832   3.148 -0.9398  0.4798 -0.3812
 6249TIP3    H140162   1.607   5.848   3.151 -1.0217 -0.1628  1.2041
 6249TIP3    H240163   1.738   5.893   3.212 -0.3395  0.2778 -0.5248
 6250TIP3   OH240164   2.317   6.181  16.823  0.4277 -0.1497  0.3988
 6250TIP3    H140165   2.226   6.160  16.800  0.3195  0.0337  0.6578
 6250TIP3    H240166   2.338   6.258  16.771  0.1969  0.2390  0.8688
 6251TIP3   OH240167   1.279   6.718   4.186 -0.2288  0.0640 -0.2321
 6251TIP3    H140168   1.223   6.765   4.248 -1.6094 -0.3581 -1.0937
 6251TIP3    H240169   1.221   6.699   4.112  1.4294  0.7462 -1.7571
 6252TIP3   OH240170   2.018   1.244   4.357  0.0876 -0.3510  0.4926
 6252TIP3    H140171   2.064   1.262   4.439  0.1500  0.3182  0.3204
 6252TIP3    H240172   1.972   1.326   4.337  1.0085 -0.1072 -0.7445
 6253TIP3   OH240173   0.616   1.223   1.263 -1.1674  0.3238 -0.4249
 6253TIP3    H140174   0.660   1.165   1.325  0.4478  1.8964 -0.0086
 6253TIP3    H240175   0.615   1.174   1.180 -2.2626 -1.3146  0.4944
 6254TIP3   OH240176   1.338   2.822   4.898  0.1916  0.1756 -0.4963
 6254TIP3    H140177   1.384   2.836   4.980  2.1010  2.0218 -1.7483
 6254TIP3    H240178   1.271   2.891   4.896 -0.1817 -0.1780 -0.2870
 6255TIP3   OH240179   6.640   6.279   0.899  0.0704  0.2282 -0.2804
 6255TIP3    H140180   6.708   6.317   0.956  0.8342 -1.7879  0.2353
 6255TIP3    H240181   6.590   6.354   0.868  2.1792  1.7489 -0.2112
 6256TIP3   OH240182   3.198   0.451   1.489  0.3958  1.4690 -0.5419
 6256TIP3    H140183   3.275   0.415   1.444  0.1207  1.7153 -1.2295
 6256TIP3    H240184   3.213   0.545   1.490  0.5376  1.4399  0.1592
 6257TIP3   OH240185   2.950   1.286   5.468  0.2905  0.3361  0.5056
 6257TIP3    H140186   2.894   1.222   5.425  0.4800 -0.2744  1.1626
 6257TIP3    H240187   2.891   1.357   5.493  0.1604  0.6525 -0.6589
 6258TIP3   OH240188   4.589   5.930   3.825 -0.6952 -0.4264  0.5731
 6258TIP3    H140189   4.627   6.017   3.833 -0.1856 -0.3920 -1.6180
 6258TIP3    H240190   4.661   5.871   3.847 -0.8805 -0.3228  1.4992
 6259TIP3   OH240191   4.419   1.025   0.090 -0.5652  0.3426 -0.6378
 6259TIP3    H140192   4.345   1.045   0.148 -0.1884  0.6393 -0.2566
 6259TIP3    H240193   4.378   0.997   0.008 -1.1127 -0.6292 -0.0565
 6260TIP3   OH240194   1.718   0.191   3.039  0.2639  0.4623 -0.2446
 6260TIP3    H140195   1.635   0.231   3.065 -0.7297 -1.3822 -0.3901
 6260TIP3    H240196   1.785   0.252   3.070 -1.0980  1.5191  0.7524
 6261TIP3   OH240197   1.743   6.072  11.589 -0.5966 -0.2277 -0.1232
 6261TIP3    H140198   1.703   6.146  11.635 -0.3287 -0.3349  0.2867
 6261TIP3    H240199   1.831   6.102  11.566  0.2170 -1.0575  1.7280
 6262TIP3   OH240200   6.359   3.233   0.345 -0.3637 -0.4376  0.4528
 6262TIP3    H140201   6.317   3.308   0.386 -0.6511 -2.0241  3.3172
 6262TIP3    H240202   6.302   3.210   0.272 -0.1376  2.1930 -0.6583
 6263TIP3   OH240203   3.160   5.777   0.765 -0.3218  0.5899  0.0049
 6263TIP3    H140204   3.085   5.834   0.783  0.0289  0.6858  1.2673
 6263TIP3    H240205   3.221   5.795   0.837  0.3148 -0.4990 -0.2452
 6264TIP3   OH240206   0.138   3.333   0.804 -0.5735  0.8046 -0.5501
 6264TIP3    H140207   0.078   3.397   0.766  0.1142  1.1744 -1.0277
 6264TIP3    H240208   0.146   3.266   0.736 -0.0397  1.0183 -0.7004
 6265TIP3   OH240209   5.183   0.652   0.092 -0.6423 -0.0439  0.2688
 6265TIP3    H140210   5.113   0.625   0.151 -0.6294  1.7881  1.1939
 6265TIP3    H240211   5.241   0.576   0.086 -1.0314 -0.5067  2.0402
 6266TIP3   OH240212   5.481   1.907  11.983  0.3130  0.5086  0.6890
 6266TIP3    H140213   5.501   1.983  12.039 -2.5094  1.9047  0.0000
 6266TIP3    H240214   5.415   1.858  12.032  0.0007  0.1208 -0.1015
 6267TIP3   OH240215   5.478   3.850   6.780  0.3776  0.7874 -0.0244
 6267TIP3    H140216   5.389   3.878   6.757  0.0060 -0.4996 -0.1904
 6267TIP3    H240217   5.473   3.755   6.786  1.8179  0.6723 -0.3269
 6268TIP3   OH240218   0.817   3.566   3.828  0.3349 -0.0875 -0.2180
 6268TIP3    H140219   0.903   3.566   3.869 -0.9886  3.2405  3.1343
 6268TIP3    H240220   0.783   3.477   3.843  1.7346 -0.3291  1.8815
 6269TIP3   OH240221   0.503   1.947   0.002 -0.1912  0.5521  1.4778
 6269TIP3    H140222   0.481   1.925   0.093 -1.7499 -0.6831  0.8576
 6269TIP3    H240223   0.531   1.864  -0.037 -0.9274  0.7492  0.4773
 6270TIP3   OH240224   6.164   0.488   3.221 -0.2669  0.6800 -0.6389
 6270TIP3    H140225   6.246   0.511   3.178  0.8013 -2.2051 -0.3487
 6270TIP3    H240226   6.173   0.524   3.310  2.0711 -1.9930  0.3493
 6271TIP3   OH240227   2.649   6.666   4.587 -0.4439  0.8194  0.6362
 6271TIP3    H140228   2.583   6.600   4.609 -1.4854  1.4866 -0.4121
 6271TIP3    H240229   2.653   6.665   4.492 -1.0635  2.8160  0.5624
 6272TIP3   OH240230   6.206   6.407   2.565  0.1079  0.3135 -0.4197
 6272TIP3    H140231   6.156   6.451   2.496 -0.5785 -0.7551 -0.6240
 6272TIP3    H240232   6.270   6.354   2.518 -1.5386 -1.8662 -0.3939
 6273TIP3   OH240233   2.301   5.747   1.841  0.6190 -0.0512  0.1844
 6273TIP3    H140234   2.394   5.769   1.844  0.8347 -0.8637 -0.2021
 6273TIP3    H240235   2.291   5.695   1.761  0.1488 -1.3907  1.0781
 6274TIP3   OH240236   4.833   1.488  16.483  0.1802  0.6991  0.5933
 6274TIP3    H140237   4.818   1.568  16.433 -1.2914  1.8155  2.6739
 6274TIP3    H240238   4.872   1.427  16.420  3.1478  3.5903 -0.6625
 6275TIP3   OH240239   0.966   1.700   4.596 -0.4282 -0.1910  0.5047
 6275TIP3    H140240   1.028   1.667   4.660 -0.3008  0.4200  0.7014
 6275TIP3    H240241   0.880   1.683   4.635 -0.3435  0.8696  1.2085
 6276TIP3   OH240242   0.026   5.194   3.879 -0.5685  0.1662 -0.0102
 6276TIP3    H140243   0.041   5.164   3.968 -0.3266 -0.6812 -0.3298
 6276TIP3    H240244   0.107   5.175   3.832  0.7999  4.0120  0.4051
 6277TIP3   OH240245   1.913   6.516   4.871  0.4069  0.3825 -0.1020
 6277TIP3    H140246   1.880   6.599   4.905 -1.7028 -0.1051 -0.7833
 6277TIP3    H240247   1.983   6.540   4.811 -0.1521  1.6856 -0.2673
 6278TIP3   OH240248   5.969   1.490  13.476  0.7147  0.3396 -0.7620
 6278TIP3    H140249   6.036   1.558  13.473  0.5745  0.6034  1.0146
 6278TIP3    H240250   5.887   1.538  13.488  0.5324 -0.1086 -0.1902
 6279TIP3   OH240251   2.296   2.527  16.887  0.2194  0.1746 -0.5937
 6279TIP3    H140252   2.232   2.512  16.957  0.6144 -1.6992 -0.5807
 6279TIP3    H240253   2.244   2.530  16.807 -0.0509  0.3756 -0.4120
 6280TIP3   OH240254   6.624   3.286   3.542 -0.1445 -0.3145  0.2209
 6280TIP3    H140255   6.557   3.236   3.496 -1.1786 -0.1140  1.4721
 6280TIP3    H240256   6.707   3.255   3.503 -0.8454 -1.8068 -0.1707
 6281TIP3   OH240257   2.036   6.464  15.487  0.5560 -0.4831  0.1181
 6281TIP3    H140258   2.089   6.468  15.566  0.1656 -0.1435  0.3691
 6281TIP3    H240259   2.100   6.456  15.416  0.8532 -3.5580  0.6083
 6282TIP3   OH240260   3.703   0.821   2.953 -0.6109  0.2020 -0.6261
 6282TIP3    H140261   3.659   0.762   2.892 -0.1149  0.7610 -1.5481
 6282TIP3    H240262   3.631   0.860   3.003 -0.9950 -0.5887 -0.5458
 6283TIP3   OH240263   3.557   5.694  15.057 -0.2145  0.3404  0.0693
 6283TIP3    H140264   3.575   5.627  15.124 -0.1405 -0.1610 -0.4457
 6283TIP3    H240265   3.462   5.692  15.048 -0.1057 -0.8915 -1.1381
 6284TIP3   OH240266   4.211   3.513   0.450  0.9264  0.1799 -0.3522
 6284TIP3    H140267   4.210   3.606   0.428  1.4732  0.2419 -0.1423
 6284TIP3    H240268   4.171   3.509   0.537  0.0474  0.1006 -0.7495
 6285TIP3   OH240269   2.106   6.767  15.472 -0.3113 -0.2706  0.1462
 6285TIP3    H140270   2.197   6.787  15.451 -0.6897  0.4836 -0.8505
 6285TIP3    H240271   2.072   6.727  15.392 -1.3538  1.2097 -0.1963
 6286TIP3   OH240272   1.211   5.108   2.392  0.2584  0.2334 -0.0073
 6286TIP3    H140273   1.222   5.013   2.396  1.9362  0.3618 -0.7158
 6286TIP3    H240274   1.294   5.144   2.424 -0.4985  1.4857  0.6566
 6287TIP3   OH240275   4.569   3.561   5.405 -0.1135  0.0811 -0.2662
 6287TIP3    H140276   4.629   3.524   5.341 -1.4189 -3.6525  0.4066
 6287TIP3    H240277   4.625   3.607   5.467  1.8199 -1.3896 -0.8283
 6288TIP3   OH240278   2.001   6.456   5.133  0.2520 -0.2267  0.3168
 6288TIP3    H140279   1.947   6.485   5.059 -0.5281  2.4542  1.7963
 6288TIP3    H240280   2.002   6.361   5.126 -1.8269 -0.1844 -1.7391
 6289TIP3   OH240281   4.676   3.851  13.620 -0.7018 -0.4718  0.5548
 6289TIP3    H140282   4.617   3.925  13.608 -0.7888 -0.8465 -1.6940
 6289TIP3    H240283   4.703   3.826  13.532  0.3657 -2.3039  1.3217
 6290TIP3   OH240284   4.990   2.946  15.280  0.6333  0.1284 -0.0390
 6290TIP3    H140285   5.016   3.016  15.219 -0.2214  1.4269  1.0352
 6290TIP3    H240286   5.062   2.884  15.276  0.8266  0.3948 -2.0192
 6291TIP3   OH240287   6.708   5.747   1.709  0.1839 -0.2456 -0.0732
 6291TIP3    H140288   6.686   5.704   1.626 -1.5779  0.4204  0.0157
 6291TIP3    H240289   6.801   5.769   1.700  0.1500 -0.6191 -1.6659
 6292TIP3   OH240290   4.107   2.441   5.328 -0.0484 -0.5163  0.0576
 6292TIP3    H140291   4.061   2.493   5.394  3.6693  0.2977  2.2861
 6292TIP3    H240292   4.068   2.469   5.245 -0.5550  3.4578  1.3753
 6293TIP3   OH240293   5.628   3.155   1.411  0.2898  0.1035 -0.1094
 6293TIP3    H140294   5.560   3.181   1.349  1.5808 -0.6074 -1.8771
 6293TIP3    H240295   5.666   3.238   1.441 -0.8347  0.4788  0.3705
 6294TIP3   OH240296   3.436   5.962  16.158  0.1732  0.2840  0.3375
 6294TIP3    H140297   3.379   6.031  16.125  1.7200  2.3209  1.7024
 6294TIP3    H240298   3.482   5.930  16.080 -1.3853 -0.0753 -0.4820
 6295TIP3   OH240299   5.387   6.322   2.057 -0.1174 -0.8019 -0.4117
 6295TIP3    H140300   5.392   6.297   2.149 -1.3417 -0.8257 -0.3349
 6295TIP3    H240301   5.301   6.291   2.028 -0.4800  0.7385 -1.1034
 6296TIP3   OH240302   3.087   3.497  10.738  0.0590  0.4859  0.2345
 6296TIP3    H140303   3.030   3.468  10.810 -1.9597  2.2573 -0.5145
 6296TIP3    H240304   3.167   3.446  10.749 -2.3660 -3.9056  0.1054
 6297TIP3   OH240305   0.136   5.444  12.312 -0.1227  0.0769  0.9741
 6297TIP3    H140306   0.104   5.435  12.402  0.5446  2.3729  1.4884
 6297TIP3    H240307   0.128   5.537  12.292  0.3905 -0.2739 -1.1133
 6298TIP3   OH240308   2.746   4.130   2.183 -0.6075  0.1364  0.5077
 6298TIP3    H140309   2.719   4.100   2.270 -1.5125  0.9568  0.5203
 6298TIP3    H240310   2.793   4.212   2.199 -0.6784  0.2324  0.2260
 6299TIP3   OH240311   3.516   4.019   2.886  0.4293 -1.2832 -0.6445
 6299TIP3    H140312   3.554   3.952   2.829 -0.9754  0.2685 -3.6409
 6299TIP3    H240313   3.528   4.101   2.838 -0.7986  0.1571  1.3661
 6300TIP3   OH240314   5.882   2.882  11.156 -0.3877 -0.0427  0.2140
 6300TIP3    H140315   5.952   2.835  11.110  0.8403 -0.0913  2.0616
 6300TIP3    H240316   5.827   2.813  11.193 -1.4983 -0.0053 -1.2504
 6301TIP3   OH240317   1.874   1.046   0.174 -0.1763  0.3518 -0.5194
 6301TIP3    H140318   1.867   1.013   0.263  1.8378 -0.4456 -0.6057
 6301TIP3    H240319   1.903   1.137   0.184  0.4079  0.1534 -0.3354
 6302TIP3   OH240320   6.415   5.134   2.330  0.0293 -0.1457  0.0797
 6302TIP3    H140321   6.486   5.188   2.295  0.5625  0.0399  1.3775
 6302TIP3    H240322   6.399   5.170   2.418 -1.0543 -0.7635  0.1561
 6303TIP3   OH240323   2.861   6.089   0.516 -0.5849  0.9517 -0.7525
 6303TIP3    H140324   2.784   6.085   0.572  0.1836  3.2301  0.6235
 6303TIP3    H240325   2.929   6.043   0.566 -0.3094  1.5490 -0.5738
 6304TIP3   OH240326   5.957   1.270  14.930 -1.0117  0.5313 -0.3939
 6304TIP3    H140327   5.966   1.360  14.962 -2.6726  0.1004  1.5044
 6304TIP3    H240328   5.889   1.275  14.863 -0.2039  0.8622 -1.2044
 6305TIP3   OH240329   4.322   6.111  16.705 -0.1024 -0.1821 -0.2990
 6305TIP3    H140330   4.389   6.048  16.680 -0.0363  0.0172 -0.6302
 6305TIP3    H240331   4.355   6.195  16.672  0.4316  0.2557  1.2055
 6306TIP3   OH240332   0.020   3.267   4.338  0.1251  0.2897  0.0239
 6306TIP3    H140333   0.078   3.205   4.295 -1.4753 -0.4160 -1.2106
 6306TIP3    H240334   0.046   3.265   4.430  0.9928 -1.2018 -0.2278
 6307TIP3   OH240335   4.186   2.758  12.971 -0.0354  0.3362 -0.0716
 6307TIP3    H140336   4.113   2.698  12.951 -2.1678  3.1787 -1.5925
 6307TIP3    H240337   4.178   2.774  13.065 -0.4919 -0.4305  0.0330
 6308TIP3   OH240338   3.078   3.056  14.376 -0.3124 -0.1844 -0.2974
 6308TIP3    H140339   3.101   3.032  14.286 -0.1166 -1.1388  0.0003
 6308TIP3    H240340   2.986   3.084  14.370  0.3819  2.1321 -1.2128
 6309TIP3   OH240341   2.043   0.315   4.536 -0.0785  0.0414 -0.3035
 6309TIP3    H140342   2.093   0.365   4.471  0.9930  0.7657  1.0399
 6309TIP3    H240343   2.109   0.268   4.587 -1.0094 -2.1262 -0.9551
 6310TIP3   OH240344   0.770   6.325   1.005 -0.1101  0.1316 -0.3026
 6310TIP3    H140345   0.680   6.343   1.030  0.3427  1.5531  0.4759
 6310TIP3    H240346   0.778   6.359   0.916 -0.2897  0.2483 -0.2760
 6311TIP3   OH240347   5.262   0.050  15.242 -0.0554 -0.9295  0.4130
 6311TIP3    H140348   5.292   0.096  15.163 -2.3140  1.1127  0.6032
 6311TIP3    H240349   5.336   0.055  15.302  0.6319  0.3080 -0.4832
 6312TIP3   OH240350   4.232   4.242  12.236  0.2546 -0.0439  0.1884
 6312TIP3    H140351   4.241   4.232  12.331  1.9830  1.1903  0.2133
 6312TIP3    H240352   4.305   4.192  12.199 -0.4521 -0.5801 -0.4993
 6313TIP3   OH240353   6.307   5.826   3.203  0.5134 -0.2146 -0.2847
 6313TIP3    H140354   6.371   5.836   3.133  0.6623  1.3220  0.0243
 6313TIP3    H240355   6.254   5.906   3.199 -1.4364 -1.4526 -0.5528
 6314TIP3   OH240356   6.546   1.340  10.842  0.5691  0.2542  0.4779
 6314TIP3    H140357   6.485   1.381  10.780  0.4682  1.3129  1.2550
 6314TIP3    H240358   6.489   1.307  10.912  0.5660 -1.9387 -0.4798
 6315TIP3   OH240359   3.543   5.794   1.697 -0.1196  0.2260  0.1488
 6315TIP3    H140360   3.601   5.738   1.645 -0.1079  1.1155 -0.8306
 6315TIP3    H240361   3.512   5.860   1.635 -1.7484  0.0991  0.7842
 6316TIP3   OH240362   1.607   4.820   2.369  0.5256 -0.4640 -0.1903
 6316TIP3    H140363   1.642   4.872   2.297 -0.0218  0.4501  0.1812
 6316TIP3    H240364   1.598   4.732   2.334  2.1508 -0.4795 -0.6245
 6317TIP3   OH240365   3.181   1.668   3.152  0.4856  0.0687  0.2197
 6317TIP3    H140366   3.115   1.720   3.106  0.1924 -0.0575  0.4948
 6317TIP3    H240367   3.264   1.703   3.121  0.3397 -1.2942 -1.8714
 6318TIP3   OH240368   6.784   4.987  14.317  0.5838 -0.6382  0.4560
 6318TIP3    H140369   6.716   4.926  14.347  0.2675  0.0028  1.0762
 6318TIP3    H240370   6.735   5.057  14.274  0.9004 -0.5157  0.2985
 6319TIP3   OH240371   3.466   2.151  15.322  0.1791  0.2123 -0.2554
 6319TIP3    H140372   3.446   2.193  15.405 -1.4338 -1.7185  0.4132
 6319TIP3    H240373   3.530   2.084  15.343 -0.4266 -0.4571 -0.5022
 6320TIP3   OH240374   4.881   2.339   0.336 -0.2912 -0.2065  0.4265
 6320TIP3    H140375   4.853   2.425   0.306  0.8268  0.0457  0.0814
 6320TIP3    H240376   4.845   2.331   0.424  0.0262  0.8181  0.6540
 6321TIP3   OH240377   3.307   6.275  15.090  0.5090 -1.0590  0.4139
 6321TIP3    H140378   3.254   6.254  15.167  0.7885 -1.4991  0.4932
 6321TIP3    H240379   3.247   6.263  15.016  0.0169  0.1418  0.6030
 6322TIP3   OH240380   2.871   2.785  14.322  0.0046 -0.3244 -0.8686
 6322TIP3    H140381   2.860   2.851  14.253  1.4110 -1.3735 -2.1771
 6322TIP3    H240382   2.803   2.721  14.305  0.3983 -0.6227 -1.3749
 6323TIP3   OH240383   1.119   5.550   4.740 -0.0696 -0.2240  0.3494
 6323TIP3    H140384   1.187   5.615   4.719 -0.9251  0.5575 -0.0582
 6323TIP3    H240385   1.164   5.487   4.797  0.6950  0.9056  1.0469
 6324TIP3   OH240386   1.511   0.916   3.363 -0.5478  0.0922  0.0268
 6324TIP3    H140387   1.516   0.870   3.447  0.0446 -0.0104 -0.0614
 6324TIP3    H240388   1.516   1.009   3.386  2.0777  0.0407 -0.0243
 6325TIP3   OH240389   5.232   3.259  13.905  0.0082  0.2371 -0.7210
 6325TIP3    H140390   5.244   3.353  13.923  3.1574 -0.4331  1.4745
 6325TIP3    H240391   5.247   3.251  13.811 -0.2064  1.8814 -0.9419
 6326TIP3   OH240392   5.381   4.742  16.949  0.1056  0.0974  0.1138
 6326TIP3    H140393   5.470   4.718  16.922 -0.5534 -1.0569 -1.2233
 6326TIP3    H240394   5.366   4.691  17.028 -0.0678 -1.3653 -0.8192
 6327TIP3   OH240395   6.274   6.126  14.638 -0.6409  0.1989 -0.0010
 6327TIP3    H140396   6.356   6.119  14.687 -0.1910 -1.9529 -0.9442
 6327TIP3    H240397   6.218   6.058  14.675 -1.0097 -0.1347 -1.1300
 6328TIP3   OH240398   4.329   0.925  16.520 -0.7506 -0.1264  0.1866
 6328TIP3    H140399   4.419   0.895  16.502 -1.3126 -2.2248  0.5994
 6328TIP3    H240400   4.341   1.005  16.571  0.8537  1.1604 -2.0215
 6329TIP3   OH240401   0.853   6.334   0.053 -0.4983 -0.3759  0.0796
 6329TIP3    H140402   0.814   6.419   0.071  1.5249  0.1218  2.5645
 6329TIP3    H240403   0.913   6.350  -0.020 -1.5035 -0.1516 -0.7240
 6330TIP3   OH240404   3.479   1.275   6.411  0.4553  0.8880 -0.0503
 6330TIP3    H140405   3.548   1.333   6.443  1.8908  0.2118 -1.7860
 6330TIP3    H240406   3.502   1.257   6.320 -0.7564 -1.2208 -0.0098
 6331TIP3   OH240407   5.063   4.196   2.614 -0.3937  0.0188  0.3765
 6331TIP3    H140408   5.065   4.122   2.553 -0.3164  0.4237 -0.1203
 6331TIP3    H240409   5.085   4.272   2.561  1.9952  0.0861  1.3536
 6332TIP3   OH240410   1.631   2.118  16.670  0.2965 -0.4298  0.5994
 6332TIP3    H140411   1.705   2.057  16.666 -0.3622 -1.1918 -0.3126
 6332TIP3    H240412   1.554   2.063  16.677 -0.5432  0.0935 -2.8134
 6333TIP3   OH240413   5.591   5.581   0.071  0.0355  0.2546  0.5966
 6333TIP3    H140414   5.560   5.662   0.031  0.8265  0.5722  0.5997
 6333TIP3    H240415   5.536   5.513   0.034  1.3291  0.4063 -1.7598
 6334TIP3   OH240416   3.638   6.343   1.008  0.3170 -0.0416 -0.1965
 6334TIP3    H140417   3.576   6.290   1.057 -0.5143  0.9293 -0.1711
 6334TIP3    H240418   3.676   6.402   1.073  3.0267 -2.1036  0.2887
 6335TIP3   OH240419   2.375   0.999   4.523 -0.4079 -0.5671 -0.4501
 6335TIP3    H140420   2.467   1.011   4.498 -0.2251  1.0848  0.8297
 6335TIP3    H240421   2.342   0.933   4.463  1.7489 -1.5553 -0.6356
 6336TIP3   OH240422   3.661   1.294   4.988 -0.2760  0.0034  0.1416
 6336TIP3    H140423   3.659   1.232   4.915 -3.0193  1.4888 -1.1877
 6336TIP3    H240424   3.680   1.240   5.064  0.8118 -1.9077 -1.3913
 6337TIP3   OH240425   2.546   5.360   1.454 -0.2886  0.0476  0.3504
 6337TIP3    H140426   2.567   5.268   1.473  0.8628  0.5993  1.9884
 6337TIP3    H240427   2.551   5.367   1.359  0.9836 -1.2869  0.2828
 6338TIP3   OH240428   2.608   2.344  12.274  0.4872 -0.2428  0.4581
 6338TIP3    H140429   2.605   2.277  12.205  0.0762 -0.6716  0.8890
 6338TIP3    H240430   2.517   2.363  12.292  0.6027  0.7128  0.0817
 6339TIP3   OH240431   4.091   0.620  11.348  0.2522 -0.4647 -0.7238
 6339TIP3    H140432   4.009   0.632  11.397 -0.2519  1.8259 -1.9450
 6339TIP3    H240433   4.086   0.686  11.279  3.3022 -0.0320 -0.6401
 6340TIP3   OH240434   0.633   0.612   3.150 -0.6133 -0.1066 -0.0365
 6340TIP3    H140435   0.728   0.608   3.139 -0.4288  2.6638 -0.0741
 6340TIP3    H240436   0.620   0.621   3.244 -0.9583 -1.7803  0.1058
 6341TIP3   OH240437   3.210   5.875  16.881  0.0648 -0.1123 -0.1455
 6341TIP3    H140438   3.150   5.849  16.951 -1.3530 -0.9323 -1.6302
 6341TIP3    H240439   3.156   5.880  16.803  2.1544 -2.5181 -1.9187
 6342TIP3   OH240440   6.286   0.998   2.059  0.2531  0.2452  0.0557
 6342TIP3    H140441   6.310   0.935   1.992 -1.1826 -0.4748  0.1845
 6342TIP3    H240442   6.357   0.992   2.124  0.6923 -0.4140 -0.4750
 6343TIP3   OH240443   0.390   4.688   6.006  0.0194  0.1371 -0.2215
 6343TIP3    H140444   0.322   4.734   6.055 -0.5816 -0.1129 -0.8076
 6343TIP3    H240445   0.408   4.610   6.059  0.3620  0.5601  0.2927
 6344TIP3   OH240446   0.920   6.221  16.913  0.3632 -0.0450  0.8619
 6344TIP3    H140447   0.925   6.138  16.865 -0.7304 -0.4397  1.4132
 6344TIP3    H240448   0.997   6.270  16.884 -0.2079 -0.3026 -1.2268
 6345TIP3   OH240449   1.524   3.637  14.301 -0.4533  0.1281 -0.7571
 6345TIP3    H140450   1.493   3.710  14.355 -1.5325 -0.1521 -0.9769
 6345TIP3    H240451   1.522   3.561  14.359 -0.7647 -0.0075 -0.9428
 6346TIP3   OH240452   2.123   4.666   0.945  0.3288  0.1605  0.8874
 6346TIP3    H140453   2.153   4.583   0.908  2.7549  1.4321 -0.2006
 6346TIP3    H240454   2.181   4.682   1.019  0.0046  0.9838  0.9741
 6347TIP3   OH240455   2.578   4.390  13.147 -0.6898 -0.3926 -0.2046
 6347TIP3    H140456   2.486   4.365  13.135 -0.3461 -1.7509 -0.2655
 6347TIP3    H240457   2.575   4.472  13.195 -1.9371 -1.0595  0.9382
 6348TIP3   OH240458   1.742   5.141   4.214 -0.0493  0.3662 -0.6330
 6348TIP3    H140459   1.714   5.087   4.140 -2.0834  0.8800 -0.3072
 6348TIP3    H240460   1.732   5.231   4.183  1.2987  0.6020 -0.4608
 6349TIP3   OH240461   6.268   4.098   5.459 -0.9815 -0.3584  0.2911
 6349TIP3    H140462   6.361   4.116   5.455 -1.1893  0.6270 -2.2232
 6349TIP3    H240463   6.256   4.044   5.537  1.2665  1.6500  2.1444
 6350TIP3   OH240464   3.847   4.948   2.917 -0.4688  0.0499 -0.2741
 6350TIP3    H140465   3.892   4.955   3.001 -1.4236 -0.4155  0.2923
 6350TIP3    H240466   3.881   5.021   2.865  2.9479 -1.7444 -0.8634
 6351TIP3   OH240467   6.384   3.563  16.602  0.2159  0.3037 -0.5303
 6351TIP3    H140468   6.333   3.644  16.603  0.0344  0.1961 -0.8410
 6351TIP3    H240469   6.411   3.550  16.692 -1.3951 -0.3366 -0.1041
 6352TIP3   OH240470   3.698   5.265  14.908 -0.2199  0.4298  0.2802
 6352TIP3    H140471   3.635   5.196  14.928 -0.5268  1.3018  2.5843
 6352TIP3    H240472   3.776   5.241  14.957  1.2948 -0.5461 -2.4113
 6353TIP3   OH240473   6.690   2.273  11.776 -0.1349  0.3369  0.2537
 6353TIP3    H140474   6.771   2.245  11.734  0.1124  1.0219  0.2460
 6353TIP3    H240475   6.696   2.240  11.866  0.1330  0.3491  0.2396
 6354TIP3   OH240476   6.364   6.692   4.205 -0.4157  0.6125 -0.1817
 6354TIP3    H140477   6.343   6.709   4.114 -0.4347 -0.5043 -0.4020
 6354TIP3    H240478   6.405   6.772   4.236  0.6617  0.6076 -1.5014
 6355TIP3   OH240479   3.297   2.802   3.237 -0.2289 -0.1350 -0.4539
 6355TIP3    H140480   3.291   2.801   3.332  0.4948 -2.1606 -0.3732
 6355TIP3    H240481   3.209   2.780   3.207 -0.7164  1.5256 -0.3175
 6356TIP3   OH240482   2.589   1.592  14.983 -0.6377 -0.0838  0.0275
 6356TIP3    H140483   2.639   1.575  14.904 -0.9622 -0.2112 -0.1523
 6356TIP3    H240484   2.534   1.514  14.994  0.5239 -0.7958  1.2572
 6357TIP3   OH240485   3.549   6.126  15.626  0.1912  0.2855 -0.4032
 6357TIP3    H140486   3.605   6.186  15.677 -0.2625  1.5722 -1.3551
 6357TIP3    H240487   3.590   6.124  15.540 -0.8046  0.6537 -0.8948
 6358TIP3   OH240488   5.631   5.386  13.286 -0.2291  0.0788 -0.0689
 6358TIP3    H140489   5.540   5.374  13.261 -0.3531  0.2321  0.3089
 6358TIP3    H240490   5.647   5.480  13.274  0.0348 -0.0327 -0.6463
 6359TIP3   OH240491   2.902   1.077  14.160 -0.9585  0.5838 -0.5868
 6359TIP3    H140492   2.966   1.023  14.113 -0.0702  0.8027  0.3317
 6359TIP3    H240493   2.817   1.048  14.127 -0.4243 -0.2931 -1.2348
 6360TIP3   OH240494   6.734   0.349   0.346 -0.3923  0.0190  0.4859
 6360TIP3    H140495   6.715   0.358   0.439 -1.2638 -0.9530  0.4179
 6360TIP3    H240496   6.673   0.282   0.315  0.7883 -0.6624 -0.4940
 6361TIP3   OH240497   1.414   0.188  12.948 -0.1215  0.4203 -0.0696
 6361TIP3    H140498   1.449   0.100  12.960  1.4154  1.0787  0.5161
 6361TIP3    H240499   1.491   0.243  12.932 -0.8959  1.8728  0.9297
 6362TIP3   OH240500   3.190   4.076  13.846  0.5534  0.0569  0.6224
 6362TIP3    H140501   3.190   3.996  13.898 -0.2773 -0.1366  0.3484
 6362TIP3    H240502   3.098   4.104  13.845  0.3181 -0.6120 -1.7295
 6363TIP3   OH240503   4.916   6.072   0.485  0.2818 -0.0249 -0.4603
 6363TIP3    H140504   4.890   5.980   0.477  0.9465 -0.0396 -3.5572
 6363TIP3    H240505   5.010   6.068   0.502 -0.0642  0.1425  1.8651
 6364TIP3   OH240506   1.730   4.610  11.511 -0.0439  0.1598 -0.0795
 6364TIP3    H140507   1.691   4.689  11.474  0.5608 -0.3701 -1.9597
 6364TIP3    H240508   1.663   4.576  11.570 -1.1706  0.9240 -0.8747
 6365TIP3   OH240509   0.587   5.440  12.679 -0.0246  0.7952  0.2350
 6365TIP3    H140510   0.674   5.403  12.695  0.5686  2.2647  0.6518
 6365TIP3    H240511   0.570   5.422  12.587  0.3862 -0.1639  0.3334
 6366TIP3   OH240512   6.315   5.857  14.146 -0.5843  0.3459  0.2052
 6366TIP3    H140513   6.247   5.814  14.095 -0.6008  1.2989 -0.6025
 6366TIP3    H240514   6.374   5.787  14.172 -1.7718 -0.4696  0.7710
 6367TIP3   OH240515   5.006   1.526   1.363  0.0316  0.7698  0.1795
 6367TIP3    H140516   5.074   1.591   1.382  1.5082 -0.8385  0.6761
 6367TIP3    H240517   5.018   1.459   1.431 -1.2474 -0.1691 -0.4833
 6368TIP3   OH240518   5.072   2.059   4.671  0.0688 -0.0320  0.2093
 6368TIP3    H140519   5.141   2.063   4.605  0.9452  1.1248  1.1753
 6368TIP3    H240520   5.002   2.113   4.635  0.3460  0.2026  0.0172
 6369TIP3   OH240521   1.284   4.166  15.286 -0.0471  0.3913  0.2129
 6369TIP3    H140522   1.352   4.229  15.260  0.0564  0.4943  0.7297
 6369TIP3    H240523   1.246   4.203  15.365  0.2396 -0.3586  0.7091
 6370TIP3   OH240524   3.627   5.196  13.222  0.4830 -0.0328  0.2530
 6370TIP3    H140525   3.569   5.245  13.280 -1.1276 -0.4446 -0.9534
 6370TIP3    H240526   3.655   5.120  13.274 -2.0928 -1.1830  0.0994
 6371TIP3   OH240527   0.134   3.151   6.013 -0.4439 -0.2914 -0.0068
 6371TIP3    H140528   0.076   3.152   6.089 -1.5419 -0.7319 -0.8032
 6371TIP3    H240529   0.218   3.182   6.046 -1.3518  1.2259  0.9922
 6372TIP3   OH240530   5.477   5.020   6.007  0.3013  0.1092  0.1530
 6372TIP3    H140531   5.501   5.061   5.924 -0.1121 -0.5423 -0.2941
 6372TIP3    H240532   5.407   4.959   5.985  1.7979 -1.8570  0.5824
 6373TIP3   OH240533   1.370   1.532  15.184 -0.3142  0.0098  0.3625
 6373TIP3    H140534   1.334   1.474  15.252  0.1835 -2.2754 -1.2236
 6373TIP3    H240535   1.294   1.555  15.130 -0.2910 -0.2571  0.2173
 6374TIP3   OH240536   5.061   6.704   4.283  0.0338  0.1332  0.1937
 6374TIP3    H140537   5.069   6.609   4.279 -2.1630 -0.1103  0.5855
 6374TIP3    H240538   5.079   6.734   4.194 -0.6305 -0.7727 -0.2569
 6375TIP3   OH240539   5.767   1.192  15.934 -1.1901 -0.0939  0.2520
 6375TIP3    H140540   5.688   1.227  15.894 -0.6060 -0.8714 -1.7012
 6375TIP3    H240541   5.804   1.134  15.867  1.2210  0.5347  0.9231
 6376TIP3   OH240542   4.807   0.375   4.232  0.0549 -0.0561 -0.4494
 6376TIP3    H140543   4.804   0.295   4.179 -0.3572  0.7249 -1.6185
 6376TIP3    H240544   4.769   0.348   4.316 -1.6251 -0.7172 -1.3613
 6377TIP3   OH240545   0.760   2.181   2.750  0.2930  0.1878 -0.1828
 6377TIP3    H140546   0.712   2.260   2.774 -0.2783 -0.8581  2.4696
 6377TIP3    H240547   0.852   2.204   2.766  0.1974  0.5485 -0.1389
 6378TIP3   OH240548   2.443   2.092  15.049 -0.3874  0.4564  0.0430
 6378TIP3    H140549   2.436   2.033  15.124  2.0914 -0.7179 -0.5541
 6378TIP3    H240550   2.473   2.175  15.087 -1.6100  0.6743  0.5987
 6379TIP3   OH240551   0.194   1.330  14.699  0.1573  0.1313 -0.3363
 6379TIP3    H140552   0.246   1.269  14.647 -0.5999 -0.5358 -0.3298
 6379TIP3    H240553   0.118   1.349  14.645 -0.3229 -0.0729  0.2581
 6380TIP3   OH240554   5.375   4.980   2.699 -0.3873 -0.7423  0.2801
 6380TIP3    H140555   5.368   4.989   2.604 -0.5207 -1.4610  0.2189
 6380TIP3    H240556   5.356   4.888   2.716 -1.3647 -0.4177  1.0955
 6381TIP3   OH240557   4.108   5.862   5.715 -0.2610  0.4384  0.2506
 6381TIP3    H140558   4.033   5.835   5.662 -0.9781 -0.7985  1.8210
 6381TIP3    H240559   4.135   5.946   5.677 -1.7077  0.3580 -1.0544
 6382TIP3   OH240560   1.981   3.367   1.228 -0.5253  0.9927  0.7613
 6382TIP3    H140561   1.995   3.430   1.299  0.8145  0.3167  1.1363
 6382TIP3    H240562   1.956   3.286   1.274 -2.6368  1.3053  0.2682
 6383TIP3   OH240563   3.877   5.230  15.686  0.0536  0.0576 -0.1844
 6383TIP3    H140564   3.817   5.206  15.615 -0.2336 -0.8313  0.3320
 6383TIP3    H240565   3.821   5.274  15.750  0.2810  0.7137 -0.4368
 6384TIP3   OH240566   6.336   1.797  12.960  0.0368 -0.3079  0.4305
 6384TIP3    H140567   6.319   1.864  13.025 -0.4208  0.1901 -0.1946
 6384TIP3    H240568   6.428   1.773  12.974  0.1873  0.4090  0.6859
 6385TIP3   OH240569   1.707   0.075  13.799  0.2921  0.5215 -0.2378
 6385TIP3    H140570   1.750   0.119  13.726  0.3621  1.3081  0.2679
 6385TIP3    H240571   1.622   0.119  13.807  0.8842  1.4954  1.1086
 6386TIP3   OH240572   4.897   5.379   6.873 -0.2493 -0.8414  0.2545
 6386TIP3    H140573   4.992   5.396   6.876 -0.0964 -1.4703 -0.7186
 6386TIP3    H240574   4.889   5.284   6.874 -0.8083 -0.8244 -0.8621
 6387TIP3   OH240575   5.283   4.507  16.758 -0.0215 -0.3694  0.2877
 6387TIP3    H140576   5.295   4.593  16.799 -1.7089 -0.4354  0.9939
 6387TIP3    H240577   5.291   4.525  16.664  1.1867  0.2608  0.4843
 6388TIP3   OH240578   2.355   2.972   4.546 -0.7482  0.2090 -0.3784
 6388TIP3    H140579   2.414   2.907   4.508 -1.0915 -0.2211 -0.1977
 6388TIP3    H240580   2.292   2.920   4.597 -2.2250  0.4948 -1.8077
 6389TIP3   OH240581   6.107   4.100   5.874 -0.7817 -0.0556  0.5413
 6389TIP3    H140582   6.024   4.052   5.870 -1.0842  0.5150 -0.4442
 6389TIP3    H240583   6.114   4.129   5.965 -1.0000 -1.2525  0.9471
 6390TIP3   OH240584   5.284   4.544  14.344 -0.0416 -0.3514 -0.0359
 6390TIP3    H140585   5.250   4.591  14.269 -0.2222  0.3433  0.4710
 6390TIP3    H240586   5.359   4.597  14.374 -0.5737 -0.0775  0.8593
 6391TIP3   OH240587   6.643   6.680  12.788 -0.1610 -0.1296  0.1880
 6391TIP3    H140588   6.683   6.676  12.875  0.2216  0.7103  0.0643
 6391TIP3    H240589   6.652   6.592  12.754  0.8729 -0.1606  0.4930
 6392TIP3   OH240590   4.039   6.233  13.222  0.1117  0.0893 -0.1438
 6392TIP3    H140591   4.011   6.151  13.263 -0.4208 -0.3247 -1.2747
 6392TIP3    H240592   4.108   6.207  13.162  0.2262  0.5328 -0.2070
 6393TIP3   OH240593   2.757   4.137   1.901  0.4073  0.0131 -0.1535
 6393TIP3    H140594   2.762   4.140   1.997  0.3171  1.2368 -0.1722
 6393TIP3    H240595   2.810   4.211   1.872  2.2917 -1.6338 -1.1484
 6394TIP3   OH240596   6.536   1.157   4.289 -0.0351  0.5612 -0.3643
 6394TIP3    H140597   6.562   1.243   4.323 -1.3277  0.1999  1.6850
 6394TIP3    H240598   6.598   1.140   4.218  2.0771  1.9072  1.0462
 6395TIP3   OH240599   6.129   5.077  15.074  0.5842 -0.2570 -0.0268
 6395TIP3    H140600   6.130   4.996  15.024  0.2207  0.6446 -1.5818
 6395TIP3    H240601   6.143   5.146  15.008  1.9382  0.8816  1.3787
 6396TIP3   OH240602   3.462   3.616   1.899  0.0545  0.4120  0.2003
 6396TIP3    H140603   3.446   3.574   1.984 -0.8484  0.3480  0.0067
 6396TIP3    H240604   3.399   3.576   1.840  1.2711 -0.1829 -0.7313
 6397TIP3   OH240605   0.814   3.944  16.613 -0.2276 -0.2577  0.1343
 6397TIP3    H140606   0.840   3.880  16.680  1.2001  1.6258  1.4680
 6397TIP3    H240607   0.851   3.909  16.532  1.6445 -0.5105  1.0470
 6398TIP3   OH240608   2.685   0.552  11.755  0.7636  0.0391  0.2342
 6398TIP3    H140609   2.747   0.501  11.807 -0.7753 -0.5097  1.5992
 6398TIP3    H240610   2.600   0.534  11.794 -0.2218  1.1421 -1.2939
 6399TIP3   OH240611   1.170   1.547  14.986  0.3680  0.1200  0.3983
 6399TIP3    H140612   1.158   1.459  15.022  1.2971 -0.2645 -0.2272
 6399TIP3    H240613   1.185   1.534  14.893 -0.2185  1.0021  0.1641
 6400TIP3   OH240614   2.088   1.278   2.910 -0.3607  0.5094  0.0988
 6400TIP3    H140615   2.179   1.272   2.938 -0.9894  1.4983  2.6591
 6400TIP3    H240616   2.057   1.187   2.910  0.2616  0.2885  0.5755
 6401TIP3   OH240617   1.354   1.699   1.415  0.8608  0.0468 -0.0211
 6401TIP3    H140618   1.414   1.708   1.489  0.6451 -1.1147  0.3234
 6401TIP3    H240619   1.391   1.627   1.363  1.3649  1.2700 -1.4196
 6402TIP3   OH240620   3.324   0.971  11.575  0.2449  0.0375 -0.4343
 6402TIP3    H140621   3.315   0.911  11.501  0.3177 -1.3365  0.6213
 6402TIP3    H240622   3.270   0.932  11.643 -0.8151  1.9391 -0.1379
 6403TIP3   OH240623   3.802   2.747   2.944  0.1967  0.2686 -0.4259
 6403TIP3    H140624   3.714   2.762   2.911 -0.5262 -2.2750  0.0908
 6403TIP3    H240625   3.803   2.786   3.031 -0.4353  0.3106 -0.4322
 6404TIP3   OH240626   1.278   0.924  11.346  0.2574  0.3060  1.1531
 6404TIP3    H140627   1.189   0.914  11.379  0.4988  1.0494  2.0922
 6404TIP3    H240628   1.268   0.932  11.251 -0.5434 -0.9336  1.1142
 6405TIP3   OH240629   5.568   2.707   4.575  0.4056  0.4556 -0.0264
 6405TIP3    H140630   5.523   2.739   4.497  0.3157 -0.6716 -0.4585
 6405TIP3    H240631   5.642   2.767   4.587  0.1824  0.8750 -0.7438
 6406TIP3   OH240632   1.984   5.834  12.661  0.0529  0.0208 -0.0962
 6406TIP3    H140633   2.005   5.760  12.717  1.7330  0.4932 -0.0550
 6406TIP3    H240634   1.978   5.909  12.720  1.2859  0.4223 -0.4479
 6407TIP3   OH240635   5.906   6.338   2.928 -0.6394  0.3376  0.7446
 6407TIP3    H140636   5.967   6.287   2.875 -0.2810 -0.5331  1.9457
 6407TIP3    H240637   5.950   6.348   3.013 -2.2058 -0.4994  1.7178
 6408TIP3   OH240638   2.229   2.313  16.103 -0.0429  0.1498  0.2408
 6408TIP3    H140639   2.189   2.260  16.171  0.0233  0.8387  0.8250
 6408TIP3    H240640   2.316   2.275  16.092 -0.9901 -1.7673 -1.4844
 6409TIP3   OH240641   2.290   2.760  14.521 -0.2707  0.4278 -0.6029
 6409TIP3    H140642   2.280   2.664  14.519 -2.6029  0.6190 -1.2489
 6409TIP3    H240643   2.381   2.775  14.496  1.6094 -1.7314  3.7935
 6410TIP3   OH240644   0.530   2.506  14.558 -0.0246 -0.6480 -0.3602
 6410TIP3    H140645   0.470   2.572  14.524  3.0242  1.9882 -1.1484
 6410TIP3    H240646   0.584   2.482  14.482  0.4823 -2.2841  0.4773
 6411TIP3   OH240647   4.985   3.028   1.730 -0.2166  0.2290  0.8114
 6411TIP3    H140648   4.924   3.052   1.799  0.4071 -0.0919  1.4779
 6411TIP3    H240649   4.989   2.933   1.733 -0.4433  0.1905  0.1060
 6412TIP3   OH240650   2.552   1.685  13.301  0.6576  0.6507 -0.0411
 6412TIP3    H140651   2.642   1.703  13.327  1.2344 -1.0002 -0.7595
 6412TIP3    H240652   2.539   1.735  13.221  1.2295  0.2626 -0.3853
 6413TIP3   OH240653   3.332   6.109   3.847 -0.4873  0.3478  0.4725
 6413TIP3    H140654   3.383   6.035   3.813  0.2085  0.8894  0.3071
 6413TIP3    H240655   3.241   6.085   3.829 -0.2883 -0.5297  0.5503
 6414TIP3   OH240656   0.812   1.487  13.726  0.0696 -0.1173 -0.2346
 6414TIP3    H140657   0.834   1.527  13.809  0.2549  1.7526 -1.1409
 6414TIP3    H240658   0.744   1.423  13.748  1.5552 -1.1770  1.6088
 6415TIP3   OH240659   0.628   1.245  13.709  0.1995  0.5563 -0.3774
 6415TIP3    H140660   0.535   1.227  13.724  0.4463 -0.4962 -0.0346
 6415TIP3    H240661   0.636   1.257  13.614 -0.1821 -0.0196 -0.4864
 6416TIP3   OH240662   0.681   1.055  13.939 -0.6158  0.3905 -0.1067
 6416TIP3    H140663   0.599   1.004  13.938  0.0050 -0.6418  0.0941
 6416TIP3    H240664   0.664   1.128  13.879 -0.9615 -0.9999 -1.7787
 6417TIP3   OH240665   4.368   0.710   3.187  0.7385  0.4183  0.9925
 6417TIP3    H140666   4.404   0.757   3.262  1.8464  0.1032  0.6780
 6417TIP3    H240667   4.358   0.777   3.119 -0.6627  0.7873  1.5280
 6418TIP3   OH240668   2.669   1.159  11.618 -0.1127  0.1360  0.1622
 6418TIP3    H140669   2.745   1.115  11.656 -1.5304 -2.1601  0.5779
 6418TIP3    H240670   2.615   1.088  11.584 -1.0421  1.8358 -2.1931
 6419TIP3   OH240671   5.363   4.402   0.544  0.1265 -0.2499 -0.7542
 6419TIP3    H140672   5.411   4.365   0.618 -1.0458 -1.7214 -0.6989
 6419TIP3    H240673   5.413   4.377   0.467  1.8382  2.0295 -0.4813
 6420TIP3   OH240674   6.669   0.391   4.053  0.2239  0.2295 -0.3186
 6420TIP3    H140675   6.746   0.359   4.006  1.0468  1.8898 -0.1605
 6420TIP3    H240676   6.672   0.486   4.043 -2.5714  0.3057 -1.4738
 6421TIP3   OH240677   1.861   2.166  12.812  0.4320 -0.1659 -0.5712
 6421TIP3    H140678   1.945   2.207  12.790  0.4792  0.0757  0.0329
 6421TIP3    H240679   1.810   2.237  12.851  0.9668 -0.9277  1.6731
 6422TIP3   OH240680   1.704   4.711   5.000  0.3873 -0.4286 -0.4098
 6422TIP3    H140681   1.747   4.640   4.952 -1.5739 -2.6700  0.9213
 6422TIP3    H240682   1.747   4.712   5.085 -1.8600 -2.5898  0.8787
 6423TIP3   OH240683   6.423   5.552  15.825 -0.5908 -0.3768  0.5898
 6423TIP3    H140684   6.514   5.524  15.822 -0.1366  1.1099 -1.2412
 6423TIP3    H240685   6.373   5.475  15.797  0.2406 -0.7151 -0.0021
 6424TIP3   OH240686   3.034   0.415   1.718  0.7553 -0.7071  0.0939
 6424TIP3    H140687   2.959   0.386   1.666  0.9146  0.3491 -0.7744
 6424TIP3    H240688   3.105   0.423   1.655  0.9030  0.7786  0.4120
 6425TIP3   OH240689   2.310   0.402   4.101  0.4298  0.1246  0.2075
 6425TIP3    H140690   2.350   0.363   4.023 -3.1834 -2.7155 -0.4970
 6425TIP3    H240691   2.319   0.334   4.168  1.1020  1.4754  1.5506
 6426TIP3   OH240692   5.862   0.869  11.611  0.3369  0.0478 -0.2613
 6426TIP3    H140693   5.871   0.896  11.702  2.0848 -0.5311 -0.2146
 6426TIP3    H240694   5.915   0.790  11.604  1.7360  1.0640 -2.1664
 6427TIP3   OH240695   5.403   4.053  16.700  0.5847 -0.4304  0.0718
 6427TIP3    H140696   5.363   4.071  16.615 -0.7876 -4.5487 -0.3943
 6427TIP3    H240697   5.495   4.033  16.679  0.3030 -1.2270 -0.4882
 6428TIP3   OH240698   6.396   1.256   4.625  0.0517  0.3282  0.1592
 6428TIP3    H140699   6.376   1.277   4.717 -1.3439 -0.2774  0.0236
 6428TIP3    H240700   6.367   1.334   4.577 -0.2577  0.1994  0.1349
 6429TIP3   OH240701   4.483   3.525  12.170  0.0296  0.2030 -0.0365
 6429TIP3    H140702   4.514   3.458  12.108  1.4195  0.3657  0.4395
 6429TIP3    H240703   4.389   3.532  12.153 -0.1235 -1.7658 -0.1906
 6430TIP3   OH240704   1.037   3.920  15.415  0.3507  0.1237  0.0746
 6430TIP3    H140705   0.981   3.861  15.466 -0.2872  1.7201  1.3042
 6430TIP3    H240706   0.977   3.989  15.385  1.2857  0.7583 -0.3704
 6431TIP3   OH240707   6.300   6.418   3.163 -0.1729  0.4838 -0.4818
 6431TIP3    H140708   6.340   6.412   3.076 -1.5568  1.4820 -1.2241
 6431TIP3    H240709   6.355   6.480   3.211  0.2643  0.3726 -0.8338
 6432TIP3   OH240710   2.229   6.376   0.790  0.4529 -0.2672  0.0491
 6432TIP3    H140711   2.223   6.469   0.811 -1.2405 -0.1760 -0.6820
 6432TIP3    H240712   2.139   6.344   0.793  1.1226 -2.2393  1.6472
 6433TIP3   OH240713   1.249   0.812  11.950 -0.2517  0.4291 -0.6666
 6433TIP3    H140714   1.158   0.817  11.978  0.3342  1.1110  1.2504
 6433TIP3    H240715   1.291   0.755  12.014  0.5332 -0.6379 -2.0456
 6434TIP3   OH240716   0.030   0.247  15.381  0.1287  0.3568 -0.0453
 6434TIP3    H140717   0.084   0.173  15.353  0.0353  0.0677  0.5249
 6434TIP3    H240718   0.056   0.262  15.472 -0.4948  0.4412  0.1242
 6435TIP3   OH240719   3.717   4.332   6.137 -0.2225 -0.4571  0.2176
 6435TIP3    H140720   3.627   4.365   6.130  0.3286  1.1626  0.3239
 6435TIP3    H240721   3.708   4.237   6.139 -1.8656 -0.3601 -0.8194
 6436TIP3   OH240722   5.376   0.809  15.183 -0.0538 -0.5333  0.2103
 6436TIP3    H140723   5.308   0.744  15.164 -0.8369 -0.0299  1.2095
 6436TIP3    H240724   5.431   0.767  15.250 -1.3858  0.3169  1.9143
 6437TIP3   OH240725   3.942   0.499  16.757  0.0358  0.4692 -0.0073
 6437TIP3    H140726   3.926   0.469  16.667 -0.6482  2.5380 -0.6262
 6437TIP3    H240727   3.913   0.426  16.812 -1.4276 -0.0788 -1.4148
 6438TIP3   OH240728   2.260   4.960  14.632 -0.5076 -0.1649  0.4993
 6438TIP3    H140729   2.299   5.035  14.676  0.4129 -0.7298  0.6627
 6438TIP3    H240730   2.334   4.910  14.597 -0.9064 -2.1643  2.2663
 6439TIP3   OH240731   3.633   1.380  14.075  0.4145 -0.5030 -0.0851
 6439TIP3    H140732   3.664   1.401  13.987  0.6521  0.8176  0.2885
 6439TIP3    H240733   3.584   1.298  14.065  1.0852 -0.7726 -1.2973
 6440TIP3   OH240734   0.614   2.435   2.336  0.7494  0.4884  0.5480
 6440TIP3    H140735   0.694   2.430   2.388  0.1100 -2.3537  1.4455
 6440TIP3    H240736   0.546   2.460   2.398  0.2044 -1.6864  0.9164
 6441TIP3   OH240737   6.745   5.685   5.606  0.0415  0.7196  0.1473
 6441TIP3    H140738   6.656   5.719   5.614  0.1332  0.5845  2.0978
 6441TIP3    H240739   6.736   5.591   5.623  0.5733  0.7140  0.3967
 6442TIP3   OH240740   1.625   2.961   1.948  0.5140  0.3094  0.0041
 6442TIP3    H140741   1.618   2.956   2.044 -0.2686  1.4803  0.0268
 6442TIP3    H240742   1.713   2.996   1.933  0.5335  0.3938  0.3025
 6443TIP3   OH240743   6.619   0.447  14.467  0.3180  0.1367  0.2858
 6443TIP3    H140744   6.563   0.524  14.455 -0.5676 -0.5987 -0.5101
 6443TIP3    H240745   6.671   0.466  14.545  0.6994  1.8797 -0.3608
 6444TIP3   OH240746   4.152   4.988   1.368 -0.2259 -0.1195 -0.2165
 6444TIP3    H140747   4.091   5.050   1.327 -1.1131 -0.7991  0.0351
 6444TIP3    H240748   4.238   5.030   1.361 -0.8477  1.2803  0.2235
 6445TIP3   OH240749   2.130   0.077   4.146  0.3613  0.2248  0.0379
 6445TIP3    H140750   2.089   0.162   4.129 -0.9454 -0.2927  0.4583
 6445TIP3    H240751   2.117   0.027   4.065  2.5850  0.9444 -0.8166
 6446TIP3   OH240752   1.938   3.294  14.335  0.3369  0.5083  0.1370
 6446TIP3    H140753   1.918   3.231  14.405  2.0775  0.6872  0.8387
 6446TIP3    H240754   1.966   3.240  14.261  1.0430  0.4110  0.4684
 6447TIP3   OH240755   5.573   3.048  13.504 -0.0787 -0.0810 -0.3498
 6447TIP3    H140756   5.572   3.095  13.588  2.0034 -0.6300  0.0498
 6447TIP3    H240757   5.650   3.082  13.459  0.4430 -1.7865 -0.8150
 6448TIP3   OH240758   5.361   1.989  10.738 -0.1867  0.1093  0.7191
 6448TIP3    H140759   5.364   2.074  10.781 -0.1800 -1.2777  3.7325
 6448TIP3    H240760   5.276   1.952  10.762  0.9648 -1.8734  2.0045
 6449TIP3   OH240761   0.693   3.357   2.567 -0.3385 -0.1167 -0.1654
 6449TIP3    H140762   0.730   3.367   2.479  0.3649  2.5587  0.3269
 6449TIP3    H240763   0.766   3.376   2.626 -0.5460 -2.7976  1.0995
 6450TIP3   OH240764   0.334   0.518   5.549 -0.2131 -0.1553  0.2585
 6450TIP3    H140765   0.257   0.573   5.533 -0.1049 -0.6716 -2.4788
 6450TIP3    H240766   0.302   0.428   5.537  0.5786 -0.4495  0.2826
 6451TIP3   OH240767   2.750   0.315   2.347  0.1373  0.1536 -0.4540
 6451TIP3    H140768   2.844   0.336   2.344 -0.0552  1.0880 -0.3330
 6451TIP3    H240769   2.746   0.221   2.329  1.1176  0.0478 -0.2035
 6452TIP3   OH240770   3.506   4.603   5.411  0.3115  0.0573 -0.0475
 6452TIP3    H140771   3.513   4.545   5.486 -1.2312  0.5129  0.4812
 6452TIP3    H240772   3.482   4.546   5.338 -0.3362 -0.0853  0.2775
 6453TIP3   OH240773   1.050   3.518   3.970  0.5535  0.0474  0.8513
 6453TIP3    H140774   1.022   3.442   4.022  0.8543  0.1469  1.1594
 6453TIP3    H240775   1.115   3.483   3.910 -0.0478 -0.1371  0.2973
 6454TIP3   OH240776   6.544   6.688   0.994  0.2967  0.1959  0.4654
 6454TIP3    H140777   6.637   6.668   1.011  0.4482  0.4732 -0.0259
 6454TIP3    H240778   6.514   6.617   0.937  0.6650  0.9819 -0.7562
 6455TIP3   OH240779   4.535   1.386   4.112 -0.2160 -0.2553 -0.4647
 6455TIP3    H140780   4.618   1.432   4.111 -0.8418  0.9148 -1.8393
 6455TIP3    H240781   4.505   1.387   4.021 -1.9746 -0.1677  0.0799
 6456TIP3   OH240782   2.852   2.283   5.220 -0.0750  0.0071  0.8059
 6456TIP3    H140783   2.913   2.352   5.192 -0.9269  1.2442  1.9176
 6456TIP3    H240784   2.871   2.210   5.161 -0.5115  1.8393 -1.7839
 6457TIP3   OH240785   6.532   3.476   4.511 -0.5738 -0.4140  0.1815
 6457TIP3    H140786   6.587   3.421   4.567 -0.0821  1.1140  1.2360
 6457TIP3    H240787   6.527   3.560   4.556 -3.0877 -0.2078 -0.3096
 6458TIP3   OH240788   1.782   2.673   1.863 -0.0952 -0.1690 -0.1083
 6458TIP3    H140789   1.867   2.665   1.908 -0.1941  0.4045  0.1935
 6458TIP3    H240790   1.749   2.759   1.890 -0.7574 -0.3725 -0.2556
 6459TIP3   OH240791   3.774   2.093  14.991  0.2541  0.2344  0.4083
 6459TIP3    H140792   3.843   2.028  15.005  0.2593  0.2621  0.5108
 6459TIP3    H240793   3.791   2.160  15.057  0.2414  0.3345  0.3115
 6460TIP3   OH240794   4.892   0.820  17.141 -0.1536  0.2649  0.2409
 6460TIP3    H140795   4.958   0.871  17.094 -0.6014 -0.0360 -0.7430
 6460TIP3    H240796   4.834   0.886  17.180 -0.4146  0.5234 -0.5670
 6461TIP3   OH240797   1.550   2.505   5.325  0.1793 -0.0228 -0.2891
 6461TIP3    H140798   1.456   2.521   5.320  0.2806  0.5298 -0.4178
 6461TIP3    H240799   1.563   2.467   5.412 -0.2861 -0.9800 -0.6175
 6462TIP3   OH240800   6.515   4.106  11.633 -0.3507 -0.3966  0.2813
 6462TIP3    H140801   6.435   4.146  11.670 -0.0290 -0.1436  0.7206
 6462TIP3    H240802   6.566   4.181  11.601  0.9425 -0.2623  2.4542
 6463TIP3   OH240803   3.141   3.207   4.427 -0.4418  0.1983 -0.2664
 6463TIP3    H140804   3.188   3.144   4.481 -0.5094 -1.3543 -1.9503
 6463TIP3    H240805   3.049   3.197   4.453 -0.2680  0.8365  0.6450
 6464TIP3   OH240806   5.034   2.098   3.490  0.7528  0.7633 -0.5339
 6464TIP3    H140807   5.047   2.050   3.571  2.1861  2.0355  0.0179
 6464TIP3    H240808   4.939   2.111   3.485  0.4794 -0.8116  0.0346
 6465TIP3   OH240809   0.642   2.781  11.915 -0.3101 -0.2946 -0.1343
 6465TIP3    H140810   0.600   2.778  12.002  0.9769  0.1012  0.5251
 6465TIP3    H240811   0.608   2.704  11.870  0.2243 -1.4361  1.3144
 6466TIP3   OH240812   5.607   4.041  15.986 -0.4602 -0.0179  0.6806
 6466TIP3    H140813   5.601   4.118  15.930 -0.1678  0.2839  1.0589
 6466TIP3    H240814   5.516   4.013  15.997 -0.4721 -0.5211 -0.5323
 6467TIP3   OH240815   5.757   3.618  12.046 -0.2019  0.7307  0.4587
 6467TIP3    H140816   5.669   3.624  12.084 -0.5333 -2.0718  0.3318
 6467TIP3    H240817   5.807   3.685  12.092 -1.9034  0.9835  2.0583
 6468TIP3   OH240818   5.005   5.230   3.765  0.2006  0.2858  0.5264
 6468TIP3    H140819   5.019   5.226   3.860  0.0940  0.4882  0.5528
 6468TIP3    H240820   5.074   5.175   3.728 -1.0235 -1.5144  0.8202
 6469TIP3   OH240821   1.009   3.877   3.333  0.6377  0.0279 -0.0316
 6469TIP3    H140822   1.044   3.837   3.412 -1.3864  0.2124  1.0200
 6469TIP3    H240823   0.959   3.952   3.364 -0.9015 -0.3846 -1.3976
 6470TIP3   OH240824   0.385   3.981   1.002  0.2079 -0.4420 -0.0347
 6470TIP3    H140825   0.470   3.956   1.038 -0.0414  1.6004  2.2505
 6470TIP3    H240826   0.327   3.909   1.025  1.1160 -1.4927 -0.9223
 6471TIP3   OH240827   2.780   0.415   4.406  0.2042 -0.1185  0.2213
 6471TIP3    H140828   2.730   0.491   4.436  0.2190  0.1123 -0.3171
 6471TIP3    H240829   2.720   0.368   4.348 -0.0798 -0.9583  1.1521
 6472TIP3   OH240830   1.768   2.576   1.585 -0.2334  0.5435  0.7620
 6472TIP3    H140831   1.772   2.657   1.533 -0.7624  0.0816 -0.0240
 6472TIP3    H240832   1.770   2.606   1.676  0.2745  1.3982  0.4862
 6473TIP3   OH240833   2.798   2.315  15.127  0.1130  0.5101 -0.2003
 6473TIP3    H140834   2.828   2.328  15.216 -1.6048 -2.6802  1.0097
 6473TIP3    H240835   2.869   2.266  15.084  0.4827  1.1009 -0.2729
 6474TIP3   OH240836   3.007   6.031   0.290 -0.3089  0.3115  0.5078
 6474TIP3    H140837   3.102   6.042   0.294 -0.5054  2.0619  0.9916
 6474TIP3    H240838   2.975   6.069   0.371 -1.4106 -0.6619  0.5515
 6475TIP3   OH240839   0.466   1.866   9.144  0.2566  0.5422  0.1618
 6475TIP3    H140840   0.526   1.812   9.196  0.7641  0.0840 -0.8653
 6475TIP3    H240841   0.385   1.816   9.142 -0.1090  1.0431  1.3420
 6476TIP3   OH240842   5.373   1.120  12.467 -0.2135  0.4838 -0.0893
 6476TIP3    H140843   5.312   1.058  12.507  1.4898 -1.1494  0.1172
 6476TIP3    H240844   5.339   1.133  12.379 -0.7433 -0.6024 -0.0666
 6477TIP3   OH240845   4.476   3.538   4.410 -0.7456 -0.0114 -0.8548
 6477TIP3    H140846   4.529   3.508   4.484  1.9071 -1.3560 -3.1169
 6477TIP3    H240847   4.494   3.632   4.404  1.4185 -0.4070 -1.4747
 6478TIP3   OH240848   1.511   4.355   1.390  0.5690  0.4169 -0.3319
 6478TIP3    H140849   1.580   4.416   1.416  2.3302 -1.4238 -0.5560
 6478TIP3    H240850   1.497   4.299   1.466 -0.9975  0.9776 -0.1524
 6479TIP3   OH240851   3.635   3.000   5.177  0.5641 -0.7460  0.2093
 6479TIP3    H140852   3.567   3.026   5.115  0.4404 -1.6061 -0.0326
 6479TIP3    H240853   3.707   2.970   5.122  0.6754 -0.9648  0.4718
 6480TIP3   OH240854   4.100   2.849   6.022  0.0771 -0.5444 -0.0392
 6480TIP3    H140855   4.023   2.900   6.045 -1.5433 -2.9136  0.1472
 6480TIP3    H240856   4.174   2.904   6.049 -1.5519  1.1534  1.2386
 6481TIP3   OH240857   3.773   5.711  14.876 -0.0789 -0.8661  0.4025
 6481TIP3    H140858   3.773   5.800  14.912 -3.1452 -1.1825  1.4682
 6481TIP3    H240859   3.689   5.674  14.903 -0.9501 -2.5476 -3.8132
 6482TIP3   OH240860   2.369   0.702  12.560 -0.0767  0.1585 -0.6499
 6482TIP3    H140861   2.406   0.727  12.476  4.0699 -1.3536  0.5051
 6482TIP3    H240862   2.364   0.784  12.610 -0.3120  0.6941 -1.5399
 6483TIP3   OH240863   1.564   0.128   2.636  0.5520 -0.3232  0.2633
 6483TIP3    H140864   1.506   0.075   2.581 -0.9500  0.0116  1.4714
 6483TIP3    H240865   1.589   0.071   2.708  3.7313 -1.2666 -1.3850
 6484TIP3   OH240866   5.623   0.604  10.783  0.0396 -0.3731  0.0440
 6484TIP3    H140867   5.599   0.674  10.843 -1.6916 -1.5875  0.8529
 6484TIP3    H240868   5.687   0.644  10.724  0.2342  1.4360  1.3953
 6485TIP3   OH240869   1.796   2.365   2.766 -0.2406  0.4887 -0.7984
 6485TIP3    H140870   1.885   2.374   2.732  1.0559 -0.4079  2.1247
 6485TIP3    H240871   1.776   2.272   2.757 -0.7273  0.6091 -1.0165
 6486TIP3   OH240872   1.767   4.206   2.196  0.0730 -0.3189 -0.4894
 6486TIP3    H140873   1.852   4.250   2.190  0.1731 -0.7306 -3.4077
 6486TIP3    H240874   1.788   4.118   2.225  0.7243 -0.5150 -1.4975
 6487TIP3   OH240875   4.852   0.368   0.126 -0.7668  0.1743  0.2799
 6487TIP3    H140876   4.803   0.450   0.122  1.2120  1.4047 -2.2191
 6487TIP3    H240877   4.818   0.317   0.053  0.5782  0.4618 -0.5983
 6488TIP3   OH240878   4.065   0.430   0.502 -0.1419  0.4954 -0.0880
 6488TIP3    H140879   3.998   0.363   0.511 -0.9198  1.2313 -0.2826
 6488TIP3    H240880   4.137   0.400   0.558 -0.0643 -0.9813 -0.9111
 6489TIP3   OH240881   6.231   0.800  13.568 -0.0138  0.0411 -0.2704
 6489TIP3    H140882   6.240   0.834  13.657 -0.1823 -0.4178 -0.0784
 6489TIP3    H240883   6.309   0.833  13.522  0.3784 -0.2092  0.2017
 6490TIP3   OH240884   0.119   4.835   1.130 -0.1045 -0.2153 -0.0807
 6490TIP3    H140885   0.133   4.916   1.081 -1.5633  1.7743  2.5160
 6490TIP3    H240886   0.171   4.845   1.209  0.3834 -2.2638 -0.0943
 6491TIP3   OH240887   0.665   5.991   3.395 -0.5207  0.2555 -0.3038
 6491TIP3    H140888   0.719   5.972   3.472  0.2374  1.7626 -0.4239
 6491TIP3    H240889   0.650   5.906   3.355 -1.1409 -0.6099  1.6383
 6492TIP3   OH240890   0.030   6.164   5.825  0.1654 -0.1464  0.0183
 6492TIP3    H140891   0.035   6.080   5.780  2.2880  0.4280 -0.9716
 6492TIP3    H240892   0.038   6.142   5.918  4.5105 -1.0069 -0.3026
 6493TIP3   OH240893   2.811   5.303   1.817 -0.4457 -0.1291 -0.2763
 6493TIP3    H140894   2.897   5.303   1.775  0.2100  0.7524  1.0049
 6493TIP3    H240895   2.760   5.366   1.767  0.7088  1.8460  0.9134
 6494TIP3   OH240896   1.889   3.077  14.536 -0.0367  0.0438  0.4619
 6494TIP3    H140897   1.874   3.006  14.598  2.6290 -0.2825  0.8353
 6494TIP3    H240898   1.973   3.115  14.562 -0.0198  1.5073 -1.4677
 6495TIP3   OH240899   2.596   1.661  12.000 -0.0324  0.1286  0.0219
 6495TIP3    H140900   2.553   1.630  12.080  0.2103 -2.8737 -0.8686
 6495TIP3    H240901   2.528   1.655  11.933  0.4880 -0.0558 -0.4956
 6496TIP3   OH240902   3.055   6.038   1.356 -0.4349 -0.4327  0.1089
 6496TIP3    H140903   3.091   6.083   1.432  0.8797 -1.1667 -0.0428
 6496TIP3    H240904   2.979   6.090   1.331 -0.4310  0.2630  1.4415
 6497TIP3   OH240905   0.223   6.703   1.438  0.1891  0.3372 -0.0076
 6497TIP3    H140906   0.269   6.641   1.496 -0.8345  0.5842  1.1175
 6497TIP3    H240907   0.218   6.784   1.489 -0.1277  0.7806 -0.7291
 6498TIP3   OH240908   5.817   5.211   5.811  0.7334  0.2468 -0.2061
 6498TIP3    H140909   5.845   5.119   5.817 -0.4220 -0.0963  0.1822
 6498TIP3    H240910   5.811   5.228   5.717 -0.0533 -0.4065 -0.2849
 6499TIP3   OH240911   4.132   2.109   4.080 -0.0041 -0.0625  0.0453
 6499TIP3    H140912   4.174   2.193   4.100 -1.5234  0.5083  1.0467
 6499TIP3    H240913   4.091   2.123   3.995 -0.1603  0.1856  0.1593
 6500TIP3   OH240914   3.544   1.098  14.647  0.1635 -0.3429 -0.2857
 6500TIP3    H140915   3.482   1.034  14.680 -0.0952 -0.5115 -1.0722
 6500TIP3    H240916   3.625   1.048  14.632  1.6143  0.4492  3.7631
 6501TIP3   OH240917   3.092   1.938   3.699  0.0110  0.2116  0.2701
 6501TIP3    H140918   3.029   1.988   3.752 -0.7833  0.8106 -1.1993
 6501TIP3    H240919   3.059   1.944   3.610  0.9444 -1.3659 -0.2268
 6502TIP3   OH240920   0.116   5.985  14.733 -0.4063 -0.0282  0.4369
 6502TIP3    H140921   0.165   5.944  14.805 -0.0043 -1.3371 -0.5331
 6502TIP3    H240922   0.042   6.027  14.775 -0.4405 -1.1761  1.5794
 6503TIP3   OH240923   0.425   0.956  12.971 -0.4270 -0.2944  0.0888
 6503TIP3    H140924   0.357   0.906  13.016  0.6353 -1.0989  0.8768
 6503TIP3    H240925   0.471   0.891  12.918  1.8823 -0.5487  2.2191
 6504TIP3   OH240926   3.399   2.386   1.130  0.1536 -0.1057  0.9711
 6504TIP3    H140927   3.415   2.342   1.047 -1.7100  0.3052  0.3580
 6504TIP3    H240928   3.363   2.318   1.187 -0.0489 -0.0267  0.9374
 6505TIP3   OH240929   0.135   1.992   1.933  0.6605  0.5550 -0.7760
 6505TIP3    H140930   0.091   2.077   1.927 -0.9167 -0.1975 -0.4164
 6505TIP3    H240931   0.074   1.930   1.893  1.3092 -0.5661 -0.1021
 6506TIP3   OH240932   1.636   0.398   3.525  0.3590  0.2145 -0.4156
 6506TIP3    H140933   1.563   0.426   3.470  0.6275 -0.0276 -0.8930
 6506TIP3    H240934   1.631   0.457   3.601 -0.8165 -0.3126 -0.0475
 6507TIP3   OH240935   6.665   6.429  16.598  0.5419 -0.1291 -0.0960
 6507TIP3    H140936   6.667   6.396  16.688  0.7733 -2.3147 -0.8684
 6507TIP3    H240937   6.719   6.508  16.601 -1.3009  1.1878  2.1446
 6508TIP3   OH240938   1.461   6.561   0.155  0.1421  0.1112  0.4080
 6508TIP3    H140939   1.388   6.540   0.213  0.1193  1.8967  1.1123
 6508TIP3    H240940   1.433   6.641   0.110  0.5575 -0.7146 -1.3738
 6509TIP3   OH240941   6.714   4.979   2.754 -0.1201 -0.1591 -0.3227
 6509TIP3    H140942   6.712   5.011   2.844 -1.2390 -2.4278  0.5223
 6509TIP3    H240943   6.715   4.884   2.762 -2.9204 -0.5342 -2.6642
 6510TIP3   OH240944   0.306   6.159  11.603 -0.6809 -0.6273 -0.3758
 6510TIP3    H140945   0.393   6.133  11.573 -0.7554 -1.7709  0.3322
 6510TIP3    H240946   0.246   6.110  11.548 -0.8204 -2.3926  1.2181
 6511TIP3   OH240947   5.138   4.230  10.663  0.1049  0.3363  0.1426
 6511TIP3    H140948   5.151   4.168  10.592 -0.8513  0.7131 -0.3729
 6511TIP3    H240949   5.058   4.200  10.707 -0.0050  0.8235  0.2853
 6512TIP3   OH240950   0.886   3.210   2.963 -0.7811  0.3145 -0.0419
 6512TIP3    H140951   0.959   3.240   2.909 -1.7123  0.4053 -1.3140
 6512TIP3    H240952   0.859   3.288   3.012  1.2567 -0.2055  2.0618
 6513TIP3   OH240953   5.589   6.530   4.589 -0.1357  0.4694  0.1165
 6513TIP3    H140954   5.565   6.593   4.521 -0.9068  0.8116  0.6911
 6513TIP3    H240955   5.505   6.498   4.623  0.2064 -1.7497 -0.9393
 6514TIP3   OH240956   5.729   5.279   3.288 -0.7553 -0.3801  0.0717
 6514TIP3    H140957   5.687   5.364   3.277 -2.1933 -1.2423 -1.5525
 6514TIP3    H240958   5.728   5.239   3.201  0.1140 -1.9614  0.7347
 6515TIP3   OH240959   5.382   0.692  13.092 -0.5350 -0.3844  0.7976
 6515TIP3    H140960   5.417   0.708  13.180 -2.3662  0.5335  1.4085
 6515TIP3    H240961   5.290   0.674  13.107 -0.5669 -1.7646 -0.8336
 6516TIP3   OH240962   2.287   1.215  15.662  0.1601 -0.1782  0.3826
 6516TIP3    H140963   2.225   1.228  15.734 -0.6325 -0.2823 -0.2721
 6516TIP3    H240964   2.234   1.222  15.583  0.9861 -0.2822 -0.1915
 6517TIP3   OH240965   4.654   3.673   3.331 -0.1392  0.7187  0.4680
 6517TIP3    H140966   4.676   3.639   3.418 -0.3968  0.7302  0.5391
 6517TIP3    H240967   4.567   3.712   3.342  1.1242  3.6647  1.0048
 6518TIP3   OH240968   1.119   5.257  13.581 -0.4228 -0.1197 -0.4838
 6518TIP3    H140969   1.145   5.176  13.625  2.0149  0.5653 -0.5242
 6518TIP3    H240970   1.049   5.293  13.637  0.0106 -1.1468  0.7668
 6519TIP3   OH240971   6.582   2.546  14.583 -0.3068  0.0141  0.2172
 6519TIP3    H140972   6.660   2.505  14.620 -0.6631 -0.9101 -0.0492
 6519TIP3    H240973   6.584   2.523  14.491 -0.5439  0.5506  0.0753
 6520TIP3   OH240974   1.014   5.324   4.013 -0.1143 -0.8197 -0.4993
 6520TIP3    H140975   1.031   5.333   4.107  1.0068 -0.7540 -0.6932
 6520TIP3    H240976   0.935   5.375   3.997 -0.7605 -1.4713  0.5476
 6521TIP3   OH240977   3.673   5.718   0.134 -0.0132 -0.6445 -0.3368
 6521TIP3    H140978   3.612   5.750   0.200 -0.6726 -1.3161 -0.6033
 6521TIP3    H240979   3.760   5.742   0.167 -0.4280  0.5584 -0.0765
 6522TIP3   OH240980   2.911   1.135  15.775 -0.0001  0.0804  0.0181
 6522TIP3    H140981   2.840   1.125  15.711 -0.0607  0.9133 -0.0648
 6522TIP3    H240982   2.973   1.066  15.753 -0.6654 -0.4950 -0.0737
 6523TIP3   OH240983   2.520   3.106  11.372  0.4642  0.0394  0.5370
 6523TIP3    H140984   2.612   3.107  11.398  0.7875  1.5322 -0.5536
 6523TIP3    H240985   2.516   3.162  11.295 -0.9090 -2.0855 -1.0441
 6524TIP3   OH240986   1.937   2.058   2.041  0.0043 -0.0719  0.1627
 6524TIP3    H140987   1.861   2.007   2.011 -1.0688  2.0015 -0.8164
 6524TIP3    H240988   1.915   2.081   2.131 -1.2016  1.6065 -0.5119
 6525TIP3   OH240989   1.346   0.994  14.424 -0.2800 -0.1574  0.0282
 6525TIP3    H140990   1.354   1.081  14.384  0.5824  0.4763  1.5095
 6525TIP3    H240991   1.259   0.964  14.399 -0.1982  0.6784 -1.3768
 6526TIP3   OH240992   5.167   0.682   2.462 -0.5211  0.1927  0.7483
 6526TIP3    H140993   5.131   0.596   2.482  1.0898  0.0514  3.4816
 6526TIP3    H240994   5.230   0.665   2.391 -3.3751 -0.0160 -1.9516
 6527TIP3   OH240995   1.187   3.456   1.613  0.1703 -0.3374 -0.3029
 6527TIP3    H140996   1.245   3.390   1.576 -2.0626 -1.8023 -1.4165
 6527TIP3    H240997   1.194   3.445   1.708  2.3740  0.2059 -0.3577
 6528TIP3   OH240998   0.802   2.639  16.937 -0.0162 -0.3954 -0.0017
 6528TIP3    H140999   0.883   2.631  16.988 -1.1530  1.3423  2.2366
 6528TIP3    H241000   0.828   2.686  16.858  1.1772  0.1617  0.6947
 6529TIP3   OH241001   5.670   2.400  10.839  0.1492  0.2874 -0.4757
 6529TIP3    H141002   5.627   2.485  10.842 -1.6786 -0.5528 -0.9738
 6529TIP3    H241003   5.731   2.406  10.765  0.2747  1.2451 -0.3056
 6530TIP3   OH241004   1.028   1.442   1.881 -0.1681  0.2434 -0.7014
 6530TIP3    H141005   1.048   1.365   1.934  0.1570  0.2899 -0.7534
 6530TIP3    H241006   1.087   1.510   1.914  0.7476  0.0058 -1.7636
 6531TIP3   OH241007   6.057   4.560   3.892  0.4799 -0.8991 -1.0119
 6531TIP3    H141008   6.108   4.488   3.853  1.2008 -0.5820 -0.6652
 6531TIP3    H241009   6.107   4.638   3.871 -1.6059 -0.1133 -3.7240
 6532TIP3   OH241010   0.755   5.411   4.004 -0.3454 -0.2660  0.2465
 6532TIP3    H141011   0.792   5.477   4.062  0.6640 -0.3135 -0.3161
 6532TIP3    H241012   0.661   5.429   4.003 -0.1114  1.0004  0.3002
 6533TIP3   OH241013   6.156   3.371  11.976  0.1821  1.0099 -0.0955
 6533TIP3    H141014   6.100   3.448  11.967  0.4329  1.4583  1.7516
 6533TIP3    H241015   6.234   3.391  11.923 -0.7866  0.9450 -1.6013
 6534TIP3   OH241016   1.056   0.376  13.011  0.3403  0.1128 -0.8314
 6534TIP3    H141017   1.136   0.415  12.977  1.5316 -2.3990 -1.1291
 6534TIP3    H241018   1.049   0.410  13.101  0.9844  1.3580 -1.2235
 6535TIP3   OH241019   2.798   1.440  13.087  0.0751 -0.5617 -0.0935
 6535TIP3    H141020   2.847   1.450  13.169 -0.5416 -0.7769  0.3119
 6535TIP3    H241021   2.827   1.513  13.033 -0.6476  0.5044  0.9118
 6536TIP3   OH241022   5.202   1.082  13.555 -0.2261  0.7223  0.2956
 6536TIP3    H141023   5.135   1.140  13.520 -0.2412  0.7583  0.3848
 6536TIP3    H241024   5.239   1.129  13.629  1.1918  1.5147 -0.8597
 6537TIP3   OH241025   0.594   4.460   2.553  0.0943  0.5828  0.2643
 6537TIP3    H141026   0.527   4.460   2.621  0.5413 -0.1190  0.7160
 6537TIP3    H241027   0.644   4.541   2.568 -0.7183  1.1691 -0.1521
 6538TIP3   OH241028   2.852   1.641  14.509  0.0015 -0.1337 -0.5628
 6538TIP3    H141029   2.911   1.565  14.508  0.9719  0.5475  1.4498
 6538TIP3    H241030   2.910   1.717  14.510 -0.9274  0.5891 -0.1008
 6539TIP3   OH241031   3.861   2.856  17.012 -0.0121  0.2460  0.1818
 6539TIP3    H141032   3.913   2.933  16.991  0.6415  0.7148  3.0298
 6539TIP3    H241033   3.781   2.891  17.052 -0.4531 -0.5375  0.0067
 6540TIP3   OH241034   6.368   1.430  16.835  0.0293 -0.0597 -0.4361
 6540TIP3    H141035   6.367   1.512  16.883 -2.2453 -0.7605  0.8578
 6540TIP3    H241036   6.278   1.417  16.807  0.3039 -2.1370 -0.5475
 6541TIP3   OH241037   5.099   0.412   3.412  0.2549 -0.1023  0.4897
 6541TIP3    H141038   5.146   0.405   3.329  1.6287  0.8852  1.1417
 6541TIP3    H241039   5.156   0.368   3.475  0.1298  0.7597  1.2237
 6542TIP3   OH241040   4.235   1.865  14.272 -0.0264  0.2214 -0.0809
 6542TIP3    H141041   4.294   1.793  14.253 -1.2085 -0.7360 -0.2658
 6542TIP3    H241042   4.153   1.823  14.298  0.2955  1.4136  3.4957
 6543TIP3   OH241043   2.575   2.686  12.141  0.9277  0.4010 -0.4277
 6543TIP3    H141044   2.568   2.613  12.080  1.1763  0.4727 -0.5448
 6543TIP3    H241045   2.667   2.685  12.170  0.7125  0.1096  0.2672
 6544TIP3   OH241046   3.884   4.805   0.589 -0.2326  0.1367  0.2495
 6544TIP3    H141047   3.966   4.799   0.638  0.8383  1.3878 -1.2856
 6544TIP3    H241048   3.894   4.742   0.518  0.8006  2.4137 -1.7560
 6545TIP3   OH241049   1.640   4.984  14.387  0.0848 -0.1135  0.4887
 6545TIP3    H141050   1.592   5.065  14.400 -0.9191 -0.6687  0.3502
 6545TIP3    H241051   1.720   5.010  14.340  0.0757  0.8574  0.9993
 6546TIP3   OH241052   3.964   3.155   1.162 -0.2755  0.1008 -0.0557
 6546TIP3    H141053   4.059   3.164   1.163 -0.2905  0.4993 -0.9952
 6546TIP3    H241054   3.949   3.061   1.168  0.1541  0.0710  0.7134
 6547TIP3   OH241055   3.562   0.720  16.846 -0.1448 -0.2692 -0.2370
 6547TIP3    H141056   3.594   0.802  16.884  1.2300 -0.2171 -1.4248
 6547TIP3    H241057   3.640   0.665  16.839 -0.5795 -0.7473 -1.7415
 6548TIP3   OH241058   4.374   3.200  11.136 -0.3902 -0.0438  0.2969
 6548TIP3    H141059   4.370   3.115  11.092 -0.0016  0.3308 -0.4710
 6548TIP3    H241060   4.354   3.263  11.068  0.0378  0.5358  0.6997
 6549TIP3   OH241061   3.429   4.382  13.112 -0.9169  0.3276  0.3079
 6549TIP3    H141062   3.511   4.390  13.162 -0.5501  0.5009 -0.3156
 6549TIP3    H241063   3.380   4.462  13.134 -0.3562  0.8542 -0.3146
 6550TIP3   OH241064   3.902   2.314  11.109  0.3416  0.6483  0.0584
 6550TIP3    H141065   3.914   2.296  11.203  1.9593  1.3782  0.0149
 6550TIP3    H241066   3.902   2.410  11.103 -1.1109  0.6358 -0.5527
 6551TIP3   OH241067   2.155   4.706  12.030 -0.7559 -0.7222 -0.0207
 6551TIP3    H141068   2.094   4.779  12.043 -0.7201 -0.9386  1.5644
 6551TIP3    H241069   2.098   4.631  12.013 -0.7797 -0.2711 -2.3431
 6552TIP3   OH241070   1.895   2.486  13.625 -0.3110  0.6238  0.2249
 6552TIP3    H141071   1.900   2.528  13.539  2.7871  0.4509  0.2064
 6552TIP3    H241072   1.923   2.396  13.610 -1.2951  0.1315  1.1913
 6553TIP3   OH241073   5.639   3.260  15.657 -0.0004  0.1268  0.2486
 6553TIP3    H141074   5.557   3.248  15.705  0.6275 -0.8125  1.1379
 6553TIP3    H241075   5.656   3.354  15.661  0.0345  0.0813  1.9257
 6554TIP3   OH241076   1.138   3.797  11.815  0.7145 -0.1254 -0.1307
 6554TIP3    H141077   1.097   3.814  11.730 -0.4776  2.5824  0.8730
 6554TIP3    H241078   1.222   3.843  11.811  0.5269  0.2583  0.2337
 6555TIP3   OH241079   0.769   1.853  11.557  0.1185  0.3887  0.0371
 6555TIP3    H141080   0.753   1.839  11.464 -0.7955  1.0971  0.0734
 6555TIP3    H241081   0.830   1.783  11.582  1.7995  1.2190 -1.4664
 6556TIP3   OH241082   0.302   4.710  13.440  0.3282  0.1403 -0.1989
 6556TIP3    H141083   0.324   4.780  13.502  0.5913 -0.1195  0.0049
 6556TIP3    H241084   0.351   4.732  13.361  0.2636  0.2870 -0.1985
 6557TIP3   OH241085   6.275   6.763  13.786  0.1936 -0.2739 -0.5684
 6557TIP3    H141086   6.272   6.852  13.823 -0.0885 -0.3747 -0.3426
 6557TIP3    H241087   6.320   6.773  13.702  0.0128  0.1112 -0.6212
 6558TIP3   OH241088   3.101   5.160   6.783  0.3584  0.2193  0.1374
 6558TIP3    H141089   3.157   5.083   6.793 -0.2849 -0.0877  1.5628
 6558TIP3    H241090   3.065   5.151   6.695 -0.1023 -1.3968  0.4461
 6559TIP3   OH241091   0.302   6.466  14.968  0.2674  0.0657  0.1368
 6559TIP3    H141092   0.295   6.372  14.985  3.5691 -0.2029  0.5990
 6559TIP3    H241093   0.261   6.507  15.044 -0.5553 -0.9843  0.2817
 6560TIP3   OH241094   0.110   0.412   3.709  0.1628 -0.2968  0.1805
 6560TIP3    H141095   0.138   0.333   3.661  2.2249  0.6092 -0.2230
 6560TIP3    H241096   0.099   0.382   3.799  2.4845 -0.7698  0.3590
 6561TIP3   OH241097   4.801   6.676   4.863  0.3140 -0.0883 -0.2652
 6561TIP3    H141098   4.880   6.626   4.883 -0.6057 -0.9611  1.4405
 6561TIP3    H241099   4.731   6.630   4.910 -1.2572  0.5552 -1.8452
 6562TIP3   OH241100   0.309   3.918   4.955 -0.0797 -0.2450  0.1827
 6562TIP3    H141101   0.245   3.989   4.957 -0.1614 -0.3319  0.8526
 6562TIP3    H241102   0.394   3.962   4.951 -0.1176 -0.1026  0.9002
 6563TIP3   OH241103   6.116   5.092   0.544 -0.5309  0.5950  0.2022
 6563TIP3    H141104   6.118   5.057   0.455  2.1022 -0.6075  0.6407
 6563TIP3    H241105   6.023   5.089   0.569 -1.8003  3.4256 -3.3258
 6564TIP3   OH241106   1.263   6.175  14.760  0.0428  0.2435 -0.1188
 6564TIP3    H141107   1.242   6.149  14.670 -1.8682  1.6906 -0.1558
 6564TIP3    H241108   1.273   6.091  14.807 -1.8037 -0.5815 -1.0898
 6565TIP3   OH241109   3.609   3.381   3.786 -0.3173 -0.2527  0.3033
 6565TIP3    H141110   3.544   3.390   3.717  0.1159 -1.9163 -0.3813
 6565TIP3    H241111   3.638   3.470   3.804 -1.9560  0.4142 -0.1597
 6566TIP3   OH241112   1.581   3.141  16.851  0.1058 -0.1973  0.3445
 6566TIP3    H141113   1.586   3.047  16.870 -1.0773 -0.3703 -0.0798
 6566TIP3    H241114   1.489   3.163  16.868 -0.0460  0.5016 -1.2366
 6567TIP3   OH241115   0.776   4.696  10.625 -0.1104 -0.1532  0.0111
 6567TIP3    H141116   0.740   4.761  10.685  0.0701 -1.4757  1.6484
 6567TIP3    H241117   0.868   4.688  10.650 -0.0342 -0.7533 -0.4280
 6568TIP3   OH241118   2.117   5.950  13.296 -0.1290  0.1061  0.0224
 6568TIP3    H141119   2.029   5.947  13.259 -0.7823  0.6190  1.4732
 6568TIP3    H241120   2.108   5.915  13.384  0.8518  1.3391  0.6581
 6569TIP3   OH241121   1.277   6.140  15.528  0.1149 -0.3589  0.4788
 6569TIP3    H141122   1.236   6.088  15.597  2.1313 -0.5302  1.6338
 6569TIP3    H241123   1.266   6.231  15.557 -0.6705 -0.3145  0.0572
 6570TIP3   OH241124   4.022   2.562  15.566 -0.3898  0.1698  0.2479
 6570TIP3    H141125   3.940   2.514  15.570 -0.2262 -0.1616 -0.2708
 6570TIP3    H241126   4.063   2.546  15.651  0.0726 -1.3760 -0.2292
 6571TIP3   OH241127   4.516   3.674   3.628 -0.0467 -0.5557  0.0138
 6571TIP3    H141128   4.529   3.737   3.699  0.9997 -0.1715 -0.4952
 6571TIP3    H241129   4.591   3.615   3.634 -0.4756 -1.1285 -0.1608
 6572TIP3   OH241130   5.894   1.024   5.218  0.4340 -0.7944  0.1378
 6572TIP3    H141131   5.826   1.089   5.235  1.3739  0.6638 -1.4237
 6572TIP3    H241132   5.955   1.033   5.292  0.0524 -0.6163  0.4343
 6573TIP3   OH241133   0.600   5.711  13.664 -0.0057 -0.0863  0.2058
 6573TIP3    H141134   0.518   5.724  13.711 -0.4229  3.1504 -1.1842
 6573TIP3    H241135   0.668   5.733  13.727 -0.2861 -0.6588  0.7186
 6574TIP3   OH241136   4.449   0.266  14.795 -0.0249 -0.7067  0.5327
 6574TIP3    H141137   4.392   0.334  14.831 -0.2395 -0.6578  0.1058
 6574TIP3    H241138   4.434   0.190  14.851  0.4140 -0.3261  1.1750
 6575TIP3   OH241139   4.844   2.205   4.537  0.0949  0.7724  0.3081
 6575TIP3    H141140   4.797   2.273   4.586  1.7043  1.5457  0.8610
 6575TIP3    H241141   4.784   2.180   4.467 -1.7574  0.5640  1.8958
 6576TIP3   OH241142   3.605   5.716   2.206  0.8594  0.3779  0.1916
 6576TIP3    H141143   3.700   5.719   2.193  1.1398 -1.0904  1.5668
 6576TIP3    H241144   3.570   5.701   2.118  1.9859 -0.1406 -0.1958
 6577TIP3   OH241145   2.245   3.998  10.816 -0.2626  0.2607 -0.0484
 6577TIP3    H141146   2.179   3.989  10.747  0.1459  0.3735 -0.4548
 6577TIP3    H241147   2.245   3.914  10.861 -1.1579  0.4790  0.3809
 6578TIP3   OH241148   5.269   2.147   5.292  0.1308  0.1317  0.0534
 6578TIP3    H141149   5.222   2.225   5.261 -0.6849 -0.8181 -1.2129
 6578TIP3    H241150   5.204   2.077   5.288  1.1226 -0.8261  0.2074
 6579TIP3   OH241151   4.762   2.501   5.185  0.3966 -0.3982  0.0971
 6579TIP3    H141152   4.717   2.417   5.198 -1.3109  0.6982  1.7847
 6579TIP3    H241153   4.802   2.520   5.271 -2.0527  2.0183  0.8333
 6580TIP3   OH241154   2.139   4.121  14.829 -0.0843  0.2404  0.2999
 6580TIP3    H141155   2.076   4.112  14.901 -0.3712 -1.4183 -0.1254
 6580TIP3    H241156   2.093   4.086  14.753  0.5617  1.0987 -0.5053
 6581TIP3   OH241157   2.619   1.975   3.244  0.0594  0.0257 -0.2628
 6581TIP3    H141158   2.641   1.999   3.153  0.6376  0.2628 -0.0638
 6581TIP3    H241159   2.680   1.905   3.265  1.3342  1.3408  0.6217
 6582TIP3   OH241160   0.509   1.349  12.329  0.3094  0.0752 -0.0911
 6582TIP3    H141161   0.519   1.305  12.413 -0.6678  3.2854  1.8703
 6582TIP3    H241162   0.595   1.387  12.311  0.5013 -0.5579 -0.5573
 6583TIP3   OH241163   0.690   1.759  11.834 -0.0557  0.3575 -0.4835
 6583TIP3    H141164   0.627   1.812  11.883  0.3030  0.1172  0.2690
 6583TIP3    H241165   0.716   1.814  11.761  0.7580  1.4848  0.6058
 6584TIP3   OH241166   4.234   1.027  11.682  0.1247  0.0701 -0.2880
 6584TIP3    H141167   4.157   1.081  11.662 -0.6952 -1.5605 -1.8128
 6584TIP3    H241168   4.209   0.978  11.761  0.2261  0.6639  0.1231
 6585TIP3   OH241169   5.392   2.597  14.767 -0.1332  0.6123  0.8483
 6585TIP3    H141170   5.344   2.628  14.844 -1.7931 -1.6362  0.8097
 6585TIP3    H241171   5.331   2.538  14.723  1.9831 -0.8425 -0.3071
 6586TIP3   OH241172   0.433   1.829   1.235 -0.4450 -0.0302  0.1620
 6586TIP3    H141173   0.403   1.886   1.306 -1.0839  0.4686 -0.4909
 6586TIP3    H241174   0.507   1.876   1.196  0.2929 -0.5850  0.8601
 6587TIP3   OH241175   6.115   4.834   4.202  0.2246  0.4452 -0.0556
 6587TIP3    H141176   6.092   4.924   4.223  0.9250  0.6072  0.0587
 6587TIP3    H241177   6.032   4.791   4.183 -0.3954  0.5181  2.1718
 6588TIP3   OH241178   4.099   5.746   5.176 -0.0303  0.0247  1.2633
 6588TIP3    H141179   4.050   5.798   5.113  0.7579 -0.5463  0.1443
 6588TIP3    H241180   4.132   5.672   5.126 -0.3354 -1.0672  2.6148
 6589TIP3   OH241181   1.349   1.643  16.545  0.6868  0.4375 -0.4923
 6589TIP3    H141182   1.444   1.641  16.551  0.6518  0.5035  0.1649
 6589TIP3    H241183   1.321   1.556  16.573  0.6306 -0.2488 -2.5421
 6590TIP3   OH241184   4.449   5.016  14.428 -0.4460 -0.5480 -0.4654
 6590TIP3    H141185   4.544   5.002  14.428 -0.1218  1.2078 -2.2010
 6590TIP3    H241186   4.419   4.975  14.509  2.2862  1.7491  1.9748
 6591TIP3   OH241187   1.811   2.122  15.250 -0.2821 -0.1846  0.3717
 6591TIP3    H141188   1.737   2.062  15.265 -0.9599  0.3278 -0.7937
 6591TIP3    H241189   1.865   2.078  15.185 -0.8068  0.4745 -0.5230
 6592TIP3   OH241190   6.269   3.832   6.021  0.5324 -0.0199  0.3048
 6592TIP3    H141191   6.314   3.907   5.983 -0.6683  0.8132  0.4901
 6592TIP3    H241192   6.190   3.868   6.061 -1.0336 -1.5803 -1.1893
 6593TIP3   OH241193   5.579   1.170  11.341  0.5674  0.2674 -0.0572
 6593TIP3    H141194   5.560   1.143  11.431 -0.1819  0.4039 -0.1702
 6593TIP3    H241195   5.509   1.131  11.289 -0.3493  2.0979 -0.2769
 6594TIP3   OH241196   1.791   1.858   3.158  0.3041 -0.2073  0.1878
 6594TIP3    H141197   1.756   1.785   3.107  0.7830 -0.2278 -0.1169
 6594TIP3    H241198   1.724   1.926   3.151 -0.2140 -0.6713  0.6079
 6595TIP3   OH241199   0.443   0.200  10.638  0.0686 -0.0067 -0.0085
 6595TIP3    H141200   0.520   0.162  10.596 -0.3338  0.4999 -1.2339
 6595TIP3    H241201   0.368   0.157  10.596 -0.3320 -0.7818  1.4445
 6596TIP3   OH241202   5.736   5.903   1.706 -0.0937 -0.2132  0.2699
 6596TIP3    H141203   5.732   5.992   1.671  1.6031  0.0268  0.5690
 6596TIP3    H241204   5.680   5.904   1.784  0.5275  0.8262  0.7165
 6597TIP3   OH241205   4.765   4.438  15.423  0.5439  0.0880  0.3964
 6597TIP3    H141206   4.762   4.516  15.368 -0.4083 -0.2733 -0.0797
 6597TIP3    H241207   4.704   4.457  15.495 -0.4077 -0.5686 -0.2148
 6598TIP3   OH241208   5.031   2.999  13.827  0.2444  0.7913  0.1112
 6598TIP3    H141209   5.065   3.050  13.900  0.7801 -0.5854  0.8629
 6598TIP3    H241210   4.945   2.969  13.856  0.7277 -0.3046  0.4876
 6599TIP3   OH241211   1.831   0.496   1.838  0.2442 -0.2548 -0.3510
 6599TIP3    H141212   1.885   0.436   1.786  0.3181  0.2098 -0.8107
 6599TIP3    H241213   1.882   0.511   1.917  0.3055 -0.6588 -0.3076
 6600TIP3   OH241214   4.339   3.783  12.814  0.1824  0.4765  0.3448
 6600TIP3    H141215   4.358   3.868  12.855 -0.9108  0.7301  0.3796
 6600TIP3    H241216   4.366   3.718  12.879  0.3561  0.8239  0.6252
 6601TIP3   OH241217   0.831   5.582  17.203  0.2310 -0.2953  0.7055
 6601TIP3    H141218   0.829   5.605  17.296 -1.4422 -0.5482  0.7623
 6601TIP3    H241219   0.745   5.609  17.170  0.7225 -0.4081 -0.7223
 6602TIP3   OH241220   0.213   3.087   1.000  0.2152 -0.0357 -0.1185
 6602TIP3    H141221   0.146   3.152   0.979  0.9641  0.6725 -0.3426
 6602TIP3    H241222   0.188   3.010   0.948  0.0745  0.5212 -0.8947
 6603TIP3   OH241223   1.192   1.781   2.661  0.1863 -0.2377 -0.1314
 6603TIP3    H141224   1.259   1.774   2.593  0.1323 -1.1486 -0.1002
 6603TIP3    H241225   1.120   1.827   2.618  0.1311 -0.8450 -0.7126
 6604TIP3   OH241226   3.676   5.898  15.210  0.6041 -0.3495  0.0754
 6604TIP3    H141227   3.704   5.967  15.149  2.0547 -0.6830  0.3427
 6604TIP3    H241228   3.659   5.822  15.154 -0.0387 -0.0850 -0.1083
 6605TIP3   OH241229   5.055   0.965   4.943  0.4584  0.7531 -0.1268
 6605TIP3    H141230   4.992   1.017   4.892  2.2821  1.9710 -1.2484
 6605TIP3    H241231   5.114   1.030   4.981  1.9367 -0.4017 -0.3718
 6606TIP3   OH241232   3.915   2.901  12.926  0.5478  0.0650 -0.3752
 6606TIP3    H141233   3.918   2.806  12.935  1.0215 -0.0215 -1.3532
 6606TIP3    H241234   4.007   2.929  12.924  0.4200  0.4809 -0.7003
 6607TIP3   OH241235   3.850   5.814   2.137  0.0846 -0.3491 -0.1651
 6607TIP3    H141236   3.925   5.858   2.178  0.5046 -1.1624 -0.0284
 6607TIP3    H241237   3.801   5.884   2.094  1.1109  0.1494 -0.5487
 6608TIP3   OH241238   3.912   4.763   0.954 -0.0970 -0.6024  0.4112
 6608TIP3    H141239   3.986   4.782   0.896 -0.3436 -0.9835 -0.0362
 6608TIP3    H241240   3.836   4.768   0.897 -0.3678 -0.7221  0.7611
 6609TIP3   OH241241   4.379   1.091   0.417  0.3512 -0.0236  0.1041
 6609TIP3    H141242   4.310   1.129   0.362  0.1477  0.3513  0.6182
 6609TIP3    H241243   4.442   1.161   0.431 -0.1431  0.2213  1.2480
 6610TIP3   OH241244   2.421   3.733  13.819 -0.1614 -0.0961 -0.2611
 6610TIP3    H141245   2.457   3.652  13.854 -2.0844 -1.2608 -0.8011
 6610TIP3    H241246   2.336   3.742  13.862  0.3495  2.1133  0.4124
 6611TIP3   OH241247   3.498   6.009  13.528 -0.0035  0.2842  0.3170
 6611TIP3    H141248   3.476   6.089  13.575  0.2959 -0.5054  1.8522
 6611TIP3    H241249   3.585   5.985  13.560  0.8238  0.4373 -1.6544
 6612TIP3   OH241250   4.861   1.606   0.817 -0.0974 -0.2163 -0.2162
 6612TIP3    H141251   4.854   1.649   0.732 -0.3620  0.3042  0.0673
 6612TIP3    H241252   4.907   1.524   0.798 -0.1257 -0.0920 -0.8544
 6613TIP3   OH241253   2.735   6.278  10.840 -0.4614 -0.0042 -0.1258
 6613TIP3    H141254   2.695   6.315  10.761 -1.2347  1.9989  1.1258
 6613TIP3    H241255   2.813   6.332  10.855 -0.7804  0.1914  0.9282
 6614TIP3   OH241256   1.513   1.262   2.528 -0.3090 -0.4020 -0.9925
 6614TIP3    H141257   1.485   1.173   2.548 -0.3449 -0.4424 -1.2204
 6614TIP3    H241258   1.483   1.277   2.438 -0.5608 -0.0546 -0.8516
 6615TIP3   OH241259   6.492   6.741   1.676  0.0149  0.4343  0.3454
 6615TIP3    H141260   6.458   6.684   1.744 -0.7428  2.9968  2.2495
 6615TIP3    H241261   6.431   6.732   1.603 -0.2851 -0.8613  0.7441
 6616TIP3   OH241262   0.880   3.578  11.897 -0.2467  0.2340 -0.0353
 6616TIP3    H141263   0.910   3.668  11.893  0.1788  0.0698 -0.6797
 6616TIP3    H241264   0.936   3.537  11.963 -0.1173  0.3200 -0.0923
 6617TIP3   OH241265   1.778   1.767  11.949  0.0014 -0.2251  0.0861
 6617TIP3    H141266   1.735   1.753  12.033 -2.4674  0.4629 -1.0011
 6617TIP3    H241267   1.725   1.718  11.886  0.9905  0.4127 -1.2875
 6618TIP3   OH241268   3.729   4.121  14.615 -0.3942 -0.2557  0.0734
 6618TIP3    H141269   3.750   4.151  14.527 -2.4417 -0.4927 -0.5292
 6618TIP3    H241270   3.767   4.189  14.672 -0.1465  0.5612 -1.0237
 6619TIP3   OH241271   6.267   4.755  15.575 -0.3605  0.7596 -0.1114
 6619TIP3    H141272   6.287   4.682  15.517 -0.5749  0.0945  0.6423
 6619TIP3    H241273   6.172   4.750  15.588 -0.2605  0.6371  0.6315
 6620TIP3   OH241274   0.892   6.092   1.090  0.4653  0.5924  0.6854
 6620TIP3    H141275   0.842   6.162   1.049 -1.7483 -0.5454  1.3187
 6620TIP3    H241276   0.840   6.013   1.076  2.1676 -0.7066  1.2765
 6621TIP3   OH241277   3.270   1.191  12.749  0.0707 -0.1875  0.4385
 6621TIP3    H141278   3.315   1.148  12.675  1.3341  0.5664  0.7328
 6621TIP3    H241279   3.257   1.120  12.812  0.7683 -0.4509  0.2993
 6622TIP3   OH241280   4.332   2.928   3.433 -0.7082 -0.2891  0.5740
 6622TIP3    H141281   4.307   3.013   3.470 -2.3739 -0.7181  0.5205
 6622TIP3    H241282   4.250   2.889   3.405 -0.0933 -2.2842  1.3395
 6623TIP3   OH241283   6.723   5.732  13.767 -0.2862  0.0803 -0.3682
 6623TIP3    H141284   6.734   5.646  13.728 -3.2334 -0.0645 -1.0974
 6623TIP3    H241285   6.811   5.757  13.795  0.9510 -2.3586 -1.7549
 6624TIP3   OH241286   2.627   5.260  15.607  0.5321 -0.0752 -0.3298
 6624TIP3    H141287   2.622   5.214  15.690  0.3795  0.3175 -0.1214
 6624TIP3    H241288   2.541   5.300  15.596  0.7152  0.2939 -0.4327
 6625TIP3   OH241289   2.979   5.669   2.361  0.6960 -0.2112  0.2506
 6625TIP3    H141290   2.929   5.626   2.431  1.4919 -1.5804 -0.0038
 6625TIP3    H241291   3.039   5.727   2.408 -0.6649  1.0047  0.5802
 6626TIP3   OH241292   0.636   1.616   1.656  0.9848  0.1660  0.0787
 6626TIP3    H141293   0.705   1.557   1.687  0.0151 -1.5559 -0.8327
 6626TIP3    H241294   0.610   1.579   1.571 -0.4065  1.3060 -0.0288
 6627TIP3   OH241295   6.183   3.194  13.351 -1.0350  0.5333  0.3975
 6627TIP3    H141296   6.274   3.186  13.323 -1.0359  2.8078 -0.4864
 6627TIP3    H241297   6.174   3.132  13.424  1.2812  0.4548  0.6850
 6628TIP3   OH241298   4.164   5.510   6.092 -0.1000  0.1575 -0.0900
 6628TIP3    H141299   4.219   5.582   6.124 -0.5868  0.6803 -0.3909
 6628TIP3    H241300   4.085   5.554   6.059 -0.3450 -0.5091 -0.4107
 6629TIP3   OH241301   4.617   3.027  16.330  0.3461 -0.1134  0.3846
 6629TIP3    H141302   4.614   2.952  16.271 -0.1261  0.5066 -0.4031
 6629TIP3    H241303   4.649   3.099  16.275 -1.1338  0.7273  0.5770
 6630TIP3   OH241304   1.646   2.064  13.294  0.0899  0.3339  0.2030
 6630TIP3    H141305   1.605   2.148  13.274 -0.6796  0.2766  1.4275
 6630TIP3    H241306   1.647   2.017  13.211 -1.9554  0.5136  0.0310
 6631TIP3   OH241307   1.419   3.914   3.631 -0.2334 -1.0092 -0.0874
 6631TIP3    H141308   1.465   3.841   3.589  0.3602 -0.6077 -0.1470
 6631TIP3    H241309   1.366   3.951   3.561 -0.3465 -1.2290 -0.1202
 6632TIP3   OH241310   6.252   6.190   5.456  0.0844 -0.4639  0.0133
 6632TIP3    H141311   6.261   6.121   5.523 -0.0153 -0.5192 -0.0300
 6632TIP3    H241312   6.172   6.236   5.481 -1.8485 -2.5180 -1.8904
 6633TIP3   OH241313   2.940   0.401  15.829  0.4373 -0.4902 -0.3324
 6633TIP3    H141314   2.849   0.412  15.802  0.7297 -0.3660 -1.3099
 6633TIP3    H241315   2.940   0.319  15.879 -0.3011 -0.2040  0.1551
 6634TIP3   OH241316   5.527   0.334   4.823 -0.1285 -0.5669  0.4198
 6634TIP3    H141317   5.509   0.421   4.859  1.1626 -0.2151  0.2526
 6634TIP3    H241318   5.536   0.349   4.729  1.0353 -0.7020  0.4965
 6635TIP3   OH241319   5.566   5.453  14.101  0.3377 -0.9645  0.0135
 6635TIP3    H141320   5.499   5.460  14.170  0.3625  1.7879 -0.0976
 6635TIP3    H241321   5.528   5.394  14.036 -2.4173  0.9881 -0.3632
 6636TIP3   OH241322   4.872   4.478   3.446 -0.3303 -0.5001  0.0928
 6636TIP3    H141323   4.855   4.505   3.536  0.3793 -1.0402  0.4064
 6636TIP3    H241324   4.872   4.559   3.396 -1.7137 -0.2885  0.3987
 6637TIP3   OH241325   6.430   4.594  11.533 -0.1083  0.1579  0.1200
 6637TIP3    H141326   6.480   4.622  11.610 -0.6166  3.5473 -0.6176
 6637TIP3    H241327   6.339   4.603  11.559 -0.4409 -3.1478  0.4942
 6638TIP3   OH241328   4.360   5.431  13.458  0.1238 -0.2062  0.7053
 6638TIP3    H141329   4.395   5.342  13.468  1.3034  0.1331 -0.1687
 6638TIP3    H241330   4.408   5.467  13.384  0.1994  1.4318  1.5197
 6639TIP3   OH241331   5.702   3.796   0.558 -0.6245 -0.1426 -0.1979
 6639TIP3    H141332   5.624   3.741   0.561 -1.7601  1.4308  0.5810
 6639TIP3    H241333   5.763   3.755   0.619 -1.5614 -0.3496  0.6151
 6640TIP3   OH241334   2.453   0.699  13.652  0.6257  0.3347  0.1040
 6640TIP3    H141335   2.482   0.625  13.599 -3.1031  0.1708 -2.1032
 6640TIP3    H241336   2.400   0.658  13.721  0.7120  0.8349  0.4685
 6641TIP3   OH241337   1.257   1.847  11.174  0.1930 -0.0485  0.2598
 6641TIP3    H141338   1.175   1.835  11.221 -0.1298  0.0486 -0.2721
 6641TIP3    H241339   1.236   1.824  11.083  0.9448 -0.7816  0.2615
 6642TIP3   OH241340   3.622   3.635   3.929 -0.4016  0.2479 -0.1449
 6642TIP3    H141341   3.641   3.698   3.860 -1.8339  0.0729 -0.7344
 6642TIP3    H241342   3.707   3.617   3.969  0.7025 -0.6080 -2.6715
 6643TIP3   OH241343   5.818   4.217  12.982 -0.0234 -0.0324  0.3419
 6643TIP3    H141344   5.782   4.297  13.021  1.6453  0.4074  1.0934
 6643TIP3    H241345   5.748   4.152  12.990 -0.1575  0.3282  3.2123
 6644TIP3   OH241346   5.906   2.267   2.229 -0.1184  0.1672  0.1267
 6644TIP3    H141347   5.858   2.343   2.261 -1.6857 -0.0959 -1.4880
 6644TIP3    H241348   5.946   2.296   2.148  0.7027 -0.2535  0.3694
 6645TIP3   OH241349   2.291   3.232  12.643  0.0257 -1.0946 -0.1644
 6645TIP3    H141350   2.254   3.263  12.725  0.4110 -0.3714 -0.2621
 6645TIP3    H241351   2.261   3.141  12.637  0.2886 -1.2777  0.9504
 6646TIP3   OH241352   5.921   2.458  15.261  0.3628 -0.1687  0.1017
 6646TIP3    H141353   5.930   2.550  15.235  1.2291 -0.4343 -0.5999
 6646TIP3    H241354   5.878   2.417  15.186 -0.8497 -0.1802  0.7796
 6647TIP3   OH241355   1.753   0.262  15.727 -0.2160 -0.3515 -0.1092
 6647TIP3    H141356   1.756   0.272  15.822 -2.0465 -0.9980  0.0530
 6647TIP3    H241357   1.839   0.226  15.704  0.0568 -0.7076  1.3662
 6648TIP3   OH241358   1.331   5.681  15.673  0.4248 -0.0931  0.1467
 6648TIP3    H141359   1.250   5.635  15.693 -0.1879  0.6246 -0.6486
 6648TIP3    H241360   1.314   5.772  15.697  1.0641  0.0292  0.1586
 6649TIP3   OH241361   0.514   3.444   3.193  0.3817 -0.6530 -0.3721
 6649TIP3    H141362   0.522   3.410   3.282  1.2295 -2.8489 -1.2257
 6649TIP3    H241363   0.485   3.369   3.141  1.1458  0.2336 -2.1750
 6650TIP3   OH241364   2.567   1.082   3.668  0.1904 -0.3270  0.0383
 6650TIP3    H141365   2.536   1.000   3.707  2.4888 -0.2265  2.3730
 6650TIP3    H241366   2.613   1.126   3.739  0.8064  2.0459 -1.7122
 6651TIP3   OH241367   3.443   3.163   2.053 -0.3313  0.2820 -0.0560
 6651TIP3    H141368   3.521   3.107   2.054  2.4292  3.8322  0.3221
 6651TIP3    H241369   3.424   3.176   1.960  0.5472  0.6871 -0.1847
 6652TIP3   OH241370   0.116   2.355  12.397 -0.1092  0.4727  0.4361
 6652TIP3    H141371   0.044   2.297  12.424 -0.3953  0.4037 -0.4487
 6652TIP3    H241372   0.189   2.330  12.454  0.3772 -2.1433 -1.1509
 6653TIP3   OH241373   3.471   2.545  15.353 -0.1292 -0.1262  0.0430
 6653TIP3    H141374   3.464   2.476  15.419  0.2395  0.0858  0.3027
 6653TIP3    H241375   3.545   2.599  15.381 -1.2420  1.1726  0.5946
 6654TIP3   OH241376   4.398   2.971   0.961  0.5955 -0.2315 -0.1967
 6654TIP3    H141377   4.444   2.931   0.887  1.1602 -1.8341  0.9538
 6654TIP3    H241378   4.453   2.950   1.037 -0.3794  0.6678  0.7832
 6655TIP3   OH241379   5.250   4.676  12.575 -0.4092  0.1545  0.2148
 6655TIP3    H141380   5.185   4.713  12.514 -0.1078  2.1817  1.0391
 6655TIP3    H241381   5.203   4.607  12.622 -0.9875 -0.6409 -1.4515
 6656TIP3   OH241382   5.444   3.959   0.891 -0.2518 -0.1571  0.0316
 6656TIP3    H141383   5.482   3.874   0.916 -0.9049 -0.2897  0.5854
 6656TIP3    H241384   5.514   4.022   0.908 -0.4778 -0.3054  1.7148
 6657TIP3   OH241385   1.378   2.021  13.684 -0.1861 -0.0309  0.1063
 6657TIP3    H141386   1.367   2.114  13.664 -0.0598  0.1728  0.9364
 6657TIP3    H241387   1.401   1.981  13.601 -1.0558  0.5430 -0.4280
 6658TIP3   OH241388   6.083   2.012   4.440  0.4289  0.3095 -0.4245
 6658TIP3    H141389   6.086   2.054   4.526  0.7778 -1.4634  0.4713
 6658TIP3    H241390   5.994   1.979   4.433  0.2524  0.8887 -0.9789
 6659TIP3   OH241391   4.559   6.680   0.419 -0.7862  0.3627  1.0974
 6659TIP3    H141392   4.577   6.587   0.430  0.6258  0.1929 -1.7135
 6659TIP3    H241393   4.634   6.724   0.460  0.8023  0.0213 -1.2520
 6660TIP3   OH241394   1.247   0.662   3.808 -0.7234  0.8250 -0.5042
 6660TIP3    H141395   1.316   0.619   3.758  0.8643  0.8901  1.5278
 6660TIP3    H241396   1.189   0.699   3.741  1.5185  1.3428 -2.3014
 6661TIP3   OH241397   2.744   4.619  14.554 -0.3473  0.3280  0.2508
 6661TIP3    H141398   2.748   4.542  14.610  0.4244  0.8499  0.9412
 6661TIP3    H241399   2.651   4.645  14.556 -0.3896  0.1504  1.0261
 6662TIP3   OH241400   6.381   2.696   3.069 -0.4545  0.1191 -0.1597
 6662TIP3    H141401   6.430   2.770   3.105 -1.4187  0.4857  0.4254
 6662TIP3    H241402   6.297   2.733   3.043 -0.5374 -0.5559 -0.9049
 6663TIP3   OH241403   5.499   1.672  16.984  0.2758 -0.9276  0.0970
 6663TIP3    H141404   5.581   1.716  17.005  0.6482 -1.6217  0.1261
 6663TIP3    H241405   5.525   1.586  16.951 -0.4815 -2.1964  2.5148
 6664TIP3   OH241406   5.316   6.118  16.551  0.2375 -0.4911 -0.1426
 6664TIP3    H141407   5.304   6.024  16.542  0.5886 -0.3314 -3.2218
 6664TIP3    H241408   5.397   6.137  16.502 -0.7312  1.5761 -1.0714
 6665TIP3   OH241409   4.370   2.424  17.031  0.5509  0.0030  0.2199
 6665TIP3    H141410   4.452   2.416  17.079  1.4806 -1.5676 -1.4954
 6665TIP3    H241411   4.396   2.447  16.942 -0.9744  0.8244 -0.0557
 6666TIP3   OH241412   4.067   4.546  11.435 -0.5855  0.2636  0.4537
 6666TIP3    H141413   4.085   4.500  11.353 -0.8273  0.4795  0.2796
 6666TIP3    H241414   4.134   4.514  11.495  1.6523  2.4149 -0.6973
 6667TIP3   OH241415   0.241   5.040   3.730 -0.2785  0.0661  0.0054
 6667TIP3    H141416   0.238   4.993   3.647 -2.1413  0.9840 -0.4909
 6667TIP3    H241417   0.331   5.028   3.761  0.0749 -1.4266 -1.4640
 6668TIP3   OH241418   0.302   6.140  13.471 -0.3493 -0.6060  0.2120
 6668TIP3    H141419   0.304   6.125  13.566  2.2118 -1.1284  0.1401
 6668TIP3    H241420   0.323   6.232  13.461  1.1808 -0.9462  0.1274
 6669TIP3   OH241421   2.269   3.413  16.289  0.5743  0.7265 -0.4302
 6669TIP3    H141422   2.257   3.387  16.198 -0.1985 -1.0810  0.1484
 6669TIP3    H241423   2.197   3.370  16.336  1.4477  0.9419  1.1588
 6670TIP3   OH241424   3.143   0.741  12.177  0.5793 -0.1357 -0.0282
 6670TIP3    H141425   3.149   0.836  12.169  1.1470 -0.1736 -0.1074
 6670TIP3    H241426   3.079   0.715  12.111 -0.0208  0.2477  0.3950
 6671TIP3   OH241427   5.605   4.317   3.468  0.5409 -0.6885 -0.0245
 6671TIP3    H141428   5.570   4.345   3.384  0.9703 -0.5060 -0.1483
 6671TIP3    H241429   5.610   4.221   3.462  2.8733 -0.5799 -1.1748
 6672TIP3   OH241430   5.106   3.236  11.650 -0.2806 -0.0843  0.6613
 6672TIP3    H141431   5.158   3.302  11.605 -1.3892  0.8680  0.7224
 6672TIP3    H241432   5.016   3.254  11.623 -0.5239 -2.2990 -0.2122
 6673TIP3   OH241433   3.010   4.129  13.124  0.5687  0.2387  0.2447
 6673TIP3    H141434   3.052   4.086  13.198 -0.5013 -0.3872  0.5118
 6673TIP3    H241435   2.997   4.219  13.152 -0.6296 -0.1986  1.2034
 6674TIP3   OH241436   0.512   5.791   1.668  0.0697 -0.0935 -0.0977
 6674TIP3    H141437   0.452   5.782   1.741 -0.6555  0.3771 -0.6198
 6674TIP3    H241438   0.459   5.828   1.597  1.1529  1.1223 -0.3211
 6675TIP3   OH241439   4.186   1.798   3.486 -0.3796  0.1379 -0.0280
 6675TIP3    H141440   4.180   1.876   3.540  0.1798  2.0202 -2.4895
 6675TIP3    H241441   4.113   1.807   3.423 -0.3632 -1.3798 -0.3156
 6676TIP3   OH241442   1.190   4.874  16.142  0.0487 -0.1109 -0.4640
 6676TIP3    H141443   1.256   4.877  16.211  0.4594 -0.3325 -0.8442
 6676TIP3    H241444   1.164   4.966  16.129 -1.0842 -0.1784  0.9705
 6677TIP3   OH241445   5.365   3.141  13.333  0.1367 -0.1977 -0.5111
 6677TIP3    H141446   5.400   3.062  13.375 -1.0891 -0.7213 -0.4170
 6677TIP3    H241447   5.285   3.111  13.290  1.1646  0.3702 -3.0307
 6678TIP3   OH241448   4.853   6.356   1.526 -0.0521  0.2033 -0.0947
 6678TIP3    H141449   4.779   6.322   1.475 -1.6372  2.2440  0.7026
 6678TIP3    H241450   4.813   6.392   1.605  1.9256  0.5521  0.8132
 6679TIP3   OH241451   5.872   0.329  12.024 -0.1747 -0.2825  0.0236
 6679TIP3    H141452   5.886   0.235  12.015 -0.6434 -0.3870  0.3342
 6679TIP3    H241453   5.812   0.337  12.098  1.1287  0.3522  1.0634
 6680TIP3   OH241454   4.192   6.629   4.480  0.4351 -0.6318 -0.6137
 6680TIP3    H141455   4.209   6.642   4.386  0.9815  1.5964 -0.2548
 6680TIP3    H241456   4.266   6.670   4.524  0.1019 -1.5079  0.8252
 6681TIP3   OH241457   3.229   0.197  11.499 -0.1691  0.6310  0.5782
 6681TIP3    H141458   3.245   0.290  11.483 -0.8350  0.9622  1.7184
 6681TIP3    H241459   3.145   0.180  11.456  0.1900  0.4248 -0.0540
 6682TIP3   OH241460   2.641   1.473  15.232  0.2254 -0.3301  0.1286
 6682TIP3    H141461   2.655   1.513  15.145  1.7468 -0.8812  0.0814
 6682TIP3    H241462   2.547   1.458  15.237  0.3280 -2.8101 -2.5918
 6683TIP3   OH241463   1.560   5.363  10.821  0.5493 -0.4629  0.4218
 6683TIP3    H141464   1.591   5.321  10.741 -1.5722 -0.5349 -0.4150
 6683TIP3    H241465   1.514   5.441  10.791 -1.2176 -1.0546  1.4569
 6684TIP3   OH241466   0.676   5.406   6.605 -0.2289 -0.3555  0.0780
 6684TIP3    H141467   0.599   5.354   6.626  1.0429 -1.7932  1.3720
 6684TIP3    H241468   0.715   5.362   6.530 -0.3309  0.0103 -0.1906
 6685TIP3   OH241469   4.768   3.106  12.973 -0.5470 -0.3668 -0.6395
 6685TIP3    H141470   4.859   3.104  13.003 -0.9682 -1.0409  0.6874
 6685TIP3    H241471   4.727   3.031  13.016 -1.7724  0.0356 -1.0668
 6686TIP3   OH241472   5.791   2.100  13.483 -0.1024  0.2154  0.7024
 6686TIP3    H141473   5.812   2.044  13.408  1.2317 -0.2222  1.3755
 6686TIP3    H241474   5.706   2.138  13.461 -1.5934 -2.8398  0.6637
 6687TIP3   OH241475   3.089   4.778  11.746 -0.3146 -0.0974  0.2292
 6687TIP3    H141476   3.098   4.762  11.840 -1.0374 -0.5768  0.2255
 6687TIP3    H241477   2.994   4.785  11.732 -0.2009  0.1942 -0.4309
 6688TIP3   OH241478   0.930   3.802  13.394  0.3188 -0.1763 -0.1462
 6688TIP3    H141479   0.922   3.798  13.490 -1.4306  0.4228 -0.2232
 6688TIP3    H241480   0.937   3.710  13.367 -0.8954 -0.4763  0.4690
 6689TIP3   OH241481   1.118   0.902  16.699  0.0010  0.0378 -0.1512
 6689TIP3    H141482   1.117   0.828  16.637  1.0317  0.9379 -1.2899
 6689TIP3    H241483   1.200   0.947  16.681  0.6010  0.0457  2.2884
 6690TIP3   OH241484   6.749   6.062  11.793  0.0846 -0.9523  1.0812
 6690TIP3    H141485   6.742   6.151  11.758  0.6865 -1.1843  0.3502
 6690TIP3    H241486   6.659   6.037  11.814 -0.1710 -0.4402  0.5976
 6691TIP3   OH241487   5.924   2.165  12.812 -1.0989 -0.3618  0.1311
 6691TIP3    H141488   5.967   2.093  12.857 -0.9465 -0.2372  0.1839
 6691TIP3    H241489   5.853   2.191  12.871 -0.1406  0.6149  0.8748
 6692TIP3   OH241490   0.138   1.667   1.929  0.5625 -0.4877 -0.0393
 6692TIP3    H141491   0.072   1.653   1.861 -0.2746  0.2864  0.5988
 6692TIP3    H241492   0.184   1.583   1.935 -0.1691 -0.9471 -0.6911
 6693TIP3   OH241493   5.818   3.729  11.373  0.3776 -0.6938  0.1407
 6693TIP3    H141494   5.861   3.742  11.288  0.3573 -0.3380  0.1833
 6693TIP3    H241495   5.890   3.734  11.436  0.3118 -0.3760  0.1902
 6694TIP3   OH241496   5.700   1.750  11.876 -0.1373  0.0517 -0.4184
 6694TIP3    H141497   5.772   1.709  11.925  0.3284  0.1005 -1.0370
 6694TIP3    H241498   5.661   1.812  11.937  1.4128  1.2480 -0.5635
 6695TIP3   OH241499   3.055   6.188   0.030  0.2785 -0.0075 -0.0308
 6695TIP3    H141500   2.984   6.132   0.061  1.9458 -2.3164 -0.1029
 6695TIP3    H241501   3.037   6.274   0.069 -0.6191 -1.4026  2.9118
 6696TIP3   OH241502   1.195   6.531   0.217  0.5516 -0.0800 -0.0476
 6696TIP3    H141503   1.149   6.602   0.261  0.7629  0.3367 -0.4868
 6696TIP3    H241504   1.158   6.530   0.129  0.0353 -0.9927  0.1599
 6697TIP3   OH241505   1.474   0.528  15.041  0.3645  0.4307  0.5209
 6697TIP3    H141506   1.408   0.465  15.070  0.2471  0.1122 -0.3884
 6697TIP3    H241507   1.555   0.477  15.037  0.4295  0.5338  0.5198
 6698TIP3   OH241508   0.683   0.627  16.663 -0.0891  0.6634 -0.1398
 6698TIP3    H141509   0.740   0.678  16.605  0.7517  0.8442  0.8219
 6698TIP3    H241510   0.729   0.624  16.747 -0.0683 -1.7711 -0.1650
 6699TIP3   OH241511   4.754   6.268   1.982  0.3599 -0.1400 -0.5075
 6699TIP3    H141512   4.741   6.300   2.071  0.0409  4.1012 -1.8299
 6699TIP3    H241513   4.700   6.326   1.928  2.7251 -0.6100 -3.6776
 6700TIP3   OH241514   2.850   3.136   2.197  0.0798 -0.0744  0.0976
 6700TIP3    H141515   2.840   3.229   2.178 -0.7970  0.1773  1.5738
 6700TIP3    H241516   2.941   3.125   2.221 -0.6772  1.4169  4.4605
 6701TIP3   OH241517   4.898   1.491  12.154  0.4803 -0.1696 -0.7083
 6701TIP3    H141518   4.911   1.474  12.061  1.6212 -0.3458 -0.5327
 6701TIP3    H241519   4.955   1.428  12.198  0.9094  0.7519  0.0772
 6702TIP3   OH241520   3.809   3.737   2.923  0.2556 -0.7362 -0.3128
 6702TIP3    H141521   3.809   3.828   2.894 -1.0563 -0.4270  0.5706
 6702TIP3    H241522   3.837   3.687   2.846  1.5863  0.4376 -0.6388
 6703TIP3   OH241523   3.606   4.428   1.501 -0.2160  0.0693  0.1350
 6703TIP3    H141524   3.698   4.439   1.476 -0.5951 -0.2287 -1.5222
 6703TIP3    H241525   3.562   4.401   1.420 -1.7726  0.2278  0.8842
 6704TIP3   OH241526   2.641   3.611  12.920  0.0961 -0.0523 -0.3499
 6704TIP3    H141527   2.553   3.575  12.937  0.2051 -0.6818 -1.0657
 6704TIP3    H241528   2.628   3.706  12.918 -0.4324 -0.1057  0.3007
 6705TIP3   OH241529   5.326   5.613   0.941  0.2717  0.4111  0.6432
 6705TIP3    H141530   5.421   5.622   0.956  0.8410  1.0755 -2.5160
 6705TIP3    H241531   5.292   5.701   0.957  0.8598  1.0996 -1.4237
 6706TIP3   OH241532   1.400   2.307   6.534 -0.1014  0.4328  0.0540
 6706TIP3    H141533   1.452   2.365   6.590  0.7311  0.4944 -0.7827
 6706TIP3    H241534   1.416   2.338   6.445 -0.4748 -0.4264 -0.3230
 6707TIP3   OH241535   6.668   5.379  15.106  0.0141 -0.2184 -0.4582
 6707TIP3    H141536   6.673   5.418  15.193  3.0650 -1.2407 -0.0563
 6707TIP3    H241537   6.709   5.293  15.115  0.5731 -0.3090 -2.9173
 6708TIP3   OH241538   5.502   2.319  12.675  0.2336 -0.4931  0.6806
 6708TIP3    H141539   5.459   2.331  12.591 -0.2643 -2.3881  0.6218
 6708TIP3    H241540   5.532   2.228  12.674 -0.6251 -0.8725  2.9007
 6709TIP3   OH241541   3.097   0.122  15.205 -0.7381  0.4958 -0.4943
 6709TIP3    H141542   3.058   0.041  15.171  1.0493 -0.0911 -1.2578
 6709TIP3    H241543   3.066   0.127  15.295 -0.1890 -1.5482 -0.1287
 6710TIP3   OH241544   0.575   4.960   3.475 -0.5690 -0.9005 -0.2155
 6710TIP3    H141545   0.579   4.894   3.544  0.5242 -0.5192  0.1054
 6710TIP3    H241546   0.644   4.935   3.413  1.2243  0.9774  0.8975
 6711TIP3   OH241547   5.392   5.143   2.379  0.0757 -0.4343 -0.2459
 6711TIP3    H141548   5.369   5.147   2.286  0.4442 -0.5329 -0.3474
 6711TIP3    H241549   5.401   5.234   2.406 -0.0852 -0.4044 -0.2944
 6712TIP3   OH241550   3.685   6.627   2.923  0.3929 -0.2498 -0.4656
 6712TIP3    H141551   3.666   6.687   2.852  0.5362  0.4179  0.0483
 6712TIP3    H241552   3.769   6.588   2.900  0.4037 -0.0872 -0.7006
 6713TIP3   OH241553   5.381   5.017  11.411  0.3741  0.6581  0.0081
 6713TIP3    H141554   5.386   5.081  11.340  3.0874  1.2763  0.6172
 6713TIP3    H241555   5.289   4.990  11.414 -0.3367  2.6046 -1.9411
 6714TIP3   OH241556   3.309   2.297   1.658  0.0278  0.1753  0.3383
 6714TIP3    H141557   3.381   2.234   1.661 -0.7747 -0.9360 -1.7793
 6714TIP3    H241558   3.347   2.375   1.616 -0.2529 -0.8994 -2.0626
 6715TIP3   OH241559   4.152   2.748   3.338 -0.5094  0.7060  0.2803
 6715TIP3    H141560   4.136   2.732   3.431  1.7834 -1.4528  0.4458
 6715TIP3    H241561   4.120   2.669   3.295  0.5227  0.6507 -0.4308
 6716TIP3   OH241562   0.924   6.555   2.891  0.5167  0.4241 -0.4875
 6716TIP3    H141563   0.931   6.531   2.798  1.1090 -2.6830  0.2548
 6716TIP3    H241564   0.852   6.500   2.924  1.7926 -0.2255  1.3461
 6717TIP3   OH241565   1.390   4.780  16.334  0.0090 -0.2077  0.3183
 6717TIP3    H141566   1.363   4.689  16.324 -1.1021  0.2812 -1.6460
 6717TIP3    H241567   1.472   4.786  16.286  0.1563 -0.1885  0.5679
 6718TIP3   OH241568   0.630   6.523   2.033  0.0753 -0.2190  0.2495
 6718TIP3    H141569   0.720   6.550   2.053  0.3736 -0.5869 -0.5300
 6718TIP3    H241570   0.640   6.444   1.978 -0.6157  1.2965 -2.2348
 6719TIP3   OH241571   1.471   6.017   5.489 -0.6019  0.0196 -0.0029
 6719TIP3    H141572   1.400   6.081   5.497  0.2246  0.7452  2.4890
 6719TIP3    H241573   1.432   5.944   5.442 -2.7188  0.8008  0.4328
 6720TIP3   OH241574   1.171   2.050   2.743  0.0663  0.5861 -0.1454
 6720TIP3    H141575   1.194   1.959   2.730  2.4601  1.3074 -1.6111
 6720TIP3    H241576   1.187   2.092   2.658 -0.9779  2.3810  0.4675
 6721TIP3   OH241577   2.435   1.752  13.590  0.6697 -0.4272 -0.1445
 6721TIP3    H141578   2.363   1.712  13.637  0.2792  0.6036  0.1490
 6721TIP3    H241579   2.403   1.761  13.500  0.4205  0.0460 -0.0107
 6722TIP3   OH241580   5.379   4.150  12.243 -0.6854  0.1031 -0.4634
 6722TIP3    H141581   5.342   4.231  12.207  0.4014  1.2533  0.8585
 6722TIP3    H241582   5.422   4.108  12.168 -3.3923 -0.6173 -1.7450
 6723TIP3   OH241583   5.013   0.948   2.078  0.0968  0.0106  0.0585
 6723TIP3    H141584   4.968   0.908   2.004 -0.4797  0.0210  0.3986
 6723TIP3    H241585   4.944   0.995   2.125  0.3253 -0.5789  0.9970
 6724TIP3   OH241586   3.215   0.385  13.050  0.4862  0.1669  0.2930
 6724TIP3    H141587   3.285   0.413  13.109  1.6140 -2.1100  0.1619
 6724TIP3    H241588   3.230   0.291  13.039 -0.4714  0.2635 -2.5775
 6725TIP3   OH241589   3.415   4.378  11.237  0.4662 -1.0353 -0.5516
 6725TIP3    H141590   3.504   4.404  11.261  0.5772 -1.5779 -0.3443
 6725TIP3    H241591   3.397   4.423  11.155  0.2211  0.5776  0.3569
 6726TIP3   OH241592   0.991   0.174  14.488  0.3605  0.2710  0.0719
 6726TIP3    H141593   0.950   0.259  14.471 -1.0074 -0.3429  0.1542
 6726TIP3    H241594   1.076   0.196  14.528 -0.2553  1.5913  0.7439
 6727TIP3   OH241595   1.629   0.430  10.698  0.1775  0.2366 -0.8001
 6727TIP3    H141596   1.709   0.378  10.701 -0.8262 -1.3722  1.3221
 6727TIP3    H241597   1.629   0.478  10.782 -1.5332 -0.5995 -0.2843
 6728TIP3   OH241598   6.009   2.092  16.862 -0.0817  0.6512 -0.7408
 6728TIP3    H141599   6.022   2.178  16.901 -2.0075  1.3251 -1.4704
 6728TIP3    H241600   6.058   2.095  16.780 -1.4789  1.7033 -1.5751
 6729TIP3   OH241601   1.731   1.356   6.216  0.1652 -0.6340  0.1597
 6729TIP3    H141602   1.797   1.300   6.256 -0.0543 -0.3457  0.9530
 6729TIP3    H241603   1.776   1.440   6.201 -0.0413 -0.4066  0.7909
 6730TIP3   OH241604   1.422   0.544   5.571  0.1657 -0.0537  0.4588
 6730TIP3    H141605   1.440   0.510   5.659  0.1369 -1.3607 -0.0180
 6730TIP3    H241606   1.340   0.502   5.545  0.5994 -0.3315 -0.5128
 6731TIP3   OH241607   4.090   5.163  16.356 -0.3972  0.4777  0.4579
 6731TIP3    H141608   4.161   5.123  16.306 -1.8358 -2.9329  0.8487
 6731TIP3    H241609   4.131   5.197  16.435  0.9115 -0.5583  0.2443
 6732TIP3   OH241610   3.047   5.044  11.204  0.0254  0.3520  0.1883
 6732TIP3    H141611   2.955   5.023  11.184  0.4603 -2.1488  0.4950
 6732TIP3    H241612   3.095   5.019  11.126  0.6166  0.1549  0.6056
 6733TIP3   OH241613   6.126   4.018  12.453  0.6307 -0.1986 -0.3004
 6733TIP3    H141614   6.046   4.069  12.459  0.2403 -0.6241 -1.6523
 6733TIP3    H241615   6.196   4.084  12.455  0.6226  0.0722  4.7878
 6734TIP3   OH241616   6.785   1.748   0.252  0.0755  0.6385  0.0530
 6734TIP3    H141617   6.852   1.783   0.193  0.5762 -0.3188  0.0342
 6734TIP3    H241618   6.829   1.676   0.297 -0.1050  1.7437  2.0843
 6735TIP3   OH241619   6.712   4.185   0.721  0.2405  0.1064 -0.0741
 6735TIP3    H141620   6.690   4.277   0.705 -1.5617 -0.3464 -0.3331
 6735TIP3    H241621   6.764   4.187   0.802 -0.6661  1.2601  0.5088
 6736TIP3   OH241622   4.746   4.610  15.925 -0.0304 -0.0931 -0.0465
 6736TIP3    H141623   4.684   4.601  15.853 -0.4414 -1.9222  0.4716
 6736TIP3    H241624   4.829   4.579  15.889  0.5591  1.9677 -0.6162
 6737TIP3   OH241625   4.434   1.332   5.620  0.1865 -0.4411  0.0061
 6737TIP3    H141626   4.499   1.358   5.685  1.0580 -1.1423 -0.5609
 6737TIP3    H241627   4.360   1.300   5.672 -0.0514  1.0921  0.6746
 6738TIP3   OH241628   3.454   5.437  11.123  0.0209 -0.4297  0.1777
 6738TIP3    H141629   3.455   5.342  11.111  1.8183 -0.2855 -1.1481
 6738TIP3    H241630   3.456   5.449  11.218 -0.0921 -1.7101  0.3571
 6739TIP3   OH241631   4.117   5.843  12.750 -0.2796 -0.9488  0.0650
 6739TIP3    H141632   4.136   5.935  12.733 -1.5570 -0.3768  1.5141
 6739TIP3    H241633   4.200   5.798  12.734  0.4339  0.4689 -0.4284
 6740TIP3   OH241634   6.726   2.186  12.533  0.2725 -0.1788  0.4837
 6740TIP3    H141635   6.742   2.097  12.563  0.0149  0.1396  1.6319
 6740TIP3    H241636   6.667   2.223  12.599 -0.5752  0.4700 -0.5966
 6741TIP3   OH241637   2.849   0.041   5.854  0.2540 -0.1332 -0.1383
 6741TIP3    H141638   2.830  -0.010   5.933  0.3024  0.3164  0.1617
 6741TIP3    H241639   2.909   0.109   5.882  1.7403 -1.0550 -0.9221
 6742TIP3   OH241640   5.332   4.654   5.045  0.1582 -0.1592  0.8223
 6742TIP3    H141641   5.366   4.711   4.976  0.2989  0.9273  1.7599
 6742TIP3    H241642   5.404   4.594   5.064 -0.0321 -0.7638 -0.2612
 6743TIP3   OH241643   1.563   1.816  11.731  0.3182  0.4992  0.0940
 6743TIP3    H141644   1.554   1.910  11.747  1.0074  0.6015 -0.0653
 6743TIP3    H241645   1.484   1.777  11.767 -0.2883  1.2132 -0.4458
 6744TIP3   OH241646   4.186   0.520  17.084 -0.4950 -0.2321  0.1970
 6744TIP3    H141647   4.273   0.557  17.073 -0.8413  0.5290 -0.0405
 6744TIP3    H241648   4.180   0.453  17.016 -0.4450  0.3816 -0.4236
 6745TIP3   OH241649   3.633   6.134  17.049 -0.6340 -0.2936  0.6533
 6745TIP3    H141650   3.579   6.069  17.093 -1.0176  0.2974  1.0642
 6745TIP3    H241651   3.612   6.122  16.956 -2.9025  1.1351  0.9070
 6746TIP3   OH241652   1.793   1.953  14.836 -0.3527 -0.3590 -0.0701
 6746TIP3    H141653   1.796   1.860  14.859 -2.6128 -0.3231  0.6528
 6746TIP3    H241654   1.858   1.993  14.893 -2.5927 -0.9400  3.2367
 6747TIP3   OH241655   3.056   0.414  17.063  0.4406  0.1582  0.0561
 6747TIP3    H141656   3.086   0.498  17.097 -0.8654 -0.1228  2.1094
 6747TIP3    H241657   2.964   0.410  17.090  0.3913 -1.7696 -0.3011
 6748TIP3   OH241658   0.129   6.728  13.243 -0.2492 -0.6739 -0.5948
 6748TIP3    H141659   0.055   6.786  13.224  1.3810  1.6113 -0.4118
 6748TIP3    H241660   0.203   6.769  13.199  1.6024 -0.8714  2.0906
 6749TIP3   OH241661   1.502   5.834   0.594  0.3581 -0.3901  0.3731
 6749TIP3    H141662   1.496   5.754   0.543  0.2044 -0.5708  0.6738
 6749TIP3    H241663   1.413   5.871   0.591  0.9003  0.9605 -1.6651
 6750TIP3   OH241664   4.039   4.537   2.015  0.7756  0.1678  0.1342
 6750TIP3    H141665   4.025   4.444   2.000 -0.9546  0.7010 -2.2513
 6750TIP3    H241666   4.068   4.571   1.930  1.1010  1.8614  0.8649
 6751TIP3   OH241667   5.710   5.156  14.677  0.0942  0.4289 -0.2352
 6751TIP3    H141668   5.668   5.159  14.764  0.3770  0.7865 -0.1110
 6751TIP3    H241669   5.794   5.198  14.690  0.6555 -0.6022 -0.4050
 6752TIP3   OH241670   2.938   1.277   3.016 -0.4824 -0.7787  0.0966
 6752TIP3    H141671   2.972   1.217   2.949 -0.5728  1.2883 -1.9550
 6752TIP3    H241672   3.015   1.314   3.057 -0.4129 -1.4207  0.5589
 6753TIP3   OH241673   1.253   5.215  11.475  0.1455  0.5391 -0.2573
 6753TIP3    H141674   1.251   5.232  11.381 -1.1200 -2.4768 -0.8940
 6753TIP3    H241675   1.186   5.149  11.489  0.9728  0.1566  2.6302
 6754TIP3   OH241676   6.243   1.548  12.228  0.7461 -0.0555 -0.2604
 6754TIP3    H141677   6.237   1.608  12.153 -0.6540  1.2068  0.8068
 6754TIP3    H241678   6.153   1.521  12.244  0.7843  0.8902  1.8733
 6755TIP3   OH241679   0.760   5.397   2.503 -0.2408 -0.3503  0.3723
 6755TIP3    H141680   0.839   5.357   2.540 -1.4577 -1.4515  1.9071
 6755TIP3    H241681   0.714   5.324   2.461 -0.6287  0.2027 -0.1767
 6756TIP3   OH241682   4.328   3.189   5.285  0.4212 -0.1448 -0.5209
 6756TIP3    H141683   4.393   3.186   5.355 -1.0051 -0.5166  0.8389
 6756TIP3    H241684   4.293   3.278   5.289 -0.5877 -0.5561  0.1423
 6757TIP3   OH241685   4.080   3.962  15.869 -0.2183  0.1288  0.1219
 6757TIP3    H141686   4.143   4.033  15.855 -0.5927  0.5434  0.5316
 6757TIP3    H241687   3.994   4.004  15.863 -0.4914 -0.5440 -1.0823
 6758TIP3   OH241688   1.362   0.590   1.754  0.1624  0.4295 -0.3033
 6758TIP3    H141689   1.324   0.522   1.809 -1.9750 -0.9047 -3.1924
 6758TIP3    H241690   1.447   0.608   1.793 -0.5283 -1.5555  2.4043
 6759TIP3   OH241691   6.601   4.845   1.053 -0.0896  0.1769 -0.1859
 6759TIP3    H141692   6.626   4.758   1.021  1.1334  0.5653 -0.3231
 6759TIP3    H241693   6.683   4.885   1.079 -0.5284  1.6256 -0.9395
 6760TIP3   OH241694   2.979   2.925  14.589  0.0055  0.6325  0.0592
 6760TIP3    H141695   3.042   2.888  14.650  0.2664  1.9624  0.6403
 6760TIP3    H241696   3.025   2.925  14.505  0.3394  0.4844  0.2396
 6761TIP3   OH241697   3.768   5.718  16.100  0.1083 -0.3810 -0.3688
 6761TIP3    H141698   3.700   5.706  16.167  2.8996 -1.0954  2.5506
 6761TIP3    H241699   3.822   5.639  16.105  2.3886  1.0344 -1.0197
 6762TIP3   OH241700   3.484   2.318   2.746  0.1731  0.4699 -0.1733
 6762TIP3    H141701   3.504   2.380   2.676  1.1409  0.5668  0.1876
 6762TIP3    H241702   3.533   2.239   2.723  3.4597  1.6382  2.1934
 6763TIP3   OH241703   0.617   0.760  12.419 -0.1362  0.1131  0.1884
 6763TIP3    H141704   0.674   0.789  12.490  1.9506 -0.7113 -1.0781
 6763TIP3    H241705   0.617   0.832  12.356  3.9370 -1.7325 -2.2999
 6764TIP3   OH241706   0.790   4.086  14.041 -0.0804 -0.2467  0.3551
 6764TIP3    H141707   0.724   4.136  13.992  0.1057  0.6924  1.0436
 6764TIP3    H241708   0.867   4.143  14.042  0.5527 -1.0729  0.0984
 6765TIP3   OH241709   4.220   0.559  14.229 -0.1587  0.1537  0.3351
 6765TIP3    H141710   4.254   0.470  14.220 -0.0932  0.1062  0.9994
 6765TIP3    H241711   4.140   0.561  14.175 -1.1820 -0.8545  1.7618
 6766TIP3   OH241712   2.414   2.084  11.501  0.2010  0.5679  0.2741
 6766TIP3    H141713   2.388   2.121  11.417 -0.8626  1.2778  0.8971
 6766TIP3    H241714   2.501   2.121  11.517  0.8281 -0.3233 -0.9392
 6767TIP3   OH241715   1.214   0.960  11.084  0.1804 -0.2544  0.1853
 6767TIP3    H141716   1.168   1.044  11.091 -1.9890 -1.4430  1.3571
 6767TIP3    H241717   1.259   0.964  10.999 -0.5670  1.7458 -0.1695
 6768TIP3   OH241718   4.430   5.824   0.343 -0.2068  0.8306  0.0301
 6768TIP3    H141719   4.435   5.840   0.437 -0.9602  2.5482 -0.1719
 6768TIP3    H241720   4.340   5.845   0.320  0.0344  0.6913 -1.1116
 6769TIP3   OH241721   3.690   4.857  11.817 -0.5992 -0.2832 -0.2202
 6769TIP3    H141722   3.607   4.892  11.784 -1.6525 -1.0696  1.4749
 6769TIP3    H241723   3.755   4.886  11.753 -2.3079 -0.5272 -2.1647
 6770TIP3   OH241724   6.148   1.476   3.113  0.1551  0.3587 -0.1383
 6770TIP3    H141725   6.083   1.441   3.174  1.0040 -0.9721  0.0442
 6770TIP3    H241726   6.224   1.497   3.167  1.4094 -2.0690 -0.8203
 6771TIP3   OH241727   4.570   3.401  17.201  0.7258  0.2506 -0.1225
 6771TIP3    H141728   4.491   3.377  17.152  0.9910  0.9426 -0.9202
 6771TIP3    H241729   4.577   3.496  17.189  0.4585  0.5416  1.7935
 6772TIP3   OH241730   6.392   2.303   5.802  0.3355 -0.5950  0.1232
 6772TIP3    H141731   6.483   2.333   5.804  0.7102 -1.4978 -1.5294
 6772TIP3    H241732   6.391   2.233   5.737 -1.3811 -1.2111  0.7436
 6773TIP3   OH241733   5.398   5.859  11.842 -0.5929  0.9020  0.0008
 6773TIP3    H141734   5.464   5.914  11.798  0.3555 -0.4683 -0.3371
 6773TIP3    H241735   5.448   5.810  11.907 -0.7528 -1.9225 -1.8261
 6774TIP3   OH241736   2.359   0.005  13.741 -0.0429  0.3459 -0.6795
 6774TIP3    H141737   2.387   0.044  13.658  0.7930  0.5318 -0.3152
 6774TIP3    H241738   2.345   0.079  13.799 -2.0813  0.3299 -1.0530
 6775TIP3   OH241739   5.428   6.015   5.245  0.4422 -0.2273  0.1420
 6775TIP3    H141740   5.511   6.055   5.221 -0.1308  0.7808 -0.2101
 6775TIP3    H241741   5.369   6.036   5.173 -0.2742 -0.4311  0.6527
 6776TIP3   OH241742   2.184   4.297   5.322 -0.7286 -0.4388 -0.2344
 6776TIP3    H141743   2.096   4.291   5.360 -0.1253  1.2976  1.6912
 6776TIP3    H241744   2.218   4.379   5.358  1.4428 -0.7599 -1.4545
 6777TIP3   OH241745   3.880   0.137   5.279 -0.6845  0.1711 -0.2643
 6777TIP3    H141746   3.867   0.042   5.276 -0.6010  0.1545 -0.0838
 6777TIP3    H241747   3.949   0.150   5.344 -0.7405  0.3614 -0.2427
 6778TIP3   OH241748   3.028   3.332   2.767  0.3638  0.1068 -0.5964
 6778TIP3    H141749   3.095   3.332   2.836 -1.0283 -2.2361  0.9266
 6778TIP3    H241750   3.065   3.277   2.698  0.4790 -0.2432 -0.2624
 6779TIP3   OH241751   4.656   4.490  17.180 -0.1563  0.3866 -0.1068
 6779TIP3    H141752   4.620   4.435  17.111  1.8732 -1.7979  0.4324
 6779TIP3    H241753   4.721   4.544  17.136  1.8662 -1.7105  0.0962
 6780TIP3   OH241754   1.006   1.020  10.821  0.0816  0.6123  0.0892
 6780TIP3    H141755   1.090   0.975  10.827 -0.1198  0.2104 -0.0936
 6780TIP3    H241756   0.941   0.950  10.817 -0.1793  0.8953 -1.0740
 6781TIP3   OH241757   2.919   6.353  10.553 -0.4498  0.3341 -0.0163
 6781TIP3    H141758   2.888   6.283  10.496  0.1975  0.1486 -0.1560
 6781TIP3    H241759   3.008   6.326  10.578 -1.1719 -0.2372  2.1489
 6782TIP3   OH241760   6.514   3.570  11.171 -0.0167 -0.1415  0.1870
 6782TIP3    H141761   6.591   3.625  11.184 -0.0327 -0.1347  0.2502
 6782TIP3    H241762   6.499   3.573  11.076 -1.5836  2.0695  0.4514
 6783TIP3   OH241763   3.435   3.519  14.146 -0.4926  0.0336 -0.6251
 6783TIP3    H141764   3.455   3.613  14.143 -1.5592  0.4024  1.7573
 6783TIP3    H241765   3.341   3.514  14.131 -1.1014 -0.2416  2.6037
 6784TIP3   OH241766   0.574   4.019  16.766  0.1418  0.5180  0.0694
 6784TIP3    H141767   0.668   4.012  16.749  0.1812  0.9057  0.1214
 6784TIP3    H241768   0.533   3.984  16.687  0.3234  2.0876 -0.7530
 6785TIP3   OH241769   3.892   1.941  10.996 -0.2365  0.2325 -0.3689
 6785TIP3    H141770   3.854   1.895  10.921  0.9326  1.7844 -2.0177
 6785TIP3    H241771   3.974   1.895  11.015 -0.5533 -0.1860 -0.0091
 6786TIP3   OH241772   6.409   2.198  11.368 -0.6389 -0.0913 -0.1370
 6786TIP3    H141773   6.490   2.239  11.340  1.0437 -3.3012 -0.5089
 6786TIP3    H241774   6.386   2.241  11.450  1.3032  1.0456 -0.1467
 6787TIP3   OH241775   1.352   4.611   4.488  0.5050 -0.0184 -0.2576
 6787TIP3    H141776   1.315   4.669   4.555 -0.4271 -1.3566  0.4388
 6787TIP3    H241777   1.436   4.585   4.525  0.1377 -0.4948  0.2750
 6788TIP3   OH241778   3.145   2.250   2.648 -0.9545 -0.3400  0.1787
 6788TIP3    H141779   3.194   2.207   2.718 -0.1276  0.5770  0.1892
 6788TIP3    H241780   3.053   2.235   2.670 -0.6955 -1.8120  0.3347
 6789TIP3   OH241781   4.468   6.230  11.899  0.4355 -0.2165 -0.6698
 6789TIP3    H141782   4.545   6.255  11.950  1.0166 -0.3834 -1.4375
 6789TIP3    H241783   4.428   6.158  11.949  0.7541 -0.1018 -0.2438
 6790TIP3   OH241784   6.413   6.080   4.153 -0.4325  0.7701  0.3880
 6790TIP3    H141785   6.365   6.090   4.071 -0.8313 -2.5513  0.0665
 6790TIP3    H241786   6.490   6.029   4.129 -0.0802  0.5320  1.9269
 6791TIP3   OH241787   6.722   2.709   3.504  0.6971 -0.1553 -0.6491
 6791TIP3    H141788   6.702   2.688   3.413  1.3709 -1.5878 -0.4835
 6791TIP3    H241789   6.719   2.625   3.550 -0.8177  0.6826  0.9114
 6792TIP3   OH241790   0.511   5.147  12.688 -0.0306  0.2758 -0.0472
 6792TIP3    H141791   0.527   5.212  12.619 -0.1072 -0.0899 -0.4115
 6792TIP3    H241792   0.574   5.078  12.671 -1.6828 -1.0054 -1.2698
 6793TIP3   OH241793   2.055   4.529   3.327  0.0732  0.3888  0.0516
 6793TIP3    H141794   2.074   4.501   3.237 -2.0258 -0.3015 -0.2352
 6793TIP3    H241795   2.094   4.462   3.382  0.9549  0.5591 -0.3423
 6794TIP3   OH241796   3.800   4.714  10.575  0.3072  0.1475  0.0860
 6794TIP3    H141797   3.890   4.741  10.558  0.3062 -0.0965 -0.3099
 6794TIP3    H241798   3.797   4.622  10.547 -0.7739  0.8917 -2.5177
 6795TIP3   OH241799   5.614   5.278  16.916 -0.2630 -0.1611  0.2977
 6795TIP3    H141800   5.518   5.278  16.912 -0.3848  2.4636  1.3756
 6795TIP3    H241801   5.639   5.367  16.893  1.9738 -0.8658 -0.2056
 6796TIP3   OH241802   5.904   4.421  13.238  0.7409 -0.2159 -0.1994
 6796TIP3    H141803   5.936   4.402  13.326 -0.2227  0.6502  0.3626
 6796TIP3    H241804   5.967   4.379  13.180  1.5483 -0.5661  0.8991
 6797TIP3   OH241805   1.888   3.042  13.568  0.2671 -0.1101  0.0602
 6797TIP3    H141806   1.793   3.036  13.563  0.3074 -0.0818 -0.8791
 6797TIP3    H241807   1.908   3.025  13.660 -0.7400  1.3137  0.5917
 6798TIP3   OH241808   2.346   5.093  16.056  0.6532  0.4524  0.3893
 6798TIP3    H141809   2.372   5.001  16.059  0.6241  0.3868 -0.9632
 6798TIP3    H241810   2.404   5.136  16.120 -1.3084 -0.9168  3.3117
 6799TIP3   OH241811   4.527   6.750  11.458 -0.1675  0.9240  0.1322
 6799TIP3    H141812   4.463   6.711  11.517 -1.5161  1.4393 -0.9456
 6799TIP3    H241813   4.523   6.844  11.475 -0.0271  1.0055 -0.2607
 6800TIP3   OH241814   4.002   4.206   4.203 -0.1560  0.3268 -0.4741
 6800TIP3    H141815   3.972   4.259   4.129 -0.8505 -0.5813 -0.8587
 6800TIP3    H241816   3.929   4.147   4.222 -0.0080  0.5949  0.9948
 6801TIP3   OH241817   1.830   5.767  13.606 -0.5236  0.1171 -0.2301
 6801TIP3    H141818   1.919   5.801  13.607 -0.7893  1.0815 -2.5294
 6801TIP3    H241819   1.777   5.840  13.575 -2.3611 -0.0338  2.2880
 6802TIP3   OH241820   5.128   0.447  16.879 -0.7306  0.0676 -0.8720
 6802TIP3    H141821   5.128   0.479  16.789  2.2031 -0.3194 -1.0892
 6802TIP3    H241822   5.128   0.526  16.933  0.7608  0.3735 -1.2991
 6803TIP3   OH241823   5.220   6.518  15.106  0.2714 -0.0206 -0.1700
 6803TIP3    H141824   5.246   6.561  15.024 -0.0359 -1.6019 -1.1509
 6803TIP3    H241825   5.125   6.524  15.106  0.2651 -0.1286  0.0178
 6804TIP3   OH241826   2.320   4.888   3.193 -0.2001 -0.1405 -0.3343
 6804TIP3    H141827   2.296   4.977   3.217  0.1488 -0.1409  0.0251
 6804TIP3    H241828   2.297   4.835   3.270  3.8569  0.3045  1.4108
 6805TIP3   OH241829   2.734   5.837  12.595  0.5320  0.3509 -0.2623
 6805TIP3    H141830   2.749   5.925  12.631 -0.3465  0.3123  0.2207
 6805TIP3    H241831   2.640   5.823  12.606  0.6295 -0.5549 -0.5654
 6806TIP3   OH241832   3.553   4.443  15.301  0.2213 -0.1434  0.6003
 6806TIP3    H141833   3.551   4.419  15.393 -0.1802  0.3576  0.7263
 6806TIP3    H241834   3.645   4.433  15.275  0.5595  0.8182  1.3536
 6807TIP3   OH241835   2.858   3.728   1.297  0.1226 -0.1784  0.1441
 6807TIP3    H141836   2.873   3.689   1.383 -0.6504 -1.0066 -0.0807
 6807TIP3    H241837   2.769   3.763   1.302  0.3259  0.3890 -0.0991
 6808TIP3   OH241838   6.694   0.658  16.449 -0.4124 -0.6258  0.7234
 6808TIP3    H141839   6.752   0.712  16.503 -1.0624 -0.1091  0.9092
 6808TIP3    H241840   6.622   0.635  16.508 -0.6354 -0.8720  0.3545
 6809TIP3   OH241841   5.323   2.428   1.516  0.5622 -0.4253 -0.1651
 6809TIP3    H141842   5.286   2.373   1.448  1.3922 -1.4895  0.2129
 6809TIP3    H241843   5.247   2.461   1.564  0.0522 -2.2069  0.3242
 6810TIP3   OH241844   3.256   3.065  11.766 -0.1497 -0.0722  0.3176
 6810TIP3    H141845   3.229   3.145  11.719  2.4708  1.2651  0.8843
 6810TIP3    H241846   3.205   2.995  11.724 -1.2958  1.6442 -1.3834
 6811TIP3   OH241847   3.207   1.305   6.354  0.1061 -0.0509 -0.1177
 6811TIP3    H141848   3.223   1.214   6.378  1.1798  0.9511  3.8232
 6811TIP3    H241849   3.284   1.352   6.388 -1.1779  2.4962 -0.5064
 6812TIP3   OH241850   4.157   2.081   3.557  0.3549  0.0419  0.1252
 6812TIP3    H141851   4.170   2.119   3.470 -1.4509  2.2586  0.7291
 6812TIP3    H241852   4.232   2.112   3.608  0.3221  0.5186 -0.1106
 6813TIP3   OH241853   4.033   6.419  14.193  0.5939 -0.2375 -0.6436
 6813TIP3    H141854   3.963   6.400  14.130  0.5659 -2.8451  0.0431
 6813TIP3    H241855   3.989   6.416  14.278  0.6840  2.9753 -0.3739
 6814TIP3   OH241856   5.163   0.993   0.176 -0.1814 -0.0412  0.2238
 6814TIP3    H141857   5.171   0.955   0.089  0.9851 -2.1968  1.2031
 6814TIP3    H241858   5.137   0.920   0.232 -1.5459  1.4281  1.6187
 6815TIP3   OH241859   5.941   4.170   1.334  0.4531  0.6539 -0.2608
 6815TIP3    H141860   5.937   4.251   1.282  0.9803  0.3791 -0.7438
 6815TIP3    H241861   5.864   4.121   1.305  0.7678  0.4825 -0.8320
 6816TIP3   OH241862   3.581   1.115   3.921  0.3797  0.2738 -0.9289
 6816TIP3    H141863   3.522   1.041   3.937 -0.3914  1.2545  1.0767
 6816TIP3    H241864   3.668   1.080   3.936 -0.0443 -0.0200  1.0301
 6817TIP3   OH241865   4.985   2.787  14.209  0.4837 -0.4974 -0.2669
 6817TIP3    H141866   4.894   2.770  14.183  0.6898 -4.0957  0.7229
 6817TIP3    H241867   5.030   2.805  14.127 -0.9235  0.2439 -0.9129
 6818TIP3   OH241868   3.458   1.693   0.519 -0.2263  0.0518  0.7444
 6818TIP3    H141869   3.409   1.772   0.542  0.9564  1.3142 -0.8858
 6818TIP3    H241870   3.401   1.621   0.546 -1.4415  1.4394  2.0624
 6819TIP3   OH241871   0.558   6.122  11.227 -0.0006  0.3295  0.6765
 6819TIP3    H141872   0.596   6.122  11.315 -0.6535 -1.2291  1.0017
 6819TIP3    H241873   0.471   6.082  11.239 -1.2788  2.6158 -0.2303
 6820TIP3   OH241874   3.898   6.284  10.736  0.4247  0.0534 -0.0416
 6820TIP3    H141875   3.807   6.307  10.751  0.3403  1.4836 -2.1767
 6820TIP3    H241876   3.920   6.328  10.653  2.2376 -2.5063 -1.0360
 6821TIP3   OH241877   2.365   2.162   0.239 -0.8093 -0.0372  0.4495
 6821TIP3    H141878   2.322   2.233   0.286 -2.0631  0.0820 -0.8164
 6821TIP3    H241879   2.451   2.154   0.281 -1.1132  1.3879  1.4156
 6822TIP3   OH241880   2.017   6.709  11.947  0.0845  0.3927 -0.1800
 6822TIP3    H141881   1.926   6.686  11.961 -0.0203 -0.2640 -1.7819
 6822TIP3    H241882   2.039   6.672  11.862  2.6018 -1.7143  1.2448
 6823TIP3   OH241883   1.211   6.574   4.703  0.5935  0.1495 -0.9281
 6823TIP3    H141884   1.232   6.612   4.618  1.5128 -0.5004 -1.0101
 6823TIP3    H241885   1.254   6.631   4.766 -0.7195  1.0681 -0.8305
 6824TIP3   OH241886   5.292   5.063  13.860  1.1179  0.1530 -0.3641
 6824TIP3    H141887   5.258   5.089  13.774  0.2512 -0.3788 -0.1932
 6824TIP3    H241888   5.316   4.971  13.849  0.4852 -0.0734  0.1099
 6825TIP3   OH241889   5.699   4.890  17.110  0.0409  0.1118  0.2154
 6825TIP3    H141890   5.743   4.853  17.187  1.3651  0.6962 -0.2422
 6825TIP3    H241891   5.630   4.945  17.147  0.7458  0.4948  1.0076
 6826TIP3   OH241892   4.792   1.639   5.365 -0.4609 -0.2357 -0.8521
 6826TIP3    H141893   4.862   1.700   5.389 -0.5431 -0.4684 -0.0054
 6826TIP3    H241894   4.808   1.621   5.272  0.7158 -0.4045 -0.6444
 6827TIP3   OH241895   4.243   1.380  14.113  0.3450 -0.3164  0.5846
 6827TIP3    H141896   4.215   1.396  14.023  0.7073 -1.4002  0.2635
 6827TIP3    H241897   4.201   1.297  14.137 -0.8885  0.6637  1.9186
 6828TIP3   OH241898   4.853   4.815   5.062  0.2606 -0.1738 -0.5743
 6828TIP3    H141899   4.900   4.743   5.105  1.8853  0.6379 -0.8839
 6828TIP3    H241900   4.815   4.866   5.134  0.1645 -0.6538 -0.2853
 6829TIP3   OH241901   5.890   0.224   0.897 -0.1522 -0.4773  0.0568
 6829TIP3    H141902   5.836   0.280   0.952 -0.0942  0.2821 -0.6453
 6829TIP3    H241903   5.856   0.237   0.808  0.8630 -0.3582 -0.3286
 6830TIP3   OH241904   1.319   2.851   2.131  0.3928  0.0442  0.3427
 6830TIP3    H141905   1.359   2.911   2.193 -0.1100 -1.3674  2.1104
 6830TIP3    H241906   1.228   2.881   2.123  1.2539  2.3320 -2.5101
 6831TIP3   OH241907   5.938   1.829   1.411 -0.0889 -0.3587 -0.2676
 6831TIP3    H141908   6.015   1.833   1.353  0.0866  0.1610 -0.0035
 6831TIP3    H241909   5.875   1.888   1.372  0.1010  0.1411  0.1665
 6832TIP3   OH241910   5.908   0.828   4.701  0.7039  0.2507  0.1824
 6832TIP3    H141911   5.923   0.834   4.795  2.5657 -2.5994  0.1960
 6832TIP3    H241912   5.825   0.780   4.693  0.3913  0.7555  0.3373
 6833TIP3   OH241913   4.974   3.837  16.727 -0.3195 -0.6235 -0.4003
 6833TIP3    H141914   5.033   3.905  16.695 -0.9917  0.5262  0.6559
 6833TIP3    H241915   4.890   3.857  16.685 -0.1128 -1.9322 -1.4927
 6834TIP3   OH241916   6.104   0.399  15.814 -0.2408  0.6373 -0.0323
 6834TIP3    H141917   6.132   0.328  15.757 -0.2134  0.9265 -0.3849
 6834TIP3    H241918   6.101   0.360  15.901  1.6973  0.7105  0.1096
 6835TIP3   OH241919   5.461   5.142   3.261 -0.1446 -0.0039  0.3507
 6835TIP3    H141920   5.462   5.168   3.353  0.3708  2.7962 -0.3654
 6835TIP3    H241921   5.553   5.129   3.239 -0.1339  0.8944 -0.1540
 6836TIP3   OH241922   1.872   4.822  12.921  0.2845  0.5090 -0.3851
 6836TIP3    H141923   1.949   4.850  12.871  0.0920 -0.3617 -1.1949
 6836TIP3    H241924   1.798   4.863  12.876  0.2838  1.9139  0.7969
 6837TIP3   OH241925   6.635   1.592   0.830  0.8283 -0.5703 -0.4322
 6837TIP3    H141926   6.684   1.589   0.747 -0.8421 -0.5189 -1.4628
 6837TIP3    H241927   6.603   1.682   0.834  0.6687 -0.6537  0.1488
 6838TIP3   OH241928   1.532   1.602   4.581 -0.4726  0.1117  0.0250
 6838TIP3    H141929   1.511   1.645   4.498 -0.6531 -0.2791 -0.1333
 6838TIP3    H241930   1.472   1.527   4.585 -0.0891 -0.1844  0.2499
 6839TIP3   OH241931   1.097   2.649  15.106 -0.5833 -0.3224  0.6797
 6839TIP3    H141932   1.171   2.702  15.135 -0.0406  0.2512 -1.5513
 6839TIP3    H241933   1.128   2.558  15.113  0.1861 -0.1090  0.2256
 6840TIP3   OH241934   1.858   6.746  15.931 -0.0247  0.1296  0.1566
 6840TIP3    H141935   1.814   6.829  15.945  1.6147  0.8934  1.1001
 6840TIP3    H241936   1.952   6.766  15.940  0.4425 -1.7297  0.0169
 6841TIP3   OH241937   0.102   0.676   3.624  0.1183  0.0511 -0.1958
 6841TIP3    H141938   0.099   0.581   3.641  0.9737 -0.1539 -1.1100
 6841TIP3    H241939   0.037   0.690   3.555  0.6168 -0.0194 -0.6856
 6842TIP3   OH241940   3.834   6.600  15.785 -0.5130 -0.4952 -0.3238
 6842TIP3    H141941   3.893   6.551  15.842  1.1695 -0.0024 -1.5388
 6842TIP3    H241942   3.806   6.674  15.838 -0.9195 -1.3110  0.6356
 6843TIP3   OH241943   4.929   4.173  15.870  0.0950 -0.3465  0.3309
 6843TIP3    H141944   4.838   4.175  15.899 -0.1609 -1.7808 -0.3064
 6843TIP3    H241945   4.927   4.203  15.779 -0.1772 -2.9692 -0.6101
 6844TIP3   OH241946   5.568   2.778  15.033  0.3168  0.1006 -0.4608
 6844TIP3    H141947   5.478   2.780  15.000  0.7566 -0.9060 -1.8365
 6844TIP3    H241948   5.559   2.757  15.126 -0.8606 -0.2910 -0.6437
 6845TIP3   OH241949   6.417   2.875   1.422  0.3837 -0.0380  0.0286
 6845TIP3    H141950   6.417   2.788   1.461  2.5916 -0.6527 -1.1694
 6845TIP3    H241951   6.482   2.924   1.471  1.7511 -0.2183 -1.5013
 6846TIP3   OH241952   3.432   1.792  12.651  0.4775 -0.7377  0.2201
 6846TIP3    H141953   3.360   1.735  12.676  0.9317 -0.5459  2.1457
 6846TIP3    H241954   3.490   1.737  12.599 -0.4627 -1.2126 -0.3475
 6847TIP3   OH241955   5.216   3.519  13.932  0.1590  0.9215 -0.0135
 6847TIP3    H141956   5.250   3.497  14.019  0.9393  1.3456 -0.1982
 6847TIP3    H241957   5.292   3.554  13.885 -0.0135 -0.1513 -1.1691
 6848TIP3   OH241958   1.098   0.269   0.578  0.1390 -0.3374  0.3530
 6848TIP3    H141959   1.062   0.326   0.510  1.7972 -0.5301 -0.7256
 6848TIP3    H241960   1.021   0.242   0.629 -0.8289  1.9903  0.2742
 6849TIP3   OH241961   4.857   0.046   3.112 -0.1631 -0.4192 -0.4533
 6849TIP3    H141962   4.820   0.007   3.033  1.4276  0.1497 -1.5315
 6849TIP3    H241963   4.807   0.127   3.125  0.9058  0.5780 -2.1453
 6850TIP3   OH241964   3.689   4.179  13.543  0.2347 -0.4192 -0.5049
 6850TIP3    H141965   3.667   4.097  13.588  0.1870 -0.6834 -1.0002
 6850TIP3    H241966   3.628   4.243  13.579 -0.0198 -0.7001 -0.4263
 6851TIP3   OH241967   1.112   5.434   1.384 -0.1554 -0.5359 -0.8265
 6851TIP3    H141968   1.173   5.447   1.457 -0.5768  0.1853 -0.5997
 6851TIP3    H241969   1.155   5.473   1.308 -1.1647  1.8606 -0.2694
 6852TIP3   OH241970   3.058   6.324   4.448 -0.4680 -0.7620 -0.3673
 6852TIP3    H141971   2.970   6.291   4.461 -0.6500  0.1095  0.8673
 6852TIP3    H241972   3.082   6.361   4.534 -0.0784  1.6756 -1.4397
 6853TIP3   OH241973   4.723   5.939   5.125  0.0013 -0.0977  0.7046
 6853TIP3    H141974   4.650   5.988   5.086 -0.3991 -0.5651  0.8503
 6853TIP3    H241975   4.759   5.887   5.053 -0.4914 -0.6680  0.8618
 6854TIP3   OH241976   4.904   1.806  16.073  0.2057 -0.0418  0.2568
 6854TIP3    H141977   4.850   1.827  15.997  0.5652 -0.0958 -0.0193
 6854TIP3    H241978   4.955   1.729  16.046 -0.5199 -0.7889  0.9768
 6855TIP3   OH241979   6.664   3.343   2.248 -0.3679 -0.4261 -0.4105
 6855TIP3    H141980   6.575   3.379   2.259 -0.3829 -0.6307  0.1708
 6855TIP3    H241981   6.658   3.288   2.170 -0.9706 -1.1001  0.0958
 6856TIP3   OH241982   3.444   1.830  17.170  0.5033  0.5149  0.3366
 6856TIP3    H141983   3.472   1.916  17.202  2.9824  0.2208 -0.7957
 6856TIP3    H241984   3.469   1.770  17.241  3.1506  0.2438 -0.6956
 6857TIP3   OH241985   4.519   6.578   0.746 -0.2371 -0.1176 -0.0629
 6857TIP3    H141986   4.565   6.542   0.670  1.0345  0.9017  0.1819
 6857TIP3    H241987   4.427   6.557   0.731  0.1055 -0.7488 -1.4207
 6858TIP3   OH241988   3.941   5.637   6.346  0.4366 -0.2743  0.1358
 6858TIP3    H141989   3.953   5.702   6.415  1.3453  0.5575 -0.7725
 6858TIP3    H241990   3.848   5.640   6.326  0.4498  0.7044  0.1688
 6859TIP3   OH241991   5.722   2.841  13.271  0.5239  0.6484  0.1191
 6859TIP3    H141992   5.779   2.856  13.346  0.0763 -0.2589  0.6601
 6859TIP3    H241993   5.760   2.765  13.227 -0.4882 -0.2393  0.7300
 6860TIP3   OH241994   2.511   3.500   4.073 -0.3901  0.1551 -0.2869
 6860TIP3    H141995   2.589   3.505   4.018  1.4133 -1.4393  1.8856
 6860TIP3    H241996   2.471   3.416   4.051  0.2134 -0.3861  0.6114
 6861TIP3   OH241997   2.852   2.678  12.257  0.2461  0.0035  0.0191
 6861TIP3    H141998   2.871   2.769  12.236  0.2329  0.1558  0.6580
 6861TIP3    H241999   2.934   2.643  12.290  0.3011 -0.2738 -0.3946
 6862TIP3   OH242000   2.692   2.329   5.421  0.6726  0.1928 -0.2812
 6862TIP3    H142001   2.752   2.325   5.495  1.5346 -0.3404 -0.9897
 6862TIP3    H242002   2.743   2.296   5.347 -0.6816 -0.8814 -0.7784
 6863TIP3   OH242003   4.621   4.809   3.981  0.1885  0.5112  0.1948
 6863TIP3    H142004   4.642   4.851   4.064  0.8526  1.6086 -0.5135
 6863TIP3    H242005   4.599   4.719   4.005  4.3163 -0.4434  1.2383
 6864TIP3   OH242006   3.150   4.883   3.255 -0.1791  0.0242  0.0634
 6864TIP3    H142007   3.198   4.894   3.338  1.9559 -1.2823 -0.9220
 6864TIP3    H242008   3.203   4.930   3.191 -1.3303  0.2488 -0.7424
 6865TIP3   OH242009   0.293   5.099   4.973  0.3522  0.1239 -0.0319
 6865TIP3    H142010   0.272   5.007   4.989  0.4403  0.2471  0.8742
 6865TIP3    H242011   0.250   5.120   4.890  0.7923 -0.8805 -0.5301
 6866TIP3   OH242012   5.718   2.668  17.067 -0.4454 -0.0308  0.5128
 6866TIP3    H142013   5.669   2.590  17.091 -0.9126  0.1261  0.0840
 6866TIP3    H242014   5.659   2.718  17.011  0.4488 -0.2020 -0.6317
 6867TIP3   OH242015   2.236   5.623  17.139 -0.3911 -0.1975  0.1406
 6867TIP3    H142016   2.323   5.620  17.099  0.4707  2.2050  1.5758
 6867TIP3    H242017   2.175   5.620  17.066  1.0316  1.0716 -1.1612
 6868TIP3   OH242018   0.465   2.111  16.012  0.0934  0.2924 -0.6352
 6868TIP3    H142019   0.524   2.082  15.942  0.3686  0.2905 -0.4047
 6868TIP3    H242020   0.386   2.058  16.000  0.9786 -1.3473  0.4189
 6869TIP3   OH242021   0.309   5.769   1.981  0.0773  0.6552  0.4406
 6869TIP3    H142022   0.318   5.803   2.070  1.3254  1.3644  0.0750
 6869TIP3    H242023   0.233   5.712   1.984  1.0341 -0.6100  2.3558
 6870TIP3   OH242024   6.222   2.937   5.147  0.0795  0.1458 -0.2285
 6870TIP3    H142025   6.281   2.991   5.200  0.7721 -0.5640 -0.2616
 6870TIP3    H242026   6.275   2.909   5.073 -0.3798 -0.2952 -0.3935
 6871TIP3   OH242027   5.544   2.136   5.716 -0.2471  0.4806 -0.3423
 6871TIP3    H142028   5.461   2.159   5.675 -0.0287 -1.0891 -1.7456
 6871TIP3    H242029   5.520   2.111   5.806 -1.0740  1.3928 -0.2865
 6872TIP3   OH242030   0.197   4.349   6.241 -0.2877 -0.1247 -0.5723
 6872TIP3    H142031   0.218   4.283   6.307  2.3586 -1.2110 -2.3185
 6872TIP3    H242032   0.171   4.426   6.290 -0.0852 -1.4062  1.6552
 6873TIP3   OH242033   0.632   3.679   1.327 -0.3336 -0.7490  0.3621
 6873TIP3    H142034   0.641   3.608   1.264  1.3769 -0.9607  0.7919
 6873TIP3    H242035   0.694   3.746   1.298 -1.0029  0.0266  0.6771
 6874TIP3   OH242036   2.136   1.140  15.417  0.5023 -0.0940  0.6243
 6874TIP3    H142037   2.129   1.045  15.410 -1.3913  0.0373  0.2451
 6874TIP3    H242038   2.147   1.170  15.327  1.4624  0.0498  0.7754
 6875TIP3   OH242039   1.611   4.248   1.157  0.2706  0.1964  0.0629
 6875TIP3    H142040   1.605   4.318   1.092  2.1511  1.1767  0.8946
 6875TIP3    H242041   1.550   4.274   1.226 -0.8760 -0.2725 -0.7363
 6876TIP3   OH242042   2.155   2.005   0.354  0.4413 -0.0141  0.0694
 6876TIP3    H142043   2.070   1.975   0.387 -0.0074  0.4946 -0.5987
 6876TIP3    H242044   2.153   2.100   0.366  1.1783 -0.0585  0.6277
 6877TIP3   OH242045   1.357   6.368  15.686 -0.1135  0.3335  0.1736
 6877TIP3    H142046   1.353   6.409  15.773  2.0703 -0.8734  0.9156
 6877TIP3    H242047   1.434   6.408  15.645  0.2323 -0.7951 -0.2940
 6878TIP3   OH242048   4.763   2.182   1.928 -0.5437  0.2808  0.8918
 6878TIP3    H142049   4.809   2.166   2.010  0.1257  0.7443  0.6182
 6878TIP3    H242050   4.802   2.121   1.866 -0.0333  0.9196  0.5710
 6879TIP3   OH242051   5.626   6.046  11.377  0.2821 -0.9962 -0.3590
 6879TIP3    H142052   5.579   6.100  11.314 -0.5440 -0.1525  0.9158
 6879TIP3    H242053   5.674   6.110  11.431 -3.6890 -0.9420  3.6734
 6880TIP3   OH242054   2.288   4.018   3.590  0.4522 -0.3788 -0.7907
 6880TIP3    H142055   2.314   3.928   3.607  1.9578  0.6251  3.3662
 6880TIP3    H242056   2.193   4.014   3.575 -0.3565 -2.4178  3.4613
 6881TIP3   OH242057   0.225   2.109  11.909  0.4883  0.3880  0.3089
 6881TIP3    H142058   0.197   2.086  11.820  0.2916 -0.6574  0.6274
 6881TIP3    H242059   0.149   2.090  11.964  0.6132  1.0176  0.7147
 6882TIP3   OH242060   0.379   5.904  12.132 -0.0684  0.1062 -0.0345
 6882TIP3    H142061   0.424   5.863  12.205 -2.0294  0.6123  1.5766
 6882TIP3    H242062   0.307   5.953  12.173  0.1138  2.3342 -2.1122
 6883TIP3   OH242063   5.220   2.919  13.655  0.1047  0.4712 -0.2803
 6883TIP3    H142064   5.151   2.916  13.721  0.1444  1.6395 -0.1565
 6883TIP3    H242065   5.286   2.857  13.685 -0.7089 -0.3819 -0.2020
 6884TIP3   OH242066   1.849   2.003   3.643  0.1959  0.2360 -0.0014
 6884TIP3    H142067   1.780   2.006   3.709  1.2157 -1.6878  1.2483
 6884TIP3    H242068   1.803   1.981   3.562 -0.5242 -3.8188  1.2811
 6885TIP3   OH242069   2.935   2.051  14.000  0.5415 -0.4319 -0.3443
 6885TIP3    H142070   3.011   1.998  14.023 -0.1283 -1.3673 -0.2394
 6885TIP3    H242071   2.935   2.053  13.904  1.1026  0.1804 -0.3373
 6886TIP3   OH242072   2.995   2.190   4.694  0.1854  0.0140 -0.5694
 6886TIP3    H142073   2.985   2.101   4.659 -0.1970  0.2093 -0.9600
 6886TIP3    H242074   2.918   2.237   4.663  0.0600  0.3094  0.1822
 6887TIP3   OH242075   4.913   6.382   3.673 -0.3815  0.5075  0.0750
 6887TIP3    H142076   4.858   6.449   3.633 -1.6425 -0.2235  0.5421
 6887TIP3    H242077   4.942   6.328   3.599  0.6140  1.5034 -0.2992
 6888TIP3   OH242078   6.696   5.437  14.387 -0.3249  0.0826  0.2711
 6888TIP3    H142079   6.671   5.377  14.457 -0.5329 -0.5743 -0.3482
 6888TIP3    H242080   6.635   5.418  14.316  0.9797 -0.5440 -0.7492
 6889TIP3   OH242081   1.954   6.681  13.724 -0.0740  0.0843  0.0635
 6889TIP3    H142082   1.927   6.592  13.701 -0.8201  0.2411  0.2826
 6889TIP3    H242083   1.972   6.678  13.817  1.7129 -0.2561 -0.2713
 6890TIP3   OH242084   6.718   6.355  11.232 -0.5663 -0.5876 -0.4440
 6890TIP3    H142085   6.808   6.381  11.210 -0.9924 -0.2929 -1.9660
 6890TIP3    H242086   6.670   6.438  11.237 -0.7267 -0.7226  0.6246
 6891TIP3   OH242087   2.026   5.313  12.991 -0.3090 -0.3487 -0.1068
 6891TIP3    H142088   2.031   5.407  12.974  2.3706 -0.1009  1.5283
 6891TIP3    H242089   1.997   5.275  12.908  0.2980  1.7685 -1.3604
 6892TIP3   OH242090   1.574   0.860   2.214  0.3844 -0.9002  0.3810
 6892TIP3    H142091   1.654   0.910   2.200 -0.3637  0.4630  0.7643
 6892TIP3    H242092   1.588   0.813   2.296  1.0900 -1.3344  0.0228
 6893TIP3   OH242093   1.710   0.416   5.882 -0.2300 -0.1793 -0.3943
 6893TIP3    H142094   1.757   0.381   5.958  2.4154 -0.0814 -1.8326
 6893TIP3    H242095   1.681   0.338   5.834 -1.8444 -0.2402  0.6232
 6894TIP3   OH242096   2.307   5.168   4.277 -0.0512 -0.5416 -0.4493
 6894TIP3    H142097   2.214   5.181   4.297 -0.3405 -2.7685 -0.0700
 6894TIP3    H242098   2.339   5.255   4.256 -1.3842  0.9688  2.9232
 6895TIP3   OH242099   4.026   5.483  14.367 -0.4196 -0.5631 -0.1220
 6895TIP3    H142100   3.967   5.532  14.425 -0.2352 -0.2429 -0.2077
 6895TIP3    H242101   3.985   5.489  14.281 -1.4287 -2.1830  0.1813
 6896TIP3   OH242102   2.626   2.977   2.052 -0.3245  0.6337 -0.3999
 6896TIP3    H142103   2.717   3.009   2.058 -0.6514  1.3039  2.1532
 6896TIP3    H242104   2.575   3.055   2.029 -0.4610  0.6499 -0.0400
 6897TIP3   OH242105   5.346   3.168   5.089  0.7103 -0.2303  0.7094
 6897TIP3    H142106   5.373   3.083   5.054 -0.3122 -0.2672 -0.0456
 6897TIP3    H242107   5.427   3.209   5.119  1.5249 -0.5814 -0.9133
 6898TIP3   OH242108   5.541   3.200  11.420  1.0412 -0.0289 -0.5830
 6898TIP3    H142109   5.485   3.268  11.457 -1.1460 -2.1618  0.3268
 6898TIP3    H242110   5.495   3.172  11.341  0.5147 -2.0342  0.3448
 6899TIP3   OH242111   0.755   4.441   3.648  0.5532 -0.2809  0.1015
 6899TIP3    H142112   0.729   4.529   3.674  1.2237  1.0740 -3.2044
 6899TIP3    H242113   0.673   4.396   3.627  0.0660  2.2550 -5.3265
 6900TIP3   OH242114   0.787   1.541   6.364  0.3239  0.1341  0.3453
 6900TIP3    H142115   0.810   1.484   6.438  0.7221  0.2201  0.2905
 6900TIP3    H242116   0.813   1.492   6.287  1.0604  0.5597  0.3130
 6901TIP3   OH242117   4.592   5.119   5.471  0.5076  0.0230  0.2186
 6901TIP3    H142118   4.640   5.202   5.474  0.2274  0.1561  2.9439
 6901TIP3    H242119   4.641   5.060   5.528 -0.4061 -1.0700 -0.0859
 6902TIP3   OH242120   3.416   5.253   1.756  0.0017 -0.7500  0.0204
 6902TIP3    H142121   3.342   5.312   1.739 -0.4274 -0.8861  1.3498
 6902TIP3    H242122   3.431   5.210   1.672 -0.4392  0.3894 -0.6701
 6903TIP3   OH242123   2.992   5.648   2.804 -0.1538  0.6302 -0.0115
 6903TIP3    H142124   3.072   5.670   2.851 -0.2005  1.5803 -0.3591
 6903TIP3    H242125   2.921   5.681   2.860 -0.2529  0.8593 -0.2715
 6904TIP3   OH242126   6.665   3.823   2.739  0.6729 -0.0406 -0.2260
 6904TIP3    H142127   6.596   3.757   2.734  0.3112  0.1689  1.4527
 6904TIP3    H242128   6.736   3.780   2.787  0.7514  0.5189  0.1703
 6905TIP3   OH242129   5.811   0.931   2.031  0.3077 -0.1354 -0.5017
 6905TIP3    H142130   5.885   0.946   1.971 -0.3872  2.0860 -0.8886
 6905TIP3    H242131   5.776   0.846   2.003  2.4578 -1.0943 -0.5315
 6906TIP3   OH242132   6.061   3.185  12.954 -0.0645 -0.1108  0.1425
 6906TIP3    H142133   6.128   3.210  13.017  0.3250 -1.0966  0.1423
 6906TIP3    H242134   6.001   3.129  13.004 -0.6425  0.4076  0.0349
 6907TIP3   OH242135   2.677   4.854   1.410 -0.4882  0.2196 -0.1402
 6907TIP3    H142136   2.653   4.813   1.493  0.2167 -0.0008 -0.0346
 6907TIP3    H242137   2.768   4.826   1.395  0.9604  3.6458  1.1560
 6908TIP3   OH242138   5.491   1.598  13.419  0.2191  0.3005 -0.3749
 6908TIP3    H142139   5.438   1.629  13.492 -1.6117 -0.8195 -1.1424
 6908TIP3    H242140   5.460   1.509  13.403  1.2456  0.1683 -1.8915
 6909TIP3   OH242141   1.845   3.377  12.898 -0.0635  0.1933 -0.2779
 6909TIP3    H142142   1.902   3.324  12.843 -0.2174 -1.3013  0.9096
 6909TIP3    H242143   1.756   3.354  12.870 -0.1161  0.5183 -0.3759
 6910TIP3   OH242144   3.376   1.183  11.800 -0.1272 -0.4781 -0.8068
 6910TIP3    H142145   3.309   1.235  11.754  0.7881  0.7326 -0.8226
 6910TIP3    H242146   3.345   1.093  11.794 -1.4178 -0.0173 -1.3957
 6911TIP3   OH242147   4.281   4.613  15.728  0.4974 -0.3217  0.3900
 6911TIP3    H142148   4.366   4.592  15.690 -0.1237  0.5938 -1.6622
 6911TIP3    H242149   4.289   4.704  15.756  0.5346 -0.5931  1.3030
 6912TIP3   OH242150   1.271   5.594  16.312  0.7726 -0.4651  0.0112
 6912TIP3    H142151   1.253   5.554  16.397  0.7182 -0.1271  0.1578
 6912TIP3    H242152   1.188   5.587  16.265  0.6161 -0.0713  0.2216
 6913TIP3   OH242153   3.755   3.735   1.654  0.5210  0.2418  0.2032
 6913TIP3    H142154   3.809   3.674   1.604  0.2014 -1.5492  1.9078
 6913TIP3    H242155   3.670   3.732   1.611  1.4172  2.3029 -1.8828
 6914TIP3   OH242156   3.792   5.563  15.309  0.2739 -0.3270  0.5793
 6914TIP3    H142157   3.847   5.508  15.366  0.4543 -1.9813 -1.0838
 6914TIP3    H242158   3.730   5.501  15.270  0.0743  0.7616 -0.9015
 6915TIP3   OH242159   6.560   1.571  14.228 -0.4898 -0.8569  0.7994
 6915TIP3    H142160   6.537   1.521  14.305 -1.5599 -2.1842 -0.3265
 6915TIP3    H242161   6.477   1.608  14.198  0.0560  0.4290  0.7921
 6916TIP3   OH242162   4.535   6.500  11.371  0.1066 -0.3500 -0.0543
 6916TIP3    H142163   4.628   6.482  11.357  0.2999  0.3508  0.3193
 6916TIP3    H242164   4.531   6.593  11.393 -0.8984  0.1850 -2.1908
 6917TIP3   OH242165   0.387   1.985  15.033  0.1871 -0.0582  0.1004
 6917TIP3    H142166   0.458   1.926  15.059 -0.6852 -0.3589  1.9708
 6917TIP3    H242167   0.410   2.014  14.945  0.1103 -4.1091 -1.4549
 6918TIP3   OH242168   5.132   4.842   1.150 -0.4658  0.0899 -0.6231
 6918TIP3    H142169   5.106   4.886   1.069 -1.6780  0.0053 -0.3063
 6918TIP3    H242170   5.107   4.903   1.219  2.1548  0.9564 -0.3188
 6919TIP3   OH242171   0.097   6.060   2.873 -0.2435  0.7184  0.5099
 6919TIP3    H142172   0.112   6.138   2.820  1.6288 -0.7198 -1.2648
 6919TIP3    H242173   0.185   6.033   2.901 -0.7962 -0.8822  0.8144
 6920TIP3   OH242174   2.273   2.059   2.762 -0.1084  0.1706 -0.3052
 6920TIP3    H142175   2.293   1.966   2.759 -0.8685  0.0172 -1.7222
 6920TIP3    H242176   2.250   2.081   2.671 -3.0097  1.0160  0.5186
 6921TIP3   OH242177   1.201   6.595   1.022 -0.0631  0.5017  0.8738
 6921TIP3    H142178   1.159   6.514   1.050 -0.8971  0.4559 -0.4301
 6921TIP3    H242179   1.134   6.641   0.971 -0.1682  2.8048  2.8853
 6922TIP3   OH242180   5.148   6.477   5.738  0.7564  0.2834 -0.0740
 6922TIP3    H142181   5.104   6.395   5.759  1.5355 -0.4386 -1.1972
 6922TIP3    H242182   5.119   6.538   5.806 -0.0417 -0.8407  0.6121
 6923TIP3   OH242183   4.165   0.157  15.983 -0.1117  0.1534 -0.1301
 6923TIP3    H142184   4.153   0.232  16.041  0.6331 -1.0443  1.7007
 6923TIP3    H242185   4.094   0.097  16.008 -0.6841  0.2189 -1.5472
 6924TIP3   OH242186   2.195   5.862   5.212 -0.8592  0.0000  0.3960
 6924TIP3    H142187   2.238   5.801   5.272  0.7676  0.5870 -0.1091
 6924TIP3    H242188   2.103   5.858   5.236 -0.3180 -0.0015  2.7240
 6925TIP3   OH242189   5.494   2.770  16.917 -0.4301  0.3228 -0.3531
 6925TIP3    H142190   5.464   2.763  16.826  0.8077 -0.4252 -0.7298
 6925TIP3    H242191   5.414   2.768  16.969 -1.1049 -0.3542 -1.3774
 6926TIP3   OH242192   2.500   5.356  14.192 -0.3120 -0.1714 -0.4383
 6926TIP3    H142193   2.454   5.432  14.226  1.4599  0.9630 -0.4208
 6926TIP3    H242194   2.548   5.388  14.116 -0.8891 -1.7053 -1.4974
 6927TIP3   OH242195   0.220   2.102   0.598 -0.3486  0.4076 -0.2664
 6927TIP3    H142196   0.278   2.066   0.665 -1.2841  1.6517  1.2914
 6927TIP3    H242197   0.242   2.055   0.518  1.1445 -0.7925  0.8146
 6928TIP3   OH242198   0.366   2.814   1.585  0.2585  0.1350  0.4370
 6928TIP3    H142199   0.332   2.753   1.651  0.6837  0.4088  0.9175
 6928TIP3    H242200   0.360   2.765   1.503 -1.6744  0.3313  0.4157
 6929TIP3   OH242201   6.409   0.512  11.536 -0.0216  0.2668  0.2700
 6929TIP3    H142202   6.329   0.476  11.574  0.3968 -0.6113  0.3617
 6929TIP3    H242203   6.412   0.602  11.566 -0.5050  0.0404  1.0226
 6930TIP3   OH242204   0.752   6.670   4.400  0.5524  0.4685 -0.0341
 6930TIP3    H142205   0.687   6.736   4.423  0.5834 -0.2598  2.4192
 6930TIP3    H242206   0.836   6.712   4.421  0.8422  0.9099 -1.9088
 6931TIP3   OH242207   1.480   5.733  12.424  0.5483 -0.0514  0.5066
 6931TIP3    H142208   1.389   5.702  12.420  0.3168  0.7070 -1.0757
 6931TIP3    H242209   1.478   5.806  12.486 -0.3738  1.2006 -0.9083
 6932TIP3   OH242210   2.340   3.448  15.545  0.3575  0.2244  0.2558
 6932TIP3    H142211   2.404   3.506  15.504  2.0053 -1.6775 -0.0444
 6932TIP3    H242212   2.382   3.419  15.626 -0.8383  0.2106  0.8833
 6933TIP3   OH242213   6.351   1.582  13.258  0.4333  0.1145  0.1460
 6933TIP3    H142214   6.446   1.584  13.248  0.3363 -1.8416 -2.1545
 6933TIP3    H242215   6.318   1.586  13.168 -1.6601  0.4522  0.8792
 6934TIP3   OH242216   1.966   3.737   2.193 -0.0633 -0.1479 -0.4859
 6934TIP3    H142217   1.943   3.664   2.251 -1.6755  1.8979  1.6679
 6934TIP3    H242218   2.060   3.748   2.204  0.1149 -1.5166 -0.4268
 6935TIP3   OH242219   2.660   5.213  10.608  0.6303  0.9620  0.0481
 6935TIP3    H142220   2.714   5.134  10.611  1.1728  1.3513  0.6908
 6935TIP3    H242221   2.570   5.181  10.614  0.7486  0.2843 -1.3389
 6936TIP3   OH242222   4.393   4.160  11.487  0.1678 -0.2044  0.1218
 6936TIP3    H142223   4.395   4.168  11.391 -0.5206 -3.2153 -0.2660
 6936TIP3    H242224   4.483   4.142  11.511  0.4116  0.9624  0.0924
 6937TIP3   OH242225   4.728   5.875  15.914  0.9928  0.3544  0.0288
 6937TIP3    H142226   4.675   5.851  15.838  0.7384 -0.6923  0.5226
 6937TIP3    H242227   4.667   5.877  15.987  1.6056 -0.8216  0.5977
 6938TIP3   OH242228   4.295   3.385  13.664 -0.8947  0.2439 -0.2606
 6938TIP3    H142229   4.365   3.450  13.669 -0.7460  0.0197  3.1694
 6938TIP3    H242230   4.219   3.433  13.630  0.1386  1.2153 -1.2651
 6939TIP3   OH242231   5.987   6.040  13.394 -0.0633  0.0706 -0.3252
 6939TIP3    H142232   5.903   6.021  13.352 -0.8251 -0.4015  1.3417
 6939TIP3    H242233   5.975   6.015  13.486  2.6441 -2.2660 -0.4701
 6940TIP3   OH242234   2.032   0.803  15.709 -0.7223 -0.2584 -0.1579
 6940TIP3    H142235   1.955   0.746  15.703 -0.1766 -1.0318 -0.0552
 6940TIP3    H242236   2.026   0.860  15.633 -1.3962 -0.3095 -0.1522
 6941TIP3   OH242237   0.889   5.600   1.013  0.3931 -0.4739 -0.2132
 6941TIP3    H142238   0.907   5.558   0.929  0.9703  0.7542 -0.7201
 6941TIP3    H242239   0.975   5.616   1.052  0.1444 -3.3839  1.8832
 6942TIP3   OH242240   5.188   2.063  13.114 -0.5836 -0.1173 -0.5239
 6942TIP3    H142241   5.110   2.069  13.059 -0.4125 -0.2792 -0.7874
 6942TIP3    H242242   5.164   2.002  13.184 -0.9801  0.5007 -0.1109
 6943TIP3   OH242243   2.601   5.241  15.129  0.3236  0.1056 -0.3200
 6943TIP3    H142244   2.577   5.159  15.171  1.7592  0.6264  1.6437
 6943TIP3    H242245   2.625   5.299  15.201  1.9285  1.3964 -1.7991
 6944TIP3   OH242246   0.170   5.405  16.981 -0.0770  0.4113 -0.4294
 6944TIP3    H142247   0.140   5.442  17.064 -0.4580  1.0899 -0.8636
 6944TIP3    H242248   0.121   5.452  16.914 -0.3259 -0.6523 -1.0164
 6945TIP3   OH242249   0.130   4.151   5.039 -0.4140 -0.5892  0.3692
 6945TIP3    H142250   0.151   4.180   5.127  0.9259 -3.0261  0.9308
 6945TIP3    H242251   0.034   4.152   5.036 -0.4729 -0.1202  1.7068
 6946TIP3   OH242252   3.693   6.712   2.667  0.1676  0.3797 -0.6573
 6946TIP3    H142253   3.664   6.733   2.578 -0.4476 -0.1679 -0.5962
 6946TIP3    H242254   3.767   6.651   2.654 -0.7406 -0.7293 -0.7991
 6947TIP3   OH242255   6.317   5.284  13.343  0.2251 -0.1242 -0.5768
 6947TIP3    H142256   6.269   5.213  13.387  1.3852 -0.6646 -0.1510
 6947TIP3    H242257   6.355   5.335  13.414 -0.9072  1.1836 -0.8682
 6948TIP3   OH242258   5.535   4.476  11.724  0.0521 -0.3683 -0.0976
 6948TIP3    H142259   5.475   4.470  11.649 -1.0557  2.0655  0.5035
 6948TIP3    H242260   5.486   4.439  11.797  1.0209 -2.4570 -0.4170
 6949TIP3   OH242261   4.501   5.906  16.096 -0.3481  0.1473 -0.2724
 6949TIP3    H142262   4.494   5.874  16.186  1.4283 -1.0953 -0.5227
 6949TIP3    H242263   4.435   5.855  16.048  1.0251 -1.7688 -0.2614
 6950TIP3   OH242264   0.417   5.940  12.600 -0.0077  0.3949  0.8006
 6950TIP3    H142265   0.362   5.863  12.588 -0.7500  1.1753 -1.2952
 6950TIP3    H242266   0.470   5.920  12.677 -1.0277 -1.6789  1.0327
 6951TIP3   OH242267   0.731   2.535   0.684  0.2028 -0.0755 -0.8797
 6951TIP3    H142268   0.690   2.509   0.601 -0.6704  1.0178 -0.8244
 6951TIP3    H242269   0.815   2.489   0.685 -0.3556 -1.1661 -1.7323
 6952TIP3   OH242270   1.745   0.394   0.514  0.4052 -0.4320  0.2367
 6952TIP3    H142271   1.670   0.345   0.546  0.2892  0.2362  1.0226
 6952TIP3    H242272   1.715   0.433   0.432 -0.6861  1.1771  1.3530
 6953TIP3   OH242273   5.702   6.452   5.980  0.0253  0.6215 -0.0987
 6953TIP3    H142274   5.624   6.443   5.925 -0.0887  1.8931 -0.1870
 6953TIP3    H242275   5.674   6.508   6.052  1.1488  2.2368 -0.8382
 6954TIP3   OH242276   6.771   2.175  13.030 -0.7371  0.0282 -0.3391
 6954TIP3    H142277   6.711   2.249  13.029  1.4464  1.9118 -0.4819
 6954TIP3    H242278   6.823   2.185  12.950  2.0914  0.6226  1.4187
 6955TIP3   OH242279   2.966   4.006   0.370 -0.1132  0.4204  0.1287
 6955TIP3    H142280   3.059   4.021   0.384 -0.2218 -0.1740  1.7056
 6955TIP3    H242281   2.962   3.954   0.290  0.9001  0.5373 -0.0105
 6956TIP3   OH242282   2.292   0.882  11.595  0.1936 -0.1561  0.1293
 6956TIP3    H142283   2.290   0.931  11.677  1.3839  3.3977 -1.7438
 6956TIP3    H242284   2.214   0.913  11.548  0.2726 -1.1009 -0.6496
 6957TIP3   OH242285   5.640   0.580  15.875 -0.3641 -0.1455 -0.3988
 6957TIP3    H142286   5.649   0.633  15.796 -0.1941 -0.6441 -0.7217
 6957TIP3    H242287   5.724   0.535  15.883 -0.6623 -0.7178 -0.3930
 6958TIP3   OH242288   0.120   5.710  12.283  0.4405 -0.8646  0.3694
 6958TIP3    H142289   0.172   5.761  12.221 -1.1987  0.6220  0.1178
 6958TIP3    H242290   0.030   5.740  12.268 -0.1047 -1.0137  2.9272
 6959TIP3   OH242291   6.468   6.463  14.561  0.0017  0.8736  0.1305
 6959TIP3    H142292   6.476   6.557  14.575  0.6238  0.7590  0.5593
 6959TIP3    H242293   6.534   6.424  14.618 -0.3291  0.1698  0.0419
 6960TIP3   OH242294   5.167   0.413   3.120 -0.2562  0.3084  0.5959
 6960TIP3    H142295   5.183   0.504   3.095 -0.2959 -0.2007 -1.5051
 6960TIP3    H242296   5.222   0.362   3.061 -1.4597 -1.0839  0.6009
 6961TIP3   OH242297   4.991   6.433   0.998 -0.4946  0.0724  0.5773
 6961TIP3    H142298   5.001   6.442   0.904  2.3225 -1.6147  0.6075
 6961TIP3    H242299   4.897   6.444   1.013 -1.2662 -1.1140 -2.5921
 6962TIP3   OH242300   6.326   5.803  14.482  0.2734  0.5182 -0.2538
 6962TIP3    H142301   6.274   5.864  14.431 -0.9076  1.5195  2.0124
 6962TIP3    H242302   6.415   5.812  14.447 -0.4697  1.1025 -2.0922
 6963TIP3   OH242303   5.874   5.901  16.410 -0.2959  0.1177 -0.0957
 6963TIP3    H142304   5.841   5.920  16.498  0.1474 -1.2711  0.4002
 6963TIP3    H242305   5.837   5.815  16.389  2.5105 -1.3097  0.3000
 6964TIP3   OH242306   6.033   6.413   5.586  0.4176  0.4599  0.1859
 6964TIP3    H142307   5.997   6.464   5.659  0.5479  1.1425 -0.2204
 6964TIP3    H242308   6.018   6.322   5.612  0.0668  0.6969  0.8662
 6965TIP3   OH242309   1.396   0.854   3.130 -0.3467 -0.0353 -0.5689
 6965TIP3    H142310   1.443   0.913   3.071 -0.3125 -0.1716 -0.6812
 6965TIP3    H242311   1.425   0.879   3.217  1.7314 -1.6104 -0.7250
 6966TIP3   OH242312   4.152   4.134  14.503 -0.2344 -0.5024 -0.5172
 6966TIP3    H142313   4.093   4.135  14.427 -0.6590 -0.9648 -0.1943
 6966TIP3    H242314   4.108   4.079  14.567  0.5277 -0.8147 -0.2514
 6967TIP3   OH242315   3.007   6.622  10.610  0.1034 -0.0206 -0.0865
 6967TIP3    H142316   2.973   6.537  10.582  0.4356  0.3885 -1.8528
 6967TIP3    H242317   3.092   6.629  10.567  0.5649  0.7564  0.9148
 6968TIP3   OH242318   6.587   5.687   3.158  0.2521 -0.2761 -0.0128
 6968TIP3    H142319   6.555   5.713   3.072  0.5812 -0.8000 -0.3039
 6968TIP3    H242320   6.678   5.715   3.159  0.2932 -0.4122  0.0986
 6969TIP3   OH242321   1.884   1.413   5.424  0.2165  0.6993  0.0044
 6969TIP3    H142322   1.887   1.499   5.383  0.2625  2.4971  3.5070
 6969TIP3    H242323   1.969   1.402   5.465  1.1339 -2.1948 -2.2546
 6970TIP3   OH242324   5.140   1.804  16.922 -0.5683  0.4593 -0.5784
 6970TIP3    H142325   5.209   1.790  16.857 -1.1601  0.5205 -1.2263
 6970TIP3    H242326   5.084   1.872  16.884 -2.4116 -1.3221 -1.2347
 6971TIP3   OH242327   0.000   5.454  14.849  0.7991  0.1755 -0.1063
 6971TIP3    H142328  -0.038   5.538  14.822 -0.8776 -0.7546 -0.7476
 6971TIP3    H242329  -0.033   5.440  14.938  1.6646  0.5184  0.2781
 6972TIP3   OH242330   3.045   6.216  16.361 -0.0242  0.5202 -0.2328
 6972TIP3    H142331   3.073   6.217  16.452  1.4970 -0.4835 -0.6506
 6972TIP3    H242332   2.965   6.163  16.361 -0.3081  0.9418  0.5758
 6973TIP3   OH242333   1.182   1.493   0.810  0.4365 -0.0602 -0.2418
 6973TIP3    H142334   1.237   1.494   0.732  1.3950 -1.6709  0.3742
 6973TIP3    H242335   1.217   1.564   0.864  1.2594 -0.4096 -0.3019
 6974TIP3   OH242336   3.788   1.099  13.649 -0.2279 -0.1222  0.1116
 6974TIP3    H142337   3.798   1.010  13.682  1.2940 -0.6639 -1.6067
 6974TIP3    H242338   3.722   1.091  13.580  0.5765 -0.1471 -0.6774
 6975TIP3   OH242339   5.223   0.930  12.586 -0.7614 -0.0267  0.2746
 6975TIP3    H142340   5.257   0.863  12.645 -0.2252  0.4130  0.4777
 6975TIP3    H242341   5.202   0.883  12.505 -2.8108 -0.8900  1.2429
 6976TIP3   OH242342   2.021   0.767   3.032 -0.5577 -0.3263 -0.7685
 6976TIP3    H142343   2.028   0.862   3.018  2.3080 -0.2414  0.4601
 6976TIP3    H242344   1.995   0.759   3.124 -1.3202 -0.7762 -1.0105
 6977TIP3   OH242345   2.541   1.502   5.768 -0.2521 -0.5507 -0.1312
 6977TIP3    H142346   2.455   1.538   5.745 -0.3064  0.0818  0.9805
 6977TIP3    H242347   2.531   1.473   5.859 -0.3315 -3.7837 -1.0558
 6978TIP3   OH242348   2.434   3.167   5.723  0.3623 -0.2460  0.2091
 6978TIP3    H142349   2.353   3.173   5.773 -1.3905  0.1329 -2.4344
 6978TIP3    H242350   2.494   3.118   5.779 -2.0888 -1.6299  1.7990
 6979TIP3   OH242351   5.425   6.650  13.308  0.5760 -0.3667  0.3848
 6979TIP3    H142352   5.486   6.607  13.368  0.0638 -0.1851  1.0482
 6979TIP3    H242353   5.349   6.590  13.305  1.2718 -1.2376 -1.4245
 6980TIP3   OH242354   6.152   3.881   4.952 -0.4003 -0.5228  0.0871
 6980TIP3    H142355   6.244   3.863   4.932  0.0462  1.5686  0.0659
 6980TIP3    H242356   6.142   3.852   5.043  0.4655 -0.1879  0.3061
 6981TIP3   OH242357   1.859   4.744   3.585  0.0065 -0.3023  0.2034
 6981TIP3    H142358   1.851   4.747   3.681  0.9863  0.4467  0.2729
 6981TIP3    H242359   1.937   4.691   3.569  1.9712  2.4360 -0.0163
 6982TIP3   OH242360   6.018   1.509  15.043  0.2977 -0.0900 -0.3084
 6982TIP3    H142361   6.106   1.539  15.066  0.6126 -1.3081  0.1490
 6982TIP3    H242362   5.961   1.546  15.111  0.9536 -2.0525  1.4096
 6983TIP3   OH242363   1.619   2.155  11.770  0.3721 -0.3740  0.0703
 6983TIP3    H142364   1.530   2.166  11.738  0.5002  0.6530  0.0253
 6983TIP3    H242365   1.645   2.242  11.798  1.1348 -0.7906  0.6894
 6984TIP3   OH242366   5.576   1.937  12.774 -0.3062  0.0714  0.1738
 6984TIP3    H142367   5.557   1.992  12.850 -0.2353  1.4685 -0.7953
 6984TIP3    H242368   5.506   1.872  12.773 -1.1301  0.9324  0.6043
 6985TIP3   OH242369   1.225   3.481   3.739  0.2806  0.3434  0.2655
 6985TIP3    H142370   1.169   3.512   3.667 -0.2289  0.3470  0.6531
 6985TIP3    H242371   1.314   3.503   3.711  0.0313  1.0258 -0.0270
 6986TIP3   OH242372   4.714   5.081  14.099 -0.0646 -0.1637  0.1768
 6986TIP3    H142373   4.775   5.014  14.068 -0.3095  0.1104 -0.9291
 6986TIP3    H242374   4.709   5.144  14.027  0.5946  1.3662  1.3975
 6987TIP3   OH242375   5.780   6.379  16.778 -0.2756  0.2620 -0.1157
 6987TIP3    H142376   5.690   6.369  16.811  0.1111 -3.7744  0.1915
 6987TIP3    H242377   5.772   6.367  16.684 -0.0826  0.1473 -0.1175
 6988TIP3   OH242378   3.545   1.325   5.678  0.1796  0.2284 -0.0847
 6988TIP3    H142379   3.524   1.387   5.748 -2.1245  0.4391 -0.8831
 6988TIP3    H242380   3.517   1.369   5.597  2.3997 -0.1683 -1.1640
 6989TIP3   OH242381   4.566   3.166   2.769 -0.2073 -0.3075  0.5851
 6989TIP3    H142382   4.502   3.229   2.802  1.3611  0.8154  1.6195
 6989TIP3    H242383   4.591   3.115   2.846 -2.7933 -3.5930 -0.5223
 6990TIP3   OH242384   6.314   0.741  17.126 -0.2460 -0.7361  0.8104
 6990TIP3    H142385   6.281   0.739  17.216 -2.8146 -1.0373 -0.0726
 6990TIP3    H242386   6.407   0.718  17.135 -0.6471 -1.7746  3.2791
 6991TIP3   OH242387   1.944   5.298   0.974  0.2424  0.1296 -0.3691
 6991TIP3    H142388   1.935   5.233   1.044 -0.6218  0.8853  0.2405
 6991TIP3    H242389   1.856   5.335   0.965  0.7878  1.4212 -0.5018
 6992TIP3   OH242390   2.010   1.789   5.098 -0.1727  0.5842 -0.5830
 6992TIP3    H142391   1.993   1.878   5.128 -1.1448  0.0884  0.4308
 6992TIP3    H242392   2.082   1.797   5.036  2.3618  1.6493  2.2581
 6993TIP3   OH242393   3.353   3.584   5.862 -0.2948 -0.1030  0.1443
 6993TIP3    H142394   3.330   3.578   5.955 -0.4614  0.9334  0.1776
 6993TIP3    H242395   3.449   3.577   5.861 -0.3031 -0.2720  0.3730
 6994TIP3   OH242396   4.028   0.443  15.361  0.4188  0.0676  0.2213
 6994TIP3    H142397   4.056   0.382  15.429 -0.6020  1.0570  1.5635
 6994TIP3    H242398   4.083   0.520  15.373 -0.1246  0.4507  0.2561
 6995TIP3   OH242399   6.150   0.166   5.531 -0.1634  0.2283  0.1185
 6995TIP3    H142400   6.129   0.077   5.503 -0.7547  0.1719  0.7050
 6995TIP3    H242401   6.076   0.191   5.587 -0.0746  1.1420 -0.1583
 6996TIP3   OH242402   0.137   6.635   2.653 -0.1319 -0.8980  0.7422
 6996TIP3    H142403   0.103   6.633   2.742 -0.4270 -2.0139  0.6276
 6996TIP3    H242404   0.224   6.595   2.659  0.6780  0.8206  0.8342
 6997TIP3   OH242405   3.658   3.115  15.807  0.3304  0.1537  0.0576
 6997TIP3    H142406   3.575   3.068  15.813  0.6542 -0.4738 -0.2051
 6997TIP3    H242407   3.657   3.154  15.720 -0.6441  2.0391  0.8530
 6998TIP3   OH242408   1.495   5.159  11.594 -0.1188 -0.2641 -0.0674
 6998TIP3    H142409   1.422   5.177  11.535 -1.2116  1.5456  1.6686
 6998TIP3    H242410   1.476   5.212  11.672  2.3573 -0.8145  1.0205
 6999TIP3   OH242411   2.555   1.275   4.803  0.3948 -0.1750 -0.2928
 6999TIP3    H142412   2.577   1.319   4.885  0.8710  0.4819 -0.7644
 6999TIP3    H242413   2.484   1.328   4.766  0.1819 -0.4687 -0.3095
 7000TIP3   OH242414   5.658   5.993  14.088  0.4730 -0.2308  0.3747
 7000TIP3    H142415   5.714   6.037  14.152  1.1784 -0.5252 -0.0417
 7000TIP3    H242416   5.620   5.919  14.136 -0.4701  0.6224  0.9858
 7001TIP3   OH242417   3.760   5.430   4.750  0.0274 -0.1505 -0.4107
 7001TIP3    H142418   3.837   5.436   4.808  0.3826  1.2705 -1.0032
 7001TIP3    H242419   3.687   5.415   4.810  0.2807  2.0259  0.5287
 7002TIP3   OH242420   0.675   0.216  15.085 -0.1458 -0.7104  0.6596
 7002TIP3    H142421   0.649   0.160  15.012 -0.6337  0.3563 -0.0039
 7002TIP3    H242422   0.627   0.181  15.160 -0.3045 -1.2804  0.3003
 7003TIP3   OH242423   1.261   5.955  14.224  0.7477 -0.3181 -0.6696
 7003TIP3    H142424   1.276   5.912  14.309 -0.3941 -0.4293 -0.5069
 7003TIP3    H242425   1.347   5.988  14.199  1.0688 -0.0698  0.6471
 7004TIP3   OH242426   0.415   2.144   6.089  0.1051  0.1177  0.7086
 7004TIP3    H142427   0.438   2.063   6.134  3.1872  1.0099  0.9737
 7004TIP3    H242428   0.446   2.131   5.999 -0.9078  0.4013  0.3069
 7005TIP3   OH242429   5.511   3.606  12.149 -0.2329  0.1272 -0.1853
 7005TIP3    H142430   5.478   3.691  12.179  1.0610 -0.0425  1.8950
 7005TIP3    H242431   5.434   3.562  12.113 -1.5482  1.0608  1.3574
 7006TIP3   OH242432   3.849   1.760   5.868 -0.1910 -0.3182  0.2758
 7006TIP3    H142433   3.871   1.705   5.793 -0.9419 -1.3140  0.7761
 7006TIP3    H242434   3.761   1.732   5.894  0.2079 -0.2523  1.7696
 7007TIP3   OH242435   3.537   1.431   3.342  0.1446  0.2446 -0.2897
 7007TIP3    H142436   3.603   1.497   3.362  0.0673  0.1720  0.2367
 7007TIP3    H242437   3.473   1.476   3.287  0.8100  0.2142 -1.1090
 7008TIP3   OH242438   6.263   5.189   5.937 -0.0694  0.0943 -0.3316
 7008TIP3    H142439   6.279   5.173   5.844 -0.5538  0.1433 -0.4319
 7008TIP3    H242440   6.312   5.269   5.957  0.6082 -0.3094 -0.3636
 7009TIP3   OH242441   0.960   5.369   0.292 -0.1355  0.3467 -0.2436
 7009TIP3    H142442   1.019   5.295   0.303 -1.9036 -1.3612 -1.5720
 7009TIP3    H242443   0.975   5.400   0.203  1.1817  2.1958  0.5713
 7010TIP3   OH242444   2.969   6.258  14.378  0.1186 -0.1135  1.3275
 7010TIP3    H142445   2.890   6.246  14.430 -0.6662 -0.6495  0.0693
 7010TIP3    H242446   2.958   6.344  14.337 -0.9107 -1.0616 -0.5514
 7011TIP3   OH242447   0.711   0.299   3.742 -0.2039  0.5578  0.1117
 7011TIP3    H142448   0.745   0.361   3.806 -1.5108  1.2117  0.2139
 7011TIP3    H242449   0.769   0.223   3.748  0.7102  1.2872  0.8382
 7012TIP3   OH242450   0.337   6.264  15.475 -0.0377  0.1613  0.5734
 7012TIP3    H142451   0.388   6.250  15.395 -1.4030  0.2066 -0.3283
 7012TIP3    H242452   0.388   6.221  15.544  1.7399  1.0783 -0.0979
 7013TIP3   OH242453   1.138   3.244  14.380  0.5879  0.1081 -0.1719
 7013TIP3    H142454   1.174   3.186  14.447  1.9958  1.0108 -0.1139
 7013TIP3    H242455   1.063   3.286  14.422 -0.4298 -1.5856 -0.1918
 7014TIP3   OH242456   5.525   6.020  11.634 -0.1395 -0.2158  0.5323
 7014TIP3    H142457   5.464   6.094  11.635 -0.2191 -0.2842  0.7371
 7014TIP3    H242458   5.545   6.007  11.541  1.2760  1.2117  0.6052
 7015TIP3   OH242459   2.320   3.478   5.731  0.2258  0.0080  0.0719
 7015TIP3    H142460   2.327   3.397   5.782  0.3850  0.1339  0.2509
 7015TIP3    H242461   2.369   3.543   5.782 -0.1436  0.2858  0.0783
 7016TIP3   OH242462   5.680   3.841   4.181 -0.0663  0.7072 -0.2679
 7016TIP3    H142463   5.667   3.920   4.128 -0.2822  1.8442  1.4010
 7016TIP3    H242464   5.627   3.774   4.137  0.6029  1.2947 -2.0656
 7017TIP3   OH242465   3.867   2.882   1.649 -0.3699 -0.0516  0.1800
 7017TIP3    H142466   3.865   2.961   1.594 -1.4868 -0.2842 -0.1302
 7017TIP3    H242467   3.958   2.876   1.678 -0.3695  1.6450  0.6345
 7018TIP3   OH242468   3.794   6.068   0.741 -0.2184 -0.4281 -0.4167
 7018TIP3    H142469   3.766   5.988   0.785  1.2203  0.1358  1.6630
 7018TIP3    H242470   3.721   6.129   0.750 -0.2082 -0.5589  0.6004
 7019TIP3   OH242471   5.160   0.263  13.360  0.5207 -0.0637  0.1152
 7019TIP3    H142472   5.252   0.286  13.375  0.9949 -2.0320  0.5263
 7019TIP3    H242473   5.147   0.182  13.408 -0.7783 -1.1166 -1.8491
 7020TIP3   OH242474   0.630   4.970  15.403  0.0949 -0.2166  0.1121
 7020TIP3    H142475   0.556   5.009  15.449  0.0535 -0.6843  0.4507
 7020TIP3    H242476   0.701   5.034  15.412  0.4848 -0.8421  1.9536
 7021TIP3   OH242477   0.968   5.050   3.908 -0.1801  0.0234  0.4210
 7021TIP3    H142478   1.043   5.009   3.865 -0.5065  0.3902 -0.5319
 7021TIP3    H242479   1.006   5.121   3.960  0.0170  1.2902 -1.3811
 7022TIP3   OH242480   2.138   6.217   0.203  0.2879 -0.0935  0.1852
 7022TIP3    H142481   2.126   6.174   0.288  3.3442 -1.1563  0.2103
 7022TIP3    H242482   2.207   6.166   0.160 -0.3701  1.1035 -2.4845
 7023TIP3   OH242483   3.523   4.462  14.715 -0.4778 -0.4980  0.5846
 7023TIP3    H142484   3.599   4.472  14.657 -0.0878 -1.1888  0.9610
 7023TIP3    H242485   3.561   4.446  14.801 -1.0580 -0.3984  0.8624
 7024TIP3   OH242486   5.539   2.090  15.225  0.1187  0.4551 -0.3340
 7024TIP3    H142487   5.551   2.180  15.258  0.3993  0.0016  0.8527
 7024TIP3    H242488   5.444   2.077  15.224  0.1108  0.4195  0.4790
 7025TIP3   OH242489   4.079   6.509  15.565  0.6723 -0.7031  0.2120
 7025TIP3    H142490   4.159   6.554  15.589 -0.6670  0.6911  2.3687
 7025TIP3    H242491   4.041   6.480  15.648 -0.7021 -1.9754 -0.7976
 7026TIP3   OH242492   3.253   4.523  15.880 -0.0669  0.4476  0.7500
 7026TIP3    H142493   3.345   4.509  15.902  0.3735  0.7981 -0.7570
 7026TIP3    H242494   3.234   4.612  15.912 -0.1205  0.0946  1.7371
 7027TIP3   OH242495   1.123   5.743   1.419  0.7029 -0.5253 -0.5637
 7027TIP3    H142496   1.037   5.779   1.395  0.2327 -1.1631  0.1178
 7027TIP3    H242497   1.186   5.808   1.388 -0.0410  0.0620 -0.8674
 7028TIP3   OH242498   3.449   5.151  15.864 -0.0968  0.0358  0.6858
 7028TIP3    H142499   3.368   5.190  15.897  0.4275  1.7792  0.0356
 7028TIP3    H242500   3.487   5.106  15.940 -0.9315  0.4628  1.3719
 7029TIP3   OH242501   1.745   4.715   0.151 -0.0699 -0.5290  0.6501
 7029TIP3    H142502   1.701   4.796   0.176 -1.9551 -1.4344  0.4213
 7029TIP3    H242503   1.779   4.732   0.063 -0.4700  0.0096  0.5966
 7030TIP3   OH242504   6.339   5.775   4.403  0.2385 -0.1153  0.5781
 7030TIP3    H142505   6.288   5.694   4.396 -0.1965  0.2132 -0.2310
 7030TIP3    H242506   6.393   5.775   4.324 -0.6493  0.9619 -0.0616
 7031TIP3   OH242507   1.272   4.179  10.912 -0.1366 -0.5369 -0.5043
 7031TIP3    H142508   1.280   4.098  10.862  2.6266 -0.6723  0.0207
 7031TIP3    H242509   1.357   4.223  10.901 -0.0445  0.2820  2.5768
 7032TIP3   OH242510   5.573   4.510   5.288 -0.1814  0.2065  0.2349
 7032TIP3    H142511   5.570   4.494   5.193  0.7438 -0.9688  0.3777
 7032TIP3    H242512   5.488   4.479   5.320 -0.3923  0.3573 -0.1660
 7033TIP3   OH242513   0.614   1.993   1.135 -0.7195  0.1302 -0.2939
 7033TIP3    H142514   0.588   2.083   1.119  2.0715  1.3003  1.0817
 7033TIP3    H242515   0.709   1.995   1.133 -0.5439 -2.5211  1.0682
 7034TIP3   OH242516   4.224   5.547   6.480  0.3558  0.2776  0.4773
 7034TIP3    H142517   4.242   5.630   6.524 -1.6241  0.4978  0.9808
 7034TIP3    H242518   4.129   5.546   6.470  0.5230 -0.9985 -1.4227
 7035TIP3   OH242519   6.022   5.406   4.964  0.3188  0.3993 -0.3126
 7035TIP3    H142520   6.117   5.404   4.956  0.1872  1.6199 -4.0815
 7035TIP3    H242521   6.000   5.498   4.979 -0.2999  0.3201 -0.6897
 7036TIP3   OH242522   0.269   1.229  15.594  0.7879 -0.5691 -0.3934
 7036TIP3    H142523   0.227   1.165  15.537 -0.3561 -0.8780  0.7265
 7036TIP3    H242524   0.281   1.307  15.540 -1.1553 -0.5225 -0.8266
 7037TIP3   OH242525   0.498   5.590  14.558  0.2476  0.0687  0.5622
 7037TIP3    H142526   0.431   5.540  14.512  0.4518  1.2210 -1.0492
 7037TIP3    H242527   0.534   5.528  14.622 -0.7979 -1.2432 -0.0841
 7038TIP3   OH242528   0.633   0.180   3.107 -0.3084  0.0752 -0.1256
 7038TIP3    H142529   0.714   0.178   3.057  0.4363 -1.8405  1.0659
 7038TIP3    H242530   0.567   0.212   3.044  1.0876  0.4223 -1.4794
 7039TIP3   OH242531   6.688   4.607   0.958 -0.1246  0.3306  0.7287
 7039TIP3    H142532   6.636   4.529   0.937  1.5515 -0.4412 -0.9100
 7039TIP3    H242533   6.778   4.574   0.963  0.3634  1.8071  2.2654
 7040TIP3   OH242534   6.042   2.484  15.917  0.1339 -0.2805  0.2139
 7040TIP3    H142535   6.053   2.430  15.839 -0.0262 -0.9292  0.6311
 7040TIP3    H242536   6.119   2.542  15.917  0.2634 -0.4485 -0.2864
 7041TIP3   OH242537   5.045   6.695   5.294 -0.1559 -0.2372 -0.1839
 7041TIP3    H142538   5.008   6.614   5.258 -2.2918  0.6496 -0.1285
 7041TIP3    H242539   4.991   6.764   5.258  0.6056  1.0606  1.0629
 7042TIP3   OH242540   2.215   1.189  14.682 -0.5746 -0.0408  0.0849
 7042TIP3    H142541   2.291   1.147  14.723 -1.0021 -1.6237 -0.6542
 7042TIP3    H242542   2.143   1.129  14.699 -1.5804  1.2166  0.3734
 7043TIP3   OH242543   0.417   1.694  14.170 -0.2180 -0.3689 -0.3260
 7043TIP3    H142544   0.359   1.747  14.116  0.1610  0.7997  0.3848
 7043TIP3    H242545   0.391   1.715  14.260  1.3547  0.2225  0.0048
 7044TIP3   OH242546   6.673   4.814  12.464  0.2096  0.4601  0.1073
 7044TIP3    H142547   6.581   4.830  12.486 -0.6949 -1.4433 -1.8538
 7044TIP3    H242548   6.683   4.848  12.375  1.0455 -0.4060 -0.1524
 7045TIP3   OH242549   4.562   4.983  13.722  0.4535  0.0151  0.1360
 7045TIP3    H142550   4.507   5.056  13.695  1.1957  0.7782  0.6130
 7045TIP3    H242551   4.551   4.917  13.653 -1.1407  0.0766  0.2974
 7046TIP3   OH242552   5.625   6.571  14.131 -0.4362 -0.0069 -0.2250
 7046TIP3    H142553   5.614   6.631  14.057 -0.5162  0.2619  0.0048
 7046TIP3    H242554   5.548   6.515  14.127 -0.9526  0.6587  0.2545
 7047TIP3   OH242555   5.672   3.217  16.512 -0.2018 -0.0956 -0.5986
 7047TIP3    H142556   5.724   3.252  16.440  0.2317  0.5285 -0.0106
 7047TIP3    H242557   5.682   3.282  16.582  1.0488 -1.6189  0.7279
 7048TIP3   OH242558   1.011   1.036  14.710 -0.2368 -0.0312  0.3465
 7048TIP3    H142559   0.974   0.982  14.780  2.6709  0.2585  2.2512
 7048TIP3    H242560   1.028   0.974  14.639 -0.9103 -0.8000  0.8426
 7049TIP3   OH242561   0.736   3.659  16.479  1.1240 -0.7135  0.3699
 7049TIP3    H142562   0.813   3.610  16.507  1.1593 -0.1694  1.2612
 7049TIP3    H242563   0.759   3.693  16.392  0.9588 -2.5448 -0.4269
 7050TIP3   OH242564   3.920   5.494  11.341  0.1711  0.1470  0.1441
 7050TIP3    H142565   3.933   5.582  11.377  0.2966  0.4103 -0.5244
 7050TIP3    H242566   3.944   5.502  11.249  0.0099 -0.5495  0.0333
 7051TIP3   OH242567   2.447   0.068   3.610 -0.2819  0.4616  0.3007
 7051TIP3    H142568   2.355   0.088   3.594 -0.8031 -0.4065  2.0158
 7051TIP3    H242569   2.464  -0.010   3.556 -0.7826  0.1373  0.6059
 7052TIP3   OH242570   3.638   2.077  14.137 -0.0408  0.4803 -0.1676
 7052TIP3    H142571   3.592   1.994  14.152 -0.4230  0.3789 -1.7261
 7052TIP3    H242572   3.569   2.137  14.107  0.1570  1.5066  1.3418
 7053TIP3   OH242573   3.350   1.704   5.737 -0.5638 -0.2145 -0.8176
 7053TIP3    H142574   3.335   1.625   5.685  0.5255 -1.0439  0.0981
 7053TIP3    H242575   3.412   1.755   5.686 -0.3023 -0.5401 -0.8266
 7054TIP3   OH242576   2.060   2.460  11.430  0.0334 -0.0353  0.2717
 7054TIP3    H142577   2.117   2.409  11.487  1.1614  0.4575 -0.3976
 7054TIP3    H242578   2.098   2.548  11.430 -2.1516  1.0085  1.8094
 7055TIP3   OH242579   5.531   1.863  16.225  0.0175 -0.0477  0.2779
 7055TIP3    H142580   5.619   1.830  16.247 -0.1668  0.2372  1.5566
 7055TIP3    H242581   5.510   1.922  16.297  0.4974  3.2772 -2.0740
 7056TIP3   OH242582   2.748   2.488  14.843 -0.2227 -0.5395  0.3652
 7056TIP3    H142583   2.664   2.535  14.844  0.1203  0.0861  0.7795
 7056TIP3    H242584   2.764   2.465  14.935  0.2167 -0.3586  0.3373
 7057TIP3   OH242585   1.925   3.469  15.885 -0.2589  0.0203 -0.7858
 7057TIP3    H142586   2.017   3.443  15.887  0.0025  0.8233 -1.8211
 7057TIP3    H242587   1.927   3.564  15.873 -1.2282 -0.0745 -1.8334
 7058TIP3   OH242588   5.795   6.476   2.597  0.4306 -0.4881  0.3487
 7058TIP3    H142589   5.874   6.511   2.638 -0.5788 -0.3542  2.3055
 7058TIP3    H242590   5.771   6.541   2.530  0.7285  0.6355  1.2983
 7059TIP3   OH242591   6.026   1.418  16.333 -0.1178 -0.8653 -0.0196
 7059TIP3    H142592   6.027   1.514  16.330 -1.2282 -0.7855  1.0774
 7059TIP3    H242593   6.000   1.391  16.245 -0.7194 -0.1172 -0.0831
 7060TIP3   OH242594   1.213   5.169   1.211  0.3052  0.0171  0.5343
 7060TIP3    H142595   1.167   5.149   1.130 -1.0024  1.3094  0.9291
 7060TIP3    H242596   1.247   5.258   1.199  0.0568  0.2456  1.4130
 7061TIP3   OH242597   0.378   2.815   0.906 -0.5247 -0.3397  0.0350
 7061TIP3    H142598   0.284   2.821   0.892 -0.3611 -2.0865 -2.4249
 7061TIP3    H242599   0.400   2.724   0.887  1.6380 -0.0534  0.8596
 7062TIP3   OH242600   6.537   0.689  15.067 -0.1303 -0.4222 -0.3688
 7062TIP3    H142601   6.460   0.633  15.063  0.1724 -0.7804 -2.3280
 7062TIP3    H242602   6.518   0.761  15.007 -1.1217  2.5166  3.1301
 7063TIP3   OH242603   2.514   4.424   3.137  0.1067 -0.1107  0.2474
 7063TIP3    H142604   2.482   4.464   3.218 -1.8532 -1.1187  0.0174
 7063TIP3    H242605   2.565   4.494   3.095  0.5394  0.6669  1.9643
 7064TIP3   OH242606   5.655   1.915   3.750 -0.3857 -0.2446 -0.1865
 7064TIP3    H142607   5.597   1.877   3.684 -1.0465  0.0106  0.2362
 7064TIP3    H242608   5.743   1.896   3.718 -0.6948 -0.2556 -1.0649
 7065TIP3   OH242609   5.905   2.455   3.965  1.0928 -0.3546  0.3689
 7065TIP3    H142610   5.865   2.434   4.049 -0.5371  0.2707 -0.2023
 7065TIP3    H242611   5.835   2.443   3.901  2.0279  0.0923 -0.7912
 7066TIP3   OH242612   6.174   0.530   5.808 -0.2425 -0.1628 -0.2404
 7066TIP3    H142613   6.201   0.475   5.734 -0.6888  0.5558 -0.9594
 7066TIP3    H242614   6.229   0.501   5.881  1.9073  0.6696 -1.4307
 7067TIP3   OH242615   5.438   0.479   0.882  0.3967  0.0761  1.1469
 7067TIP3    H142616   5.368   0.467   0.946 -0.8071  0.9194  0.0560
 7067TIP3    H242617   5.481   0.394   0.876 -0.9454 -0.6482  1.4006
 7068TIP3   OH242618   5.105   3.236   3.030  0.1004  0.5432 -0.1960
 7068TIP3    H142619   5.061   3.152   3.016  1.8601 -0.6719  1.0861
 7068TIP3    H242620   5.068   3.270   3.111 -0.2760  0.7958 -0.4689
 7069TIP3   OH242621   5.599   4.983  15.142 -0.1396 -0.1828  0.2603
 7069TIP3    H142622   5.642   5.037  15.209 -1.4124 -0.7964  1.6219
 7069TIP3    H242623   5.544   4.922  15.191  2.2060 -3.7087 -1.1148
 7070TIP3   OH242624   1.167   3.981   3.099  0.1919  0.1995 -0.4964
 7070TIP3    H142625   1.144   4.068   3.065  2.1802  1.7797  1.8995
 7070TIP3    H242626   1.085   3.947   3.135  0.0454  2.8133  1.9579
 7071TIP3   OH242627   0.165   6.087  11.990 -0.1338  0.1042 -1.1170
 7071TIP3    H142628   0.105   6.108  11.918 -1.2111 -1.4302 -0.7213
 7071TIP3    H242629   0.111   6.039  12.053  1.2749 -0.3993 -0.2428
 7072TIP3   OH242630   6.733   1.866   1.794 -0.1440 -0.5188  0.0606
 7072TIP3    H142631   6.716   1.895   1.704 -1.9867 -0.1577  0.4941
 7072TIP3    H242632   6.733   1.770   1.788  0.1843 -0.4942 -0.3948
 7073TIP3   OH242633   6.101   0.375   3.641  0.4606  0.4361  0.4838
 7073TIP3    H142634   6.109   0.324   3.561  0.0254  0.0349  0.6970
 7073TIP3    H242635   6.031   0.438   3.622  0.7697  0.7465  0.3408
 7074TIP3   OH242636   2.192   5.467  12.611 -0.7594  0.0651 -0.1199
 7074TIP3    H142637   2.137   5.438  12.537  1.4402 -2.1847 -1.0248
 7074TIP3    H242638   2.263   5.403  12.614  0.2472  1.1650  2.8388
 7075TIP3   OH242639   6.753   5.479  13.653 -0.0122  0.9466 -0.3450
 7075TIP3    H142640   6.709   5.415  13.598 -0.5445  1.3034 -0.3462
 7075TIP3    H242641   6.843   5.482  13.619  0.5161 -1.0087  0.7284
 7076TIP3   OH242642   4.868   5.552   3.018 -0.0669  0.2995 -0.4992
 7076TIP3    H142643   4.937   5.546   3.085  0.7016 -1.6023 -1.4017
 7076TIP3    H242644   4.799   5.494   3.049 -1.1352  1.8336  0.1575
 7077TIP3   OH242645   6.316   0.403  14.741 -0.1670  0.4683 -0.0634
 7077TIP3    H142646   6.328   0.372  14.651  0.6721  0.6460 -0.0163
 7077TIP3    H242647   6.221   0.400  14.754 -0.2769  0.1604 -0.8540
 7078TIP3   OH242648   2.966   0.799  10.974 -0.1546 -0.1586  0.4484
 7078TIP3    H142649   2.994   0.823  11.062  0.4147  0.4803  0.0990
 7078TIP3    H242650   2.913   0.873  10.944  0.1133 -0.1249  0.0483
 7079TIP3   OH242651   1.742   2.403  12.787  0.2560  0.5411 -0.0384
 7079TIP3    H142652   1.665   2.458  12.771 -0.6740 -0.0358  2.1834
 7079TIP3    H242653   1.777   2.385  12.699 -0.6921  2.8203 -0.9418
 7080TIP3   OH242654   1.153   6.018   5.897  0.0775 -0.0432  0.3078
 7080TIP3    H142655   1.166   6.109   5.925  5.3364 -0.8141  1.3463
 7080TIP3    H242656   1.144   5.969   5.978  0.5969 -0.7728 -0.0678
 7081TIP3   OH242657   4.205   4.268  10.499 -0.3743 -0.5292 -0.3658
 7081TIP3    H142658   4.241   4.275  10.410  1.3953  0.0270  0.3507
 7081TIP3    H242659   4.271   4.220  10.548 -1.8226 -1.8103  0.4388
 7082TIP3   OH242660   3.355   2.940   0.574  0.3924 -0.1401 -0.5282
 7082TIP3    H142661   3.397   3.023   0.551 -0.3274  0.6572  0.9247
 7082TIP3    H242662   3.395   2.915   0.657 -0.2025 -0.6604 -0.3889
 7083TIP3   OH242663   6.247   2.917  15.491 -0.3286 -0.0716  0.2268
 7083TIP3    H142664   6.280   2.953  15.409  2.1195 -0.6431  0.8751
 7083TIP3    H242665   6.205   2.991  15.534 -0.8618  0.4476 -1.1306
 7084TIP3   OH242666   3.194   3.900   1.575 -0.0058  0.1873 -0.6661
 7084TIP3    H142667   3.109   3.876   1.613  0.0847 -1.3643 -1.3685
 7084TIP3    H242668   3.258   3.869   1.638  0.1351 -2.1635 -1.8511
 7085TIP3   OH242669   4.297   1.468  14.743  0.0793  0.3668 -0.3386
 7085TIP3    H142670   4.263   1.402  14.682  1.2806 -0.3067 -0.3188
 7085TIP3    H242671   4.224   1.487  14.801 -0.4184 -0.6421 -0.6089
 7086TIP3   OH242672   6.656   4.751  14.742  0.3650  0.0067 -0.2982
 7086TIP3    H142673   6.577   4.779  14.695 -0.5221 -0.9098  0.5677
 7086TIP3    H242674   6.622   4.696  14.813  1.5692  1.8422  1.8276
 7087TIP3   OH242675   3.784   0.877   2.585  0.0118 -0.4501  0.1567
 7087TIP3    H142676   3.716   0.838   2.640 -1.1069  2.6354  1.1921
 7087TIP3    H242677   3.755   0.967   2.571  2.0126 -0.0924 -2.6555
 7088TIP3   OH242678   0.859   6.684   2.160 -1.1766 -0.5415  0.0242
 7088TIP3    H142679   0.938   6.702   2.211 -0.1244  1.4263 -2.1017
 7088TIP3    H242680   0.791   6.739   2.199 -0.4980  0.5976 -0.3477
 7089TIP3   OH242681   4.464   6.643   2.346 -0.3454 -0.1752 -0.4269
 7089TIP3    H142682   4.553   6.675   2.330  0.2561 -1.5477  0.0611
 7089TIP3    H242683   4.450   6.658   2.440 -0.9046  0.6527 -0.6287
 7090TIP3   OH242684   5.978   0.727  14.797 -0.4019  0.8806 -0.3960
 7090TIP3    H142685   5.988   0.774  14.879 -1.6929 -0.8918  0.8662
 7090TIP3    H242686   5.883   0.713  14.789 -0.0874 -1.4810 -0.6518
 7091TIP3   OH242687   3.548   5.070   2.056  0.1221  0.3715 -0.4336
 7091TIP3    H142688   3.529   4.997   2.115  0.6031 -0.0518 -0.7945
 7091TIP3    H242689   3.544   5.032   1.969 -0.4963  0.9774 -0.6826
 7092TIP3   OH242690   0.077   0.024   5.124 -0.0601  0.0496  0.2523
 7092TIP3    H142691   0.059  -0.070   5.124  0.4729 -0.0767  1.6242
 7092TIP3    H242692   0.169   0.031   5.152 -0.1686  0.9869  0.4033
 7093TIP3   OH242693   1.578   2.795  12.492 -0.0263  0.2890  0.2379
 7093TIP3    H142694   1.662   2.836  12.473  0.5483 -1.4232 -1.2224
 7093TIP3    H242695   1.552   2.754  12.409 -1.9444  0.1525  0.8549
 7094TIP3   OH242696   5.471   5.995  14.480 -0.0801  0.3430  0.5908
 7094TIP3    H142697   5.411   6.015  14.409 -0.0407  1.2189  0.7976
 7094TIP3    H242698   5.416   5.990  14.558 -0.2434 -1.4003  0.4145
 7095TIP3   OH242699   2.615   3.837   1.316 -0.5274  0.3693  0.2036
 7095TIP3    H142700   2.578   3.915   1.276  0.3806  1.3205  1.1700
 7095TIP3    H242701   2.609   3.853   1.410  4.5755  1.8460  0.6013
 7096TIP3   OH242702   3.734   0.138   3.848  0.3408 -0.1703  0.1195
 7096TIP3    H142703   3.659   0.106   3.798  0.1188 -1.0271  0.9658
 7096TIP3    H242704   3.778   0.199   3.789 -0.0159 -1.0037 -1.0539
 7097TIP3   OH242705   2.284   3.034   0.525  0.8371  0.4799  0.0290
 7097TIP3    H142706   2.242   3.014   0.441  0.5506 -1.7372  0.6290
 7097TIP3    H242707   2.292   2.949   0.568  3.8526  1.1314  0.9482
 7098TIP3   OH242708   3.982   1.673  11.436 -0.1102 -0.2125 -0.6419
 7098TIP3    H142709   3.957   1.733  11.366 -1.0237  0.0823 -0.0797
 7098TIP3    H242710   4.059   1.713  11.476 -0.4816  0.3935 -0.5191
 7099TIP3   OH242711   4.068   2.784  13.878  0.0952  0.4372 -0.0455
 7099TIP3    H142712   4.102   2.800  13.966 -0.4146  0.1698  0.2031
 7099TIP3    H242713   4.119   2.710  13.846  0.4536  0.6922 -0.0761
 7100TIP3   OH242714   5.600   2.289   1.033  0.4101  0.7084  0.3372
 7100TIP3    H142715   5.625   2.375   1.065  0.0091  0.9365  0.0398
 7100TIP3    H242716   5.512   2.274   1.067  0.4376  0.4618  0.3044
 7101TIP3   OH242717   1.877   4.346  13.914  0.1156  0.5068  0.1227
 7101TIP3    H142718   1.806   4.375  13.857 -0.4586 -2.5311 -0.8752
 7101TIP3    H242719   1.835   4.331  13.998  0.2594  1.6416  0.4183
 7102TIP3   OH242720   0.542   5.642  13.143  0.0118  0.0228 -0.3931
 7102TIP3    H142721   0.487   5.610  13.215  1.4471  0.4508  0.9542
 7102TIP3    H242722   0.525   5.736  13.139  2.3518  0.6539  1.7228
 7103TIP3   OH242723   3.778   2.199   5.619  0.3103  0.2366  0.0238
 7103TIP3    H142724   3.800   2.122   5.671 -2.0870 -0.6474 -0.1900
 7103TIP3    H242725   3.794   2.172   5.529 -2.2962 -0.7630 -0.2234
 7104TIP3   OH242726   4.147   6.273  14.913  0.4835 -0.0148  0.0058
 7104TIP3    H142727   4.242   6.275  14.927  0.6364 -1.4401 -0.6320
 7104TIP3    H242728   4.114   6.211  14.978  0.2098 -0.7143 -0.7739
 7105TIP3   OH242729   5.333   5.013   6.728 -0.3618 -0.1443  0.3965
 7105TIP3    H142730   5.284   4.937   6.757  1.2234 -1.5253 -0.3517
 7105TIP3    H242731   5.354   5.060   6.808 -2.0089 -0.0515  0.8013
 7106TIP3   OH242732   6.566   5.059  16.774 -0.1491  0.2247  0.2431
 7106TIP3    H142733   6.484   5.108  16.767 -0.5095 -0.4223 -0.2694
 7106TIP3    H242734   6.549   4.993  16.842 -1.2113 -2.0005 -2.0275
 7107TIP3   OH242735   2.165   1.346   5.443 -0.1348 -0.1627  0.6823
 7107TIP3    H142736   2.185   1.396   5.365 -1.0056 -0.8833 -0.0232
 7107TIP3    H242737   2.184   1.255   5.419 -2.0690 -0.6072  0.6922
 7108TIP3   OH242738   0.955   3.757  16.048 -0.2372  0.2744 -0.2696
 7108TIP3    H142739   1.003   3.682  16.083  0.0662  1.3370  1.7607
 7108TIP3    H242740   0.865   3.725  16.038  0.1699 -0.7518 -0.8218
 7109TIP3   OH242741   3.379   6.498   6.351 -0.3633 -0.0758 -0.3384
 7109TIP3    H142742   3.399   6.485   6.444  0.2653  2.0104 -0.1356
 7109TIP3    H242743   3.449   6.554   6.319 -0.6891 -0.5891 -2.0430
 7110TIP3   OH242744   4.643   4.172   5.319 -0.3451  0.1570 -0.5923
 7110TIP3    H142745   4.628   4.077   5.313 -0.2679  0.1375 -0.4817
 7110TIP3    H242746   4.672   4.197   5.231 -1.9447  0.3623 -1.1010
 7111TIP3   OH242747   2.605   3.808  12.395  0.1547  0.0162 -0.1350
 7111TIP3    H142748   2.693   3.810  12.433  0.2813 -1.9902 -0.2043
 7111TIP3    H242749   2.606   3.733  12.335 -1.1318  0.9379 -1.3973
 7112TIP3   OH242750   3.279   0.681   3.596  0.2516 -0.5277  0.2161
 7112TIP3    H142751   3.336   0.754   3.573 -1.7571  1.1257  0.1674
 7112TIP3    H242752   3.208   0.684   3.532  0.4400 -3.0032 -0.2176
 7113TIP3   OH242753   5.916   4.963   5.820 -0.3045  0.1058 -0.4966
 7113TIP3    H142754   5.867   4.917   5.888 -0.0348 -0.4190 -0.6542
 7113TIP3    H242755   5.971   4.896   5.780  0.3166  0.6242 -0.5328
 7114TIP3   OH242756   0.853   2.187   3.517 -0.5218 -0.2619 -0.0285
 7114TIP3    H142757   0.819   2.143   3.439  0.5818 -2.4462  0.6240
 7114TIP3    H242758   0.948   2.180   3.508 -0.3528  0.8929  0.7517
 7115TIP3   OH242759   4.766   5.356  16.428  0.1655  0.4824  0.3433
 7115TIP3    H142760   4.674   5.352  16.402  0.8258  0.7520 -2.2867
 7115TIP3    H242761   4.781   5.276  16.477 -0.8221 -1.0438 -1.7088
 7116TIP3   OH242762   2.764   3.045  13.962  0.2245  0.6662  0.4227
 7116TIP3    H142763   2.800   3.133  13.946  0.1371  0.6156 -0.0683
 7116TIP3    H242764   2.771   3.001  13.878 -1.5763  0.8674  0.1270
 7117TIP3   OH242765   5.849   0.110  12.272  0.2023 -0.0836 -0.0443
 7117TIP3    H142766   5.826   0.079  12.360  0.1777 -0.4421 -0.1770
 7117TIP3    H242767   5.766   0.139  12.235 -0.5380 -3.3606 -1.3291
 7118TIP3   OH242768   1.801   1.225  16.437  0.5023 -0.2411  0.1805
 7118TIP3    H142769   1.830   1.311  16.468  1.0641 -0.6426  0.7740
 7118TIP3    H242770   1.836   1.219  16.348 -0.0431  0.3838 -0.0890
 7119TIP3   OH242771   6.112   3.108  14.553 -0.4053 -0.7240  0.2562
 7119TIP3    H142772   6.099   3.120  14.459  0.4589 -0.2790  0.1829
 7119TIP3    H242773   6.150   3.021  14.561  0.7288 -0.2666  0.0609
 7120TIP3   OH242774   1.186   2.438   1.737 -0.2756 -0.2389  0.4430
 7120TIP3    H142775   1.155   2.349   1.755 -0.3531 -0.2871  0.0683
 7120TIP3    H242776   1.271   2.442   1.780  0.6104 -1.1350 -1.1219
 7121TIP3   OH242777   0.641   4.646   4.455 -0.8897  0.5201 -0.6029
 7121TIP3    H142778   0.562   4.595   4.440 -0.4882 -0.3540  0.1571
 7121TIP3    H242779   0.615   4.711   4.521 -1.1602  0.7124 -0.8969
 7122TIP3   OH242780   3.507   6.477  15.671 -0.0005  0.0974  0.0237
 7122TIP3    H142781   3.516   6.570  15.653  0.6480  0.0009 -0.1787
 7122TIP3    H242782   3.575   6.435  15.618 -0.8499 -0.5740 -0.5700
 7123TIP3   OH242783   2.615   1.394  15.720 -0.2289  0.3902 -0.5646
 7123TIP3    H142784   2.621   1.323  15.784 -0.0448 -0.1005 -1.1258
 7123TIP3    H242785   2.704   1.427  15.712 -0.0576 -0.2328 -1.3342
 7124TIP3   OH242786   6.486   5.855  12.580  0.6548 -0.6504 -0.0679
 7124TIP3    H142787   6.408   5.876  12.528 -0.0552 -0.7873  0.9205
 7124TIP3    H242788   6.494   5.760  12.574  0.8209 -0.6263 -0.2593
 7125TIP3   OH242789   5.188   4.684  14.110 -0.5715 -0.2678  0.0620
 7125TIP3    H142790   5.128   4.694  14.036 -1.3838 -0.1938  0.7090
 7125TIP3    H242791   5.241   4.763  14.108 -1.0876  0.0851 -0.0180
 7126TIP3   OH242792   2.765   1.312   1.843 -0.3446 -0.2593 -0.8774
 7126TIP3    H142793   2.729   1.338   1.928 -0.7115 -1.5330 -0.6297
 7126TIP3    H242794   2.857   1.292   1.861 -0.8025 -2.0950 -0.4228
 7127TIP3   OH242795   0.031   2.531  13.822 -0.0771 -0.3398 -0.2429
 7127TIP3    H142796  -0.061   2.508  13.809  0.2682 -1.6001 -0.6522
 7127TIP3    H242797   0.071   2.519  13.736  0.5583 -0.2450  0.0327
 7128TIP3   OH242798   2.127   4.441   5.701 -0.0759 -0.0727 -0.5927
 7128TIP3    H142799   2.115   4.535   5.718  0.4680  0.0966 -1.1039
 7128TIP3    H242800   2.079   4.398   5.772  2.8780  0.5745  2.0328
 7129TIP3   OH242801   4.926   2.328  13.002  0.1481 -0.8635 -0.3364
 7129TIP3    H142802   4.949   2.235  12.993 -0.3786 -0.9286 -1.2545
 7129TIP3    H242803   4.883   2.349  12.919 -0.0044  0.1283 -0.0167
 7130TIP3   OH242804   6.715   1.590   3.829  0.0948  0.3191 -0.4605
 7130TIP3    H142805   6.724   1.677   3.868 -1.1330 -0.0653  0.7704
 7130TIP3    H242806   6.622   1.568   3.841  0.7257 -1.8789  0.8525
 7131TIP3   OH242807   2.181   2.176   5.392  0.0747 -0.3483  0.1815
 7131TIP3    H142808   2.146   2.125   5.465 -1.0367  0.3505  0.1518
 7131TIP3    H242809   2.211   2.258   5.432 -0.4248 -0.0132 -0.1255
 7132TIP3   OH242810   1.310   0.082  11.568 -0.0107  0.4667  0.3253
 7132TIP3    H142811   1.403   0.106  11.573  0.3172 -0.5506 -0.3503
 7132TIP3    H242812   1.277   0.127  11.490  0.2491 -0.1407 -0.1481
 7133TIP3   OH242813   3.586   2.187  14.486 -0.2213 -0.1856  0.1480
 7133TIP3    H142814   3.540   2.172  14.403 -0.7580  0.1986  0.3721
 7133TIP3    H242815   3.538   2.133  14.549  0.2618 -0.5760  0.1951
 7134TIP3   OH242816   6.014   3.917  15.235  0.3366 -0.2810  0.1686
 7134TIP3    H142817   6.101   3.919  15.276  0.1616 -0.1897  0.5383
 7134TIP3    H242818   5.993   3.824  15.231  0.3141 -0.2862  0.3766
 7135TIP3   OH242819   2.614   1.541  13.612  0.2766 -0.2163 -0.2027
 7135TIP3    H142820   2.538   1.483  13.611  0.7796 -0.8800 -0.1641
 7135TIP3    H242821   2.578   1.627  13.590 -0.1952 -0.8997 -2.4211
 7136TIP3   OH242822   6.084   3.519  12.805 -0.1417  0.0278  0.3871
 7136TIP3    H142823   6.141   3.459  12.757  0.8949 -0.8936  2.6347
 7136TIP3    H242824   6.033   3.463  12.863 -3.1543  0.8742 -1.2465
 7137TIP3   OH242825   5.859   3.698   4.360  0.2650  0.6882 -0.0449
 7137TIP3    H142826   5.881   3.766   4.423  1.1629  1.8398 -1.5339
 7137TIP3    H242827   5.811   3.744   4.291  0.8021 -0.1932 -1.0382
 7138TIP3   OH242828   5.626   4.528   3.089 -0.1059 -0.2029  0.1533
 7138TIP3    H142829   5.644   4.566   3.003  0.3931 -0.1798  0.2636
 7138TIP3    H242830   5.708   4.538   3.137 -0.7749  1.0581  1.1040
 7139TIP3   OH242831   1.567   1.313  16.863  0.1169 -0.1189 -0.0739
 7139TIP3    H142832   1.575   1.408  16.873  1.3433  0.0648 -2.1202
 7139TIP3    H242833   1.588   1.297  16.771  1.7519 -2.5636  0.6237
 7140TIP3   OH242834   6.298   0.284   4.451  0.6891 -0.2400 -0.5388
 7140TIP3    H142835   6.345   0.327   4.380  2.2164 -1.1436 -0.1304
 7140TIP3    H242836   6.249   0.354   4.494  0.6086  0.4980 -1.7996
 7141TIP3   OH242837   4.456   6.448   2.864 -0.1341 -0.0671 -0.1622
 7141TIP3    H142838   4.539   6.481   2.830 -0.8161  1.8676 -0.0920
 7141TIP3    H242839   4.481   6.375   2.922  1.6551  1.3161  0.9352
 7142TIP3   OH242840   4.395   5.655  15.616  0.4871  0.3069 -0.6166
 7142TIP3    H142841   4.414   5.582  15.556  0.4520 -0.7722  0.6325
 7142TIP3    H242842   4.344   5.615  15.686  1.6214  1.2313  0.8027
 7143TIP3   OH242843   3.953   6.099   2.086  0.3236  0.4203  0.5235
 7143TIP3    H142844   3.991   6.107   1.999 -1.1745  0.5978 -0.1417
 7143TIP3    H242845   3.870   6.145   2.080  0.2758  0.5897  2.1125
 7144TIP3   OH242846   6.698   5.353   1.130 -0.0933 -0.3458 -0.3373
 7144TIP3    H142847   6.787   5.338   1.097 -0.1641 -1.1830 -0.1697
 7144TIP3    H242848   6.646   5.284   1.090 -1.0860  1.2832 -1.9890
 7145TIP3   OH242849   1.787   0.130   4.365 -0.2221 -0.2783  0.4096
 7145TIP3    H142850   1.842   0.056   4.340  0.9067  0.9806 -1.0222
 7145TIP3    H242851   1.845   0.185   4.419 -0.1089  0.9152 -0.8707
 7146TIP3   OH242852   4.653   0.632   1.124  0.3035  0.1131 -0.4710
 7146TIP3    H142853   4.686   0.587   1.047  1.0409 -0.0718 -0.0571
 7146TIP3    H242854   4.701   0.593   1.197  0.8285  1.4396 -0.0845
 7147TIP3   OH242855   3.042   2.532   1.587  0.3624 -0.2217  0.9470
 7147TIP3    H142856   3.020   2.593   1.516  0.4596 -0.0385  1.0748
 7147TIP3    H242857   2.957   2.506   1.622  0.3190 -0.1882  0.8682
 7148TIP3   OH242858   0.769   0.764  16.051 -0.0612  0.4035  0.1249
 7148TIP3    H142859   0.680   0.748  16.021  0.0748  0.1716 -0.1607
 7148TIP3    H242860   0.819   0.780  15.971  0.0444  1.0820  0.3196
 7149TIP3   OH242861   2.299   0.725  14.385  0.4778 -0.2605  0.2618
 7149TIP3    H142862   2.211   0.737  14.349 -0.1898 -1.6682  1.3389
 7149TIP3    H242863   2.288   0.661  14.455  2.5790 -1.5516 -0.4850
 7150TIP3   OH242864   2.217   2.982  13.376  0.1613 -0.2104 -0.2168
 7150TIP3    H142865   2.163   2.910  13.345 -0.2139 -0.1005  0.1772
 7150TIP3    H242866   2.162   3.060  13.365  0.6093  0.0397 -0.7582
 7151TIP3   OH242867   2.629   4.164   5.996  0.0540  0.1137  0.1864
 7151TIP3    H142868   2.634   4.259   5.991 -1.6301  0.3323  1.8482
 7151TIP3    H242869   2.653   4.143   6.086  0.2498 -1.0496 -0.1120
 7152TIP3   OH242870   2.180   0.122   1.680 -0.5610 -0.5973 -0.0675
 7152TIP3    H142871   2.219   0.099   1.595 -0.7299  1.3516 -0.7142
 7152TIP3    H242872   2.199   0.046   1.735  0.4879 -1.4747 -1.5361
 7153TIP3   OH242873   2.839   1.649  14.108  0.4652 -0.0662  1.0205
 7153TIP3    H142874   2.802   1.561  14.109 -0.2342  0.2265  1.3113
 7153TIP3    H242875   2.927   1.638  14.146  0.7318 -0.7749  0.2400
 7154TIP3   OH242876   2.006   1.742   0.895 -0.1960 -0.1050 -0.0770
 7154TIP3    H142877   2.023   1.715   0.985  0.1944  0.1727 -0.0634
 7154TIP3    H242878   2.079   1.800   0.874 -1.5075  1.7478  0.2427
 7155TIP3   OH242879   5.050   0.294   0.920  0.1355  0.0518  0.1963
 7155TIP3    H142880   5.038   0.328   0.831  0.7936 -2.3628 -0.9326
 7155TIP3    H242881   4.973   0.237   0.934  0.1775  0.1978  1.0628
 7156TIP3   OH242882   1.542   2.193  12.080 -0.3631 -0.1777  0.0081
 7156TIP3    H142883   1.536   2.267  12.019 -1.8279  1.7458  2.3407
 7156TIP3    H242884   1.626   2.153  12.059  0.6320  2.2918 -1.1934
 7157TIP3   OH242885   1.810   6.750   4.954 -0.2575  1.1207 -0.4601
 7157TIP3    H142886   1.740   6.793   4.904 -1.0881 -1.1723 -1.4148
 7157TIP3    H242887   1.826   6.809   5.028 -4.1515  1.1840  0.5829
 7158TIP3   OH242888   6.084   1.017   2.911 -0.2825  0.4913 -0.3367
 7158TIP3    H142889   6.055   0.966   2.835 -0.1830  0.3380 -0.2722
 7158TIP3    H242890   6.170   1.050   2.885  0.5319 -0.9778  0.3539
 7159TIP3   OH242891   1.686   6.580  16.078  0.4547  0.1989  0.8211
 7159TIP3    H142892   1.742   6.601  16.003  0.0930 -2.2628 -0.2489
 7159TIP3    H242893   1.642   6.663  16.100  0.1421  0.9077 -2.0737
 7160TIP3   OH242894   5.289   0.489   0.369  0.2346  0.2690 -0.4192
 7160TIP3    H142895   5.245   0.412   0.333  0.3997  0.3977 -0.9134
 7160TIP3    H242896   5.320   0.461   0.455  0.8714 -0.4424 -0.8597
 7161TIP3   OH242897   2.066   4.364  16.135  0.0072  0.1388  0.2144
 7161TIP3    H142898   2.048   4.321  16.052  0.3676 -1.5019  0.9584
 7161TIP3    H242899   2.032   4.453  16.123 -0.1028 -0.1108 -1.6126
 7162TIP3   OH242900   4.693   4.221   0.775  0.2763 -0.0414 -0.3750
 7162TIP3    H142901   4.692   4.130   0.744  0.4757  0.3625 -1.6115
 7162TIP3    H242902   4.739   4.269   0.707 -0.7827  1.1816 -0.2578
 7163TIP3   OH242903   1.548   4.175   2.380 -0.0293  0.1046  0.4925
 7163TIP3    H142904   1.630   4.202   2.338 -0.3973  0.3224 -0.1023
 7163TIP3    H242905   1.493   4.144   2.307 -0.4700 -0.0548  0.8875
 7164TIP3   OH242906   5.816   6.108   5.865 -0.3704 -0.4655  0.2392
 7164TIP3    H142907   5.788   6.194   5.897 -0.7941 -0.2978 -0.5548
 7164TIP3    H242908   5.809   6.050   5.941 -0.4943  0.1139  0.6705
 7165TIP3   OH242909   0.439   6.700   0.586 -0.0155 -0.5799  0.3013
 7165TIP3    H142910   0.426   6.770   0.650 -0.7930 -1.9341  1.6832
 7165TIP3    H242911   0.375   6.718   0.517  1.2101  1.2148 -0.4486
 7166TIP3   OH242912   4.144   6.112  11.976 -0.3299  0.2297 -0.0341
 7166TIP3    H142913   4.226   6.100  12.025  0.3047  0.4232 -1.0074
 7166TIP3    H242914   4.088   6.041  12.006  0.1369  0.1941  0.7794
 7167TIP3   OH242915   5.268   5.911   0.744  0.4241 -0.0470 -0.0133
 7167TIP3    H142916   5.206   5.843   0.718  0.7691 -0.5856  0.5333
 7167TIP3    H242917   5.254   5.983   0.682 -0.6512 -0.2148  0.0248
 7168TIP3   OH242918   5.795   4.933  12.615 -0.3195  0.5465 -0.5562
 7168TIP3    H142919   5.785   4.840  12.598 -0.0178  0.4530 -0.2281
 7168TIP3    H242920   5.783   4.942  12.710 -1.7021  1.0220 -0.7472
 7169TIP3   OH242921   6.150   0.322  16.591 -0.7204  0.1645 -0.4507
 7169TIP3    H142922   6.121   0.266  16.519 -0.0812 -0.9068  0.0989
 7169TIP3    H242923   6.238   0.351  16.564  0.5434 -2.1327  0.8538
 7170TIP3   OH242924   5.178   3.368  12.118 -0.3128  0.4843 -0.8691
 7170TIP3    H142925   5.207   3.385  12.207  0.6231 -1.2956 -0.7807
 7170TIP3    H242926   5.217   3.438  12.066  0.9290  0.3275 -0.1733
 7171TIP3   OH242927   3.424   2.566   1.549  0.0181 -0.0647 -0.2645
 7171TIP3    H142928   3.420   2.581   1.454 -1.5880  0.6550 -0.1111
 7171TIP3    H242929   3.390   2.647   1.588  0.7391 -0.3180  0.9428
 7172TIP3   OH242930   3.853   1.328   2.115  0.2902 -0.7695 -0.0974
 7172TIP3    H142931   3.868   1.381   2.036  0.7767 -0.2411  0.3434
 7172TIP3    H242932   3.930   1.272   2.121  0.7770 -0.0473  0.5944
 7173TIP3   OH242933   3.578   3.189   5.756 -0.4368 -0.3507  0.0447
 7173TIP3    H142934   3.613   3.132   5.825  0.9841  1.1191  0.6129
 7173TIP3    H242935   3.584   3.137   5.676 -3.6848 -2.7414  1.1431
 7174TIP3   OH242936   4.042   4.039  13.144 -0.7313  0.0680 -0.4637
 7174TIP3    H142937   4.111   3.992  13.191 -1.4243 -0.7309 -0.2170
 7174TIP3    H242938   4.031   3.990  13.062 -2.4189 -1.1086  0.3914
 7175TIP3   OH242939   3.960   0.775  15.820  0.4599 -0.2349  0.1409
 7175TIP3    H142940   3.930   0.750  15.733  0.0172  0.2663  0.1431
 7175TIP3    H242941   3.882   0.809  15.863  1.1562  1.7823 -0.0935
 7176TIP3   OH242942   5.610   5.049   6.238 -0.0351 -0.8529 -0.6795
 7176TIP3    H142943   5.550   5.112   6.279 -0.7864 -1.6071 -0.5936
 7176TIP3    H242944   5.580   5.042   6.148 -2.9050 -4.3897  0.3069
 7177TIP3   OH242945   6.606   4.767   4.370 -0.4394  0.1024  0.0714
 7177TIP3    H142946   6.526   4.767   4.317 -0.7062 -1.2056  0.4558
 7177TIP3    H242947   6.636   4.858   4.367 -3.3237  1.2630  2.0176
 7178TIP3   OH242948   4.094   6.706  14.232  0.2744 -0.1060 -0.1346
 7178TIP3    H142949   4.178   6.684  14.274  0.0844  0.2607  0.4565
 7178TIP3    H242950   4.066   6.625  14.191  0.2786 -0.5979  0.7969
 7179TIP3   OH242951   0.469   3.632   0.678  0.0597  0.2285  0.3366
 7179TIP3    H142952   0.548   3.613   0.628 -0.4122  0.1753 -0.4111
 7179TIP3    H242953   0.415   3.685   0.618 -0.4138  0.3712  0.8796
 7180TIP3   OH242954   3.870   0.806  12.769 -0.2978  0.0484  0.2448
 7180TIP3    H142955   3.923   0.876  12.730  0.5232 -0.7765 -0.1628
 7180TIP3    H242956   3.872   0.823  12.863  0.2556  0.3337  0.1877
 7181TIP3   OH242957   1.960   3.255   3.489  0.0732  0.2773  0.3026
 7181TIP3    H142958   2.028   3.188   3.488 -2.1499 -2.1342  0.3601
 7181TIP3    H242959   1.946   3.276   3.397  2.5933  2.8401  0.3394
 7182TIP3   OH242960   4.933   0.539  12.804  0.2662 -0.4625  0.2220
 7182TIP3    H142961   4.921   0.630  12.777  2.0652 -0.7361 -1.7545
 7182TIP3    H242962   4.980   0.544  12.887  2.6749  0.4959 -1.1013
 7183TIP3   OH242963   1.549   3.356  11.980 -0.3254  0.0305 -0.4020
 7183TIP3    H142964   1.533   3.269  11.944  0.2284  0.2065 -1.0969
 7183TIP3    H242965   1.462   3.394  11.991 -0.5385 -0.3465 -0.7519
 7184TIP3   OH242966   0.565   1.401  16.238 -0.1608 -0.4696  0.2632
 7184TIP3    H142967   0.541   1.336  16.172  0.6229 -0.7909  0.2850
 7184TIP3    H242968   0.605   1.472  16.187 -1.4390  0.2249  0.1879
 7185TIP3   OH242969   2.097   4.092  14.134  0.6050  0.4672  0.0899
 7185TIP3    H142970   2.159   4.046  14.190 -0.6391 -0.7044  0.5496
 7185TIP3    H242971   2.012   4.078  14.175 -0.5237 -1.3956 -2.6010
 7186TIP3   OH242972   4.159   6.375   5.893 -0.0799 -0.1112  0.5890
 7186TIP3    H142973   4.143   6.412   5.980  1.7517  1.3759  0.3633
 7186TIP3    H242974   4.209   6.295   5.910  0.8016  0.4948  0.9079
 7187TIP3   OH242975   5.108   0.274   0.630 -0.6984 -0.5676  0.4681
 7187TIP3    H142976   5.152   0.359   0.624  0.5194 -1.1330  0.9932
 7187TIP3    H242977   5.123   0.234   0.543 -1.9208  0.0405 -0.0384
 7188TIP3   OH242978   1.728   2.693   5.168 -0.1004  0.7394  0.1904
 7188TIP3    H142979   1.727   2.654   5.081 -2.3658  2.4107 -0.6028
 7188TIP3    H242980   1.673   2.635   5.221 -0.0355  0.6017  0.1072
 7189TIP3   OH242981   5.962   0.108   0.602 -0.5175 -0.6496 -0.3605
 7189TIP3    H142982   5.970   0.013   0.601 -1.0154 -0.6991  0.1283
 7189TIP3    H242983   6.052   0.140   0.611 -0.4211 -1.0919  0.2860
 7190TIP3   OH242984   5.649   3.112   4.527  0.3401  0.6184  0.1197
 7190TIP3    H142985   5.593   3.087   4.599 -0.5082  0.0999 -0.7025
 7190TIP3    H242986   5.721   3.160   4.568 -1.1990  2.2035  1.1114
 7191TIP3   OH242987   4.233   2.186  11.892 -0.2946  0.2794  0.2000
 7191TIP3    H142988   4.327   2.208  11.893 -0.4975  1.3899  2.7318
 7191TIP3    H242989   4.191   2.265  11.860 -0.4060 -0.0554 -0.4869
 7192TIP3   OH242990   4.289   1.986   2.316  0.2139 -0.1812  0.0961
 7192TIP3    H142991   4.202   1.981   2.355  1.1397  1.0155  2.5033
 7192TIP3    H242992   4.341   1.924   2.367  1.2564  0.7172  0.1575
 7193TIP3   OH242993   6.183   5.518   2.690 -0.4936 -0.1364  0.0773
 7193TIP3    H142994   6.170   5.577   2.765  0.9392 -2.4066  2.2308
 7193TIP3    H242995   6.275   5.529   2.667 -0.7028 -0.1407 -0.7813
 7194TIP3   OH242996   2.215   6.520  16.432  0.3398 -0.1146  0.4020
 7194TIP3    H142997   2.260   6.436  16.441  0.1530 -0.1648  0.9046
 7194TIP3    H242998   2.266   6.567  16.366  0.4118 -0.6436  0.0734
 7195TIP3   OH242999   1.287   3.722   2.717  0.2848 -0.3915 -0.1434
 7195TIP3    H143000   1.227   3.678   2.658  0.2827  1.9098 -1.9953
 7195TIP3    H243001   1.371   3.679   2.704 -0.3536 -1.8809  0.4902
 7196TIP3   OH243002   2.607   1.869  14.922 -0.0099  0.6467 -0.3824
 7196TIP3    H143003   2.513   1.887  14.914 -0.4282 -1.2398 -0.2808
 7196TIP3    H243004   2.612   1.774  14.932  1.8433  0.8071  0.7595
 7197TIP3   OH243005   4.533   0.815   5.453 -0.1777 -0.9682  0.2123
 7197TIP3    H143006   4.530   0.720   5.438  0.4871 -0.8484 -0.7509
 7197TIP3    H243007   4.465   0.851   5.396  1.0496 -0.6904 -1.1540
 7198TIP3   OH243008   2.166   0.534  11.539 -0.1144 -0.6564  0.0802
 7198TIP3    H143009   2.178   0.448  11.578 -1.3236 -1.1827 -0.6742
 7198TIP3    H243010   2.250   0.553  11.496  0.4998 -0.9970  1.0981
 7199TIP3   OH243011   0.930   2.008   0.027  0.0818 -0.2758  0.1629
 7199TIP3    H143012   0.978   1.963   0.096  0.3912 -0.5582 -0.2302
 7199TIP3    H243013   0.845   1.964   0.025  0.0966 -0.3125  0.3161
 7200TIP3   OH243014   2.430   4.967   4.132  0.0036  0.0133  0.1886
 7200TIP3    H143015   2.380   5.032   4.180 -1.7848 -1.7493  0.8417
 7200TIP3    H243016   2.498   4.939   4.193  0.1266  0.5079  0.2820
 7201TIP3   OH243017   0.019   0.927  16.291 -0.5116  0.0942  0.1713
 7201TIP3    H143018   0.023   0.834  16.313 -0.5500  0.5179  2.0580
 7201TIP3    H243019  -0.007   0.971  16.372  0.9168  1.9067 -0.2782
 7202TIP3   OH243020   6.191   1.929   1.794  0.4649 -0.2308  0.0463
 7202TIP3    H143021   6.151   2.016   1.792 -0.6032 -0.7215 -0.2309
 7202TIP3    H243022   6.133   1.878   1.850  1.1147 -0.7578  0.2432
 7203TIP3   OH243023   6.719   0.895   0.192 -0.0795 -0.3121  0.7673
 7203TIP3    H143024   6.699   0.819   0.246 -1.7937 -1.7008 -1.6340
 7203TIP3    H243025   6.637   0.946   0.192 -0.5362 -0.9790 -1.4143
 7204TIP3   OH243026   2.531   0.680   2.551  0.2521  0.3781  0.4787
 7204TIP3    H143027   2.535   0.603   2.494  2.5004  0.7995 -0.0092
 7204TIP3    H243028   2.530   0.643   2.640 -0.1810 -0.2202  0.2344
 7205TIP3   OH243029   3.398   3.856  12.633  0.0473  0.2820  0.3554
 7205TIP3    H143030   3.330   3.857  12.700  0.7657  2.2560  1.1390
 7205TIP3    H243031   3.455   3.783  12.657 -0.1712  0.4457  1.4046
 7206TIP3   OH243032   4.621   1.227  12.032 -0.0479 -0.4271  0.3650
 7206TIP3    H143033   4.567   1.305  12.018  1.5440  1.0915  2.2129
 7206TIP3    H243034   4.709   1.252  12.004  0.0269 -2.5011 -1.5386
 7207TIP3   OH243035   4.904   2.846  11.002 -0.1998 -0.2838 -0.1618
 7207TIP3    H143036   4.908   2.867  11.096  0.7395 -1.5391  0.0971
 7207TIP3    H243037   4.811   2.848  10.982 -0.3105  2.3084  0.2257
 7208TIP3   OH243038   3.794   0.030  16.436 -0.5458 -0.2180 -0.3524
 7208TIP3    H143039   3.853   0.069  16.371 -1.1728  0.0072 -0.7948
 7208TIP3    H243040   3.815   0.076  16.518 -0.0868 -0.1611 -0.5003
 7209TIP3   OH243041   6.407   2.383  15.550 -0.0823  0.3353  0.0472
 7209TIP3    H143042   6.408   2.309  15.610  0.1674  0.2595 -0.0509
 7209TIP3    H243043   6.497   2.392  15.519 -0.5658 -1.0230 -1.9941
 7210TIP3   OH243044   2.087   4.363  14.682  0.1997 -0.3240  0.2759
 7210TIP3    H143045   2.150   4.434  14.666  1.7533 -1.9846 -1.5612
 7210TIP3    H243046   2.138   4.296  14.726 -0.5804 -1.2596 -0.2113
 7211TIP3   OH243047   5.194   3.239  11.022 -0.0248  0.0034 -0.1512
 7211TIP3    H143048   5.116   3.198  11.058  0.9381 -1.5133  0.3247
 7211TIP3    H243049   5.167   3.328  10.998 -2.2481 -0.9461 -1.3874
 7212TIP3   OH243050   2.854   4.123   1.567  0.2950  0.3006  0.6945
 7212TIP3    H143051   2.893   4.156   1.647  0.0616  2.4389 -0.0142
 7212TIP3    H243052   2.927   4.089   1.516  0.5418 -0.3294  1.4539
 7213TIP3   OH243053   0.049   5.832   5.979  0.3193  0.0749  0.4428
 7213TIP3    H143054   0.137   5.860   5.953 -0.1466  2.2607  1.0795
 7213TIP3    H243055   0.056   5.815   6.072  0.4846 -1.6407  0.1497
 7214TIP3   OH243056   5.362   6.763  14.307  0.0345 -0.1588  0.2732
 7214TIP3    H143057   5.349   6.743  14.399 -0.7315 -0.6703  0.0648
 7214TIP3    H243058   5.415   6.691  14.273 -1.9203 -1.4208 -0.2617
 7215TIP3   OH243059   2.711   1.076  16.219 -0.1207 -0.5676 -0.4466
 7215TIP3    H143060   2.627   1.069  16.172 -0.6997 -2.4768  0.7377
 7215TIP3    H243061   2.699   1.021  16.296  1.9169 -0.0892  0.2551
 7216TIP3   OH243062   1.871   4.736   3.317 -0.2585 -0.0060  1.0473
 7216TIP3    H143063   1.917   4.654   3.300  3.6109  1.8143  1.5396
 7216TIP3    H243064   1.845   4.730   3.409 -2.5658 -1.6565  0.3779
 7217TIP3   OH243065   1.342   1.716  14.551 -0.0373  0.4881  0.0151
 7217TIP3    H143066   1.405   1.662  14.504  2.5049  2.0899  1.3282
 7217TIP3    H243067   1.285   1.752  14.482  2.0292  0.8664 -1.6078
 7218TIP3   OH243068   2.432   2.796   4.283  0.0883 -0.9979  0.3448
 7218TIP3    H143069   2.440   2.719   4.226 -0.1367  1.7265 -3.7882
 7218TIP3    H243070   2.338   2.816   4.283  0.4612  1.2122 -1.7735
 7219TIP3   OH243071   5.787   5.659  13.751 -0.2099  0.6516 -0.3081
 7219TIP3    H143072   5.756   5.736  13.797  0.2030  0.8394 -0.3396
 7219TIP3    H243073   5.859   5.626  13.805  0.1389  0.7520 -0.7038
 7220TIP3   OH243074   5.054   1.490   3.091 -0.1136  0.0376 -0.0313
 7220TIP3    H143075   5.095   1.444   3.164 -2.2808  0.1705  1.3499
 7220TIP3    H243076   4.967   1.450   3.083 -0.8881  1.7676 -0.8318
 7221TIP3   OH243077   2.879   2.183  15.817  0.5356 -0.7960 -0.7422
 7221TIP3    H143078   2.845   2.198  15.729 -0.0512  0.4703 -0.3197
 7221TIP3    H243079   2.968   2.150  15.802  0.1052 -1.5341 -1.8116
 7222TIP3   OH243080   3.524   1.146   0.405  0.1898 -0.5684  0.2328
 7222TIP3    H143081   3.528   1.213   0.473 -3.5876  0.5299 -0.4240
 7222TIP3    H243082   3.594   1.169   0.343 -0.1277  1.9528  0.7350
 7223TIP3   OH243083   6.213   3.003  12.443 -0.5315  0.1219  0.4249
 7223TIP3    H143084   6.143   2.984  12.505 -0.8015 -0.0828  0.0624
 7223TIP3    H243085   6.226   3.097  12.450 -0.6421  0.1179  0.7054
 7224TIP3   OH243086   3.956   3.245   4.536  0.1957  0.3885  0.3840
 7224TIP3    H143087   3.902   3.186   4.589 -1.1660  0.9915 -0.2799
 7224TIP3    H243088   4.008   3.295   4.599 -0.4212  0.1719  1.0675
 7225TIP3   OH243089   3.229   4.597   1.314 -0.3528  0.4735 -0.3265
 7225TIP3    H143090   3.200   4.649   1.389 -1.1792 -0.1957 -0.1673
 7225TIP3    H243091   3.257   4.513   1.352  1.4452  0.9516 -0.5252
 7226TIP3   OH243092   1.342   1.215   0.226  0.1087  0.2799 -0.0075
 7226TIP3    H143093   1.298   1.162   0.160  1.7678 -0.2171 -0.7566
 7226TIP3    H243094   1.377   1.152   0.288 -0.5583  0.6982  0.8255
 7227TIP3   OH243095   5.932   1.677  16.390  0.1149  0.6516 -0.2444
 7227TIP3    H143096   6.024   1.696  16.373  0.0684  0.3760 -0.8207
 7227TIP3    H243097   5.886   1.711  16.312 -0.2341  0.5079 -0.1024
 7228TIP3   OH243098   0.003   3.179  11.536 -0.0732 -0.6184 -0.2988
 7228TIP3    H143099   0.004   3.137  11.450  2.7022 -1.6160  0.1048
 7228TIP3    H243100  -0.004   3.107  11.598  1.5534 -0.2732  0.3387
 7229TIP3   OH243101   2.408   3.119   1.064 -0.1271 -0.5238 -0.0766
 7229TIP3    H143102   2.467   3.049   1.093  2.3564  1.1348 -0.7610
 7229TIP3    H243103   2.389   3.168   1.144 -0.3190 -0.8666  0.0928
 7230TIP3   OH243104   6.437   4.211  12.073  0.2088 -0.1760 -0.6812
 7230TIP3    H143105   6.503   4.147  12.048 -0.6823 -1.0289 -0.8677
 7230TIP3    H243106   6.357   4.161  12.083 -0.3248  0.7765 -0.0020
 7231TIP3   OH243107   4.478   0.190   0.208 -0.1372 -0.6754  0.2817
 7231TIP3    H143108   4.513   0.166   0.122  0.4774 -1.3273  0.6991
 7231TIP3    H243109   4.424   0.115   0.234  0.3602 -0.8555  0.8250
 7232TIP3   OH243110   4.694   1.579  15.773  0.2059 -0.1774 -0.3318
 7232TIP3    H143111   4.669   1.509  15.712 -1.7363  0.7360 -0.6372
 7232TIP3    H243112   4.710   1.654  15.716  3.4003 -0.5394 -0.1242
 7233TIP3   OH243113   6.026   2.137  13.210  0.2982  0.3394  0.1955
 7233TIP3    H143114   6.047   2.108  13.299 -1.1920 -1.7836 -0.0776
 7233TIP3    H243115   5.961   2.206  13.222 -0.4358 -0.4394  0.7485
 7234TIP3   OH243116   3.503   1.033  11.316  0.0467 -0.0919  0.3293
 7234TIP3    H143117   3.450   0.969  11.365  0.1028 -1.6847 -1.5839
 7234TIP3    H243118   3.577   0.982  11.283  2.2266  1.8290  1.9191
 7235TIP3   OH243119   5.365   0.940  13.762  0.3883 -0.3569  0.5806
 7235TIP3    H143120   5.362   1.035  13.775 -1.8117 -0.2665 -0.1658
 7235TIP3    H243121   5.390   0.930  13.670  0.1595 -0.4763  0.5298
 7236TIP3   OH243122   3.024   3.180  12.321 -0.3522 -0.0257  0.0471
 7236TIP3    H143123   2.974   3.124  12.380 -0.6240  0.5778  0.4053
 7236TIP3    H243124   2.977   3.176  12.238  0.1710 -1.0764 -0.2172
 7237TIP3   OH243125   4.828   6.204   5.159 -0.3406  0.3868 -0.5069
 7237TIP3    H143126   4.825   6.111   5.182 -0.6480  0.3396 -0.7285
 7237TIP3    H243127   4.737   6.226   5.139 -0.3281  0.8228 -0.1037
 7238TIP3   OH243128   0.562   6.226  14.108 -0.2509  0.1432  0.5400
 7238TIP3    H143129   0.596   6.168  14.176 -1.5157 -1.2570  0.0428
 7238TIP3    H243130   0.500   6.282  14.153  0.7154  0.8963  0.9615
 7239TIP3   OH243131   6.123   0.237   5.239  0.7601  0.0288 -0.0570
 7239TIP3    H143132   6.042   0.247   5.189  0.6326  1.2100  0.3570
 7239TIP3    H243133   6.094   0.226   5.330  1.0578  0.8451  0.1460
 7240TIP3   OH243134   3.350   5.791   3.202  0.4345  0.5397 -0.0163
 7240TIP3    H143135   3.423   5.744   3.162  0.4885 -1.3049  2.0497
 7240TIP3    H243136   3.391   5.854   3.261  0.3485  1.0027 -0.4465
 7241TIP3   OH243137   0.165   2.328  11.155 -0.0162  0.2744 -0.0520
 7241TIP3    H143138   0.124   2.304  11.072 -0.3260  0.3038  0.0908
 7241TIP3    H243139   0.171   2.423  11.152 -0.5001  0.3131  0.1787
 7242TIP3   OH243140   6.200   4.727  13.981  0.4941  0.2287  0.3969
 7242TIP3    H143141   6.247   4.811  13.978 -0.3456  0.6940 -0.0493
 7242TIP3    H243142   6.108   4.751  13.974  0.1643 -0.6637  1.4896
 7243TIP3   OH243143   6.623   0.464  11.160 -0.0771 -0.5092 -0.3051
 7243TIP3    H143144   6.657   0.412  11.088  2.4820  0.3725  0.1656
 7243TIP3    H243145   6.586   0.400  11.220  0.3264 -1.5051 -1.0930
 7244TIP3   OH243146   2.867   4.789   2.830 -0.0633 -0.2672 -0.0969
 7244TIP3    H143147   2.954   4.751   2.844  1.5693  1.5655 -3.7559
 7244TIP3    H243148   2.868   4.872   2.877  0.4023 -0.0393 -0.4941
 7245TIP3   OH243149   3.432   2.574   0.062  0.6687  0.3535  0.0899
 7245TIP3    H143150   3.467   2.566   0.151 -0.0112 -0.3094  0.3061
 7245TIP3    H243151   3.509   2.567   0.006  0.8795 -1.2651  0.5497
 7246TIP3   OH243152   2.123   4.240  13.901 -0.0272  0.0855  0.6988
 7246TIP3    H143153   2.108   4.202  13.988 -0.7876  1.1972  1.0739
 7246TIP3    H243154   2.036   4.265  13.871  0.2947  0.1903 -0.1682
 7247TIP3   OH243155   1.162   3.409  15.967 -0.6371  0.6845 -0.0755
 7247TIP3    H143156   1.136   3.318  15.949  1.5143 -0.2178  0.9930
 7247TIP3    H243157   1.242   3.421  15.917 -0.0879  1.4803  0.9553
 7248TIP3   OH243158   5.729   2.052   5.518  0.2340  0.0280  0.5117
 7248TIP3    H143159   5.672   2.076   5.591  0.0994 -0.7515  0.6788
 7248TIP3    H243160   5.818   2.059   5.553  0.2493  1.2323  0.2552
 7249TIP3   OH243161   4.503   3.685  13.923 -0.4749  0.3762  0.0452
 7249TIP3    H143162   4.430   3.745  13.907 -0.9405 -0.3851 -0.7957
 7249TIP3    H243163   4.581   3.738  13.915 -0.9013  0.9924 -0.0947
 7250TIP3   OH243164   3.753   3.529   5.490  0.0041  0.5340 -0.5327
 7250TIP3    H143165   3.759   3.531   5.394  0.1683 -0.2965 -0.5462
 7250TIP3    H243166   3.839   3.558   5.519  0.4604 -0.6465 -0.6572
 7251TIP3   OH243167   4.588   0.854  12.707  0.0631  0.2466  0.2268
 7251TIP3    H143168   4.600   0.814  12.621 -0.8017 -1.4433  0.8380
 7251TIP3    H243169   4.501   0.892  12.705  0.4058  1.0393  0.0602
 7252TIP3   OH243170   3.920   5.935   4.270  0.0417 -0.5330 -0.0639
 7252TIP3    H143171   3.956   6.021   4.248 -1.9572  0.1257 -0.9681
 7252TIP3    H243172   3.941   5.880   4.194  1.6503 -1.0115  0.6719
 7253TIP3   OH243173   5.577   3.133   2.320  0.0543 -0.1138  0.3719
 7253TIP3    H143174   5.647   3.144   2.256  0.6225  0.5168  1.0947
 7253TIP3    H243175   5.500   3.169   2.277  0.4352  0.3172  0.0465
 7254TIP3   OH243176   4.759   5.607   3.877 -0.0093 -0.4939  0.2085
 7254TIP3    H143177   4.751   5.557   3.796  1.4001  1.4877 -1.2323
 7254TIP3    H243178   4.852   5.605   3.898 -0.1687  0.1209  1.0475
 7255TIP3   OH243179   3.944   1.406   5.899 -0.2536 -0.0598 -0.2113
 7255TIP3    H143180   3.966   1.420   5.991  0.7279 -0.7122 -0.3335
 7255TIP3    H243181   3.909   1.317   5.896 -1.2089  0.3135 -0.3199
 7256TIP3   OH243182   2.202   1.644   4.075 -0.2050 -0.5191  0.1577
 7256TIP3    H143183   2.156   1.560   4.069  0.1817 -0.6850 -0.5770
 7256TIP3    H243184   2.144   1.705   4.029 -1.6758  0.1738  2.7148
 7257TIP3   OH243185   0.072   0.274   5.264 -0.2476 -0.0654  0.1768
 7257TIP3    H143186   0.074   0.348   5.203  1.8821  1.1128  1.5690
 7257TIP3    H243187   0.128   0.208   5.222  0.1704  0.2346  0.2590
 7258TIP3   OH243188   0.392   0.426  14.237  0.0735  0.6234 -0.5741
 7258TIP3    H143189   0.358   0.377  14.312 -0.7529  1.7956 -0.1411
 7258TIP3    H243190   0.478   0.388  14.220  0.7469  1.0093  1.6484
 7259TIP3   OH243191   2.998   1.591   5.280 -0.8440  0.0982 -0.4107
 7259TIP3    H143192   2.932   1.583   5.349  1.4036  2.7027  2.3032
 7259TIP3    H243193   2.994   1.682   5.253 -0.3373 -0.4173 -2.3539
 7260TIP3   OH243194   2.634   0.724  16.895 -0.5911  0.6486 -0.3978
 7260TIP3    H143195   2.709   0.690  16.847  1.4491  0.9180  2.3571
 7260TIP3    H243196   2.619   0.811  16.856  0.1617  0.3770 -1.3452
 7261TIP3   OH243197   2.571   3.068   3.369  0.2347  0.1860 -0.4652
 7261TIP3    H143198   2.593   2.975   3.358  0.3830  0.1064  0.4376
 7261TIP3    H243199   2.587   3.106   3.283  0.4232 -0.5736 -0.7819
 7262TIP3   OH243200   4.284   2.535   4.799 -0.0066  0.3343  0.1907
 7262TIP3    H143201   4.252   2.607   4.744 -1.3246 -0.6166 -0.3280
 7262TIP3    H243202   4.261   2.456   4.751  0.1854 -0.4812  1.4040
 7263TIP3   OH243203   5.294   6.262   2.541  0.3843  0.2240 -0.6508
 7263TIP3    H143204   5.229   6.275   2.610 -0.2584 -2.4528 -0.6302
 7263TIP3    H243205   5.345   6.187   2.571  0.5901 -0.5203 -2.7178
 7264TIP3   OH243206   5.186   2.280  10.147 -0.4506  0.0227  0.4950
 7264TIP3    H143207   5.240   2.348  10.109 -0.9330  0.1206 -0.0209
 7264TIP3    H243208   5.209   2.200  10.099 -2.2791  0.4595 -1.2353
 7265TIP3   OH243209   3.762   1.591   4.752  0.0253  0.4380  0.2281
 7265TIP3    H143210   3.808   1.670   4.723  0.4453 -0.1768 -0.8303
 7265TIP3    H243211   3.721   1.558   4.673 -0.6957 -0.0500  0.8037
 7266TIP3   OH243212   5.221   0.071  13.116 -0.3122  0.0352 -0.9472
 7266TIP3    H143213   5.158   0.023  13.170  0.0199  0.8710  0.2195
 7266TIP3    H243214   5.287   0.102  13.178  0.5089  0.3552 -1.9556
 7267TIP3   OH243215   0.414   1.401  14.448  0.2574 -0.3391 -0.4324
 7267TIP3    H143216   0.431   1.474  14.507 -0.5928  1.2317 -2.0385
 7267TIP3    H243217   0.424   1.323  14.503 -1.2822  1.0420  1.9617
 7268TIP3   OH243218   5.169   0.920   1.359 -0.4763 -0.0663 -0.4812
 7268TIP3    H143219   5.100   0.855   1.342 -0.2347 -0.7748  1.0422
 7268TIP3    H243220   5.246   0.885   1.314 -0.1301 -1.3177  0.9870
 7269TIP3   OH243221   2.742   3.182   0.057  0.5114 -0.0516  0.2230
 7269TIP3    H143222   2.806   3.204   0.125  1.0272  2.0189 -0.8685
 7269TIP3    H243223   2.793   3.169  -0.022 -0.2859  0.0786 -0.3309
 7270TIP3   OH243224   1.257   6.087  11.138 -0.2786 -0.2019 -0.0691
 7270TIP3    H143225   1.212   6.168  11.163 -1.0682 -1.0286  1.3059
 7270TIP3    H243226   1.217   6.062  11.055 -0.7842  0.2439  0.0344
 7271TIP3   OH243227   0.131   1.801   3.291 -0.3814  0.5583 -0.4851
 7271TIP3    H143228   0.118   1.793   3.385 -0.4467  0.0241 -0.5342
 7271TIP3    H243229   0.185   1.879   3.280  0.2636  0.1942  0.0481
 7272TIP3   OH243230   2.768   6.360  12.511  0.3597  0.1199 -0.2547
 7272TIP3    H143231   2.718   6.442  12.503  0.4158  0.1726 -0.0754
 7272TIP3    H243232   2.851   6.378  12.468  0.0563 -0.1122 -0.9552
 7273TIP3   OH243233   1.573   1.902  16.311  0.1921  0.5023  0.0328
 7273TIP3    H143234   1.577   1.809  16.335  1.8930  0.0244 -1.8308
 7273TIP3    H243235   1.502   1.907  16.248 -0.9066  0.7998  1.2483
 7274TIP3   OH243236   0.548   0.877   3.042 -0.1255 -0.7002  0.0997
 7274TIP3    H143237   0.551   0.833   2.957  0.5080 -0.7410  0.1394
 7274TIP3    H243238   0.571   0.809   3.106  1.4116 -0.2076  0.1117
 7275TIP3   OH243239   3.086   0.133   3.840 -0.2460  0.1477 -0.2735
 7275TIP3    H143240   3.075   0.079   3.918 -0.0949 -1.1085 -1.0889
 7275TIP3    H243241   3.120   0.217   3.873  2.0060 -1.1043  0.8442
 7276TIP3   OH243242   6.149   1.365   2.391 -0.1764  0.3253 -0.0975
 7276TIP3    H143243   6.195   1.303   2.447 -0.7291 -0.3657 -0.3971
 7276TIP3    H243244   6.113   1.312   2.321 -0.5452  1.0105 -0.4380
 7277TIP3   OH243245   6.603   4.088   3.732  0.1695 -0.2214 -0.0271
 7277TIP3    H143246   6.641   4.056   3.650 -1.1728  0.1167 -0.8186
 7277TIP3    H243247   6.534   4.025   3.752 -0.0214  0.1313  0.4297
 7278TIP3   OH243248   5.987   5.142   5.108  0.4695 -0.1526 -0.4993
 7278TIP3    H143249   6.047   5.091   5.053  0.1433  1.0964 -2.1215
 7278TIP3    H243250   6.002   5.233   5.081 -2.1433  0.2162 -1.0401
 7279TIP3   OH243251   1.522   6.692  15.799 -0.0695 -0.0667 -0.2320
 7279TIP3    H143252   1.455   6.750  15.764 -1.4194 -0.0169  2.1655
 7279TIP3    H243253   1.602   6.744  15.799 -0.8893  1.2391  0.3446
 7280TIP3   OH243254   6.681   4.799  12.186 -0.0450 -0.2531  0.6730
 7280TIP3    H143255   6.722   4.801  12.100  0.2636 -3.6038  0.6133
 7280TIP3    H243256   6.590   4.823  12.169 -0.6183 -3.1862 -1.1404
 7281TIP3   OH243257   0.683   4.054  14.490  0.3904 -0.0597  0.4898
 7281TIP3    H143258   0.751   4.016  14.435  1.0108  2.6400 -0.7773
 7281TIP3    H243259   0.729   4.119  14.544 -0.6984 -0.5029  2.0230
 7282TIP3   OH243260   5.332   1.405  15.502  0.0538  0.2726 -0.3173
 7282TIP3    H143261   5.291   1.373  15.582 -0.2677 -1.2857 -1.0606
 7282TIP3    H243262   5.260   1.434  15.446  0.1550 -0.0178 -0.6051
 7283TIP3   OH243263   4.753   6.095  13.386  0.5933  0.3900 -0.2305
 7283TIP3    H143264   4.703   6.168  13.424 -1.6129 -1.4096  0.5548
 7283TIP3    H243265   4.760   6.116  13.293  0.1588  1.6832  0.0119
 7284TIP3   OH243266   2.668   4.418  11.472 -0.5740  0.4476  0.2026
 7284TIP3    H143267   2.725   4.448  11.401 -0.8303  1.5033  0.4259
 7284TIP3    H243268   2.705   4.457  11.551  0.1550 -1.3309  0.7798
 7285TIP3   OH243269   1.031   5.952   4.969  0.2761  0.6915 -0.5425
 7285TIP3    H143270   0.957   5.927   5.023 -0.0672 -0.4240 -1.4888
 7285TIP3    H243271   1.042   6.046   4.985 -0.2134  0.5152  0.9350
 7286TIP3   OH243272   3.679   4.182  12.205 -0.0410  0.4818  0.0669
 7286TIP3    H143273   3.768   4.204  12.177  0.0833  0.1192  0.1715
 7286TIP3    H243274   3.638   4.144  12.128  0.2657 -0.4135  0.3389
 7287TIP3   OH243275   2.658   5.978   2.009  0.0296 -0.3906  0.3100
 7287TIP3    H143276   2.735   5.956   2.062  1.1244  0.7851 -0.7216
 7287TIP3    H243277   2.654   5.908   1.943  0.2000 -0.4752  0.3884
 7288TIP3   OH243278   1.338   5.425   4.517  0.1949 -0.4553 -0.2254
 7288TIP3    H143279   1.242   5.422   4.515  0.0733 -1.9025  2.3704
 7288TIP3    H243280   1.358   5.499   4.575  0.5556 -1.0821  0.4729
 7289TIP3   OH243281   2.917   4.397   5.164  0.3723  0.5826 -0.4438
 7289TIP3    H143282   2.856   4.324   5.159  1.4038 -0.4991  1.4279
 7289TIP3    H243283   2.871   4.470   5.123 -1.4607 -0.6204 -0.6412
 7290TIP3   OH243284   4.501   2.107  16.865 -1.0975 -0.4154  0.5190
 7290TIP3    H143285   4.549   2.025  16.874  0.5836  0.6874  3.0898
 7290TIP3    H243286   4.502   2.126  16.771 -1.3558 -3.1625 -0.1074
 7291TIP3   OH243287   5.333   3.038  11.769 -0.5255  0.0260  0.3477
 7291TIP3    H143288   5.308   3.131  11.774  1.6699  0.8944 -2.2030
 7291TIP3    H243289   5.332   3.008  11.860  0.2994  3.0289  1.4675
 7292TIP3   OH243290   2.678   6.264   3.860  0.5886  0.3570  0.1255
 7292TIP3    H143291   2.636   6.228   3.938  1.6070  0.1721  0.5930
 7292TIP3    H243292   2.612   6.252   3.791  0.9399 -2.6455  0.1889
 7293TIP3   OH243293   1.620   5.687   4.568 -0.2526  0.2079  0.8928
 7293TIP3    H143294   1.682   5.625   4.529 -1.0045  0.5352 -0.9457
 7293TIP3    H243295   1.674   5.758   4.601  0.3858  0.7988 -1.2552
 7294TIP3   OH243296   3.585   3.177  15.312 -0.0772  0.4052 -0.4680
 7294TIP3    H143297   3.622   3.224  15.238 -0.6002  1.9843  0.2294
 7294TIP3    H243298   3.493   3.204  15.314 -0.4598 -0.8448 -0.1672
 7295TIP3   OH243299   4.260   2.223   3.337 -0.2885  0.5854 -0.0841
 7295TIP3    H143300   4.263   2.221   3.241 -1.1924  1.0939 -0.1325
 7295TIP3    H243301   4.340   2.270   3.362  1.2091 -1.6034 -0.4596
 7296TIP3   OH243302   3.724   5.744   3.327 -0.5419 -0.2169  0.2934
 7296TIP3    H143303   3.747   5.785   3.244 -1.8822  2.7509  1.2674
 7296TIP3    H243304   3.768   5.797   3.394 -0.3243 -1.9079  1.5798
 7297TIP3   OH243305   4.059   4.571  10.884 -0.0787 -0.4531  0.0103
 7297TIP3    H143306   3.972   4.553  10.919 -0.2831 -0.2673 -0.3869
 7297TIP3    H243307   4.074   4.664  10.903  0.0260 -0.4814  0.0669
 7298TIP3   OH243308   1.423   1.938   4.124 -0.9049 -0.0482  0.2320
 7298TIP3    H143309   1.377   1.917   4.206  0.5090  0.4312  1.1843
 7298TIP3    H243310   1.382   2.020   4.094 -1.8043 -0.5156  0.1446
 7299TIP3   OH243311   5.279   3.783   5.483  0.2237  0.3691  0.2530
 7299TIP3    H143312   5.209   3.774   5.547  1.0589  2.6356  1.6105
 7299TIP3    H243313   5.244   3.844   5.418  0.3640  0.2264  0.0419
 7300TIP3   OH243314   1.419   0.574  16.951  0.7867 -0.3470  0.5087
 7300TIP3    H143315   1.511   0.550  16.948  0.8058 -0.8920  3.0472
 7300TIP3    H243316   1.415   0.644  17.017 -0.8521 -1.8655  2.1145
 7301TIP3   OH243317   2.357   4.494   1.635  0.2797 -0.1190 -0.1886
 7301TIP3    H143318   2.271   4.458   1.614  0.8201 -0.8519 -1.1934
 7301TIP3    H243319   2.389   4.530   1.552  0.8673  0.3230  0.2200
 7302TIP3   OH243320   1.795   1.192  16.152  0.8311 -0.0963  0.0933
 7302TIP3    H143321   1.705   1.162  16.144  0.6498  0.3692  0.3506
 7302TIP3    H243322   1.846   1.129  16.100  0.1065  0.9365 -1.9513
 7303TIP3   OH243323   0.691   6.359  16.882  0.2255 -0.4127 -0.2997
 7303TIP3    H143324   0.714   6.439  16.928 -1.9215 -0.3505  0.8076
 7303TIP3    H243325   0.763   6.299  16.900  1.5782  1.0360 -0.6506
 7304TIP3   OH243326   0.308   3.920  14.809 -0.3961 -0.2137  0.8416
 7304TIP3    H143327   0.328   3.989  14.873 -0.3147 -0.5086  1.1380
 7304TIP3    H243328   0.393   3.891  14.778 -0.4314 -0.1818  0.7134
 7305TIP3   OH243329   0.936   0.725   4.650  0.9961 -0.2245 -0.3997
 7305TIP3    H143330   1.019   0.704   4.607  0.9954 -1.3016  0.0959
 7305TIP3    H243331   0.959   0.740   4.742  0.6224 -0.7205 -0.2203
 7306TIP3   OH243332   5.993   1.100  11.277  0.0822  0.1342 -0.2588
 7306TIP3    H143333   6.036   1.015  11.283 -1.5449 -0.6993  0.1480
 7306TIP3    H243334   5.967   1.120  11.367 -0.6414  0.4663 -0.5374
 7307TIP3   OH243335   6.036   3.952  16.711  0.6404  0.3510 -0.2857
 7307TIP3    H143336   6.011   4.026  16.656 -0.9634 -0.6738 -1.0300
 7307TIP3    H243337   6.016   3.980  16.800  0.9661  1.1510 -0.4562
 7308TIP3   OH243338   2.089   4.110   0.579 -0.0437  0.4247 -0.5636
 7308TIP3    H143339   2.164   4.126   0.637  0.7492  0.0427 -1.4612
 7308TIP3    H243340   2.111   4.156   0.498 -2.3966  3.3975  0.2889
 7309TIP3   OH243341   4.358   5.279  12.879 -0.2054 -0.4611  0.1348
 7309TIP3    H143342   4.309   5.359  12.898 -0.9465 -1.1421  1.1861
 7309TIP3    H243343   4.363   5.233  12.963  2.0638 -0.5381  0.0108
 7310TIP3   OH243344   0.118   0.992  14.304 -0.0416  0.0360  0.0234
 7310TIP3    H143345   0.043   1.052  14.294 -0.7748 -0.7372  0.7290
 7310TIP3    H243346   0.171   1.032  14.373  0.9001  1.2575 -1.3476
 7311TIP3   OH243347   6.579   5.989  12.256 -0.0435  0.0889 -0.8436
 7311TIP3    H143348   6.630   6.020  12.331  0.0897 -1.2716 -0.3502
 7311TIP3    H243349   6.554   6.069  12.210  2.0303  0.8382 -0.7863
 7312TIP3   OH243350   1.706   4.563  13.822 -0.0597 -0.2940  0.4925
 7312TIP3    H143351   1.703   4.583  13.729  4.5962  0.2675  0.2045
 7312TIP3    H243352   1.714   4.648  13.865  3.4817 -0.5958  0.7327
 7313TIP3   OH243353   0.743   0.920   1.522 -0.2468  0.0762 -0.1891
 7313TIP3    H143354   0.680   0.991   1.516 -0.3318 -0.0336 -0.5792
 7313TIP3    H243355   0.702   0.857   1.581 -0.0954  0.4232  0.3031
 7314TIP3   OH243356   0.609   3.062   5.559  0.2381  0.1584  0.6155
 7314TIP3    H143357   0.600   3.140   5.504  0.9310 -0.0119  0.2542
 7314TIP3    H243358   0.670   3.006   5.512  2.1453  0.7060  2.2758
 7315TIP3   OH243359   5.275   3.814   3.339 -0.0709 -0.4934  0.0486
 7315TIP3    H143360   5.311   3.868   3.269  2.8669 -3.6001 -1.0993
 7315TIP3    H243361   5.182   3.805   3.317 -0.2957  2.4177 -0.6766
 7316TIP3   OH243362   2.778   6.559  15.601  0.3778  0.1492  0.4266
 7316TIP3    H143363   2.744   6.614  15.531 -0.4112  0.4575  1.0361
 7316TIP3    H243364   2.851   6.609  15.638  0.8562 -0.0555 -0.2198
 7317TIP3   OH243365   2.048   1.584   6.047  0.1065  0.3758 -0.4497
 7317TIP3    H143366   1.959   1.595   6.081 -0.6078 -0.7867 -1.8361
 7317TIP3    H243367   2.080   1.504   6.088 -0.6364 -0.8506 -2.1582
 7318TIP3   OH243368   0.486   1.572  13.830 -0.5404  0.5617  0.5092
 7318TIP3    H143369   0.448   1.533  13.751 -0.6565  1.2140  0.2358
 7318TIP3    H243370   0.492   1.500  13.892  2.3942 -0.7215 -1.0897
 7319TIP3   OH243371   1.935   2.202  15.476 -0.1991  0.2992  0.4436
 7319TIP3    H143372   1.861   2.197  15.537 -0.9986 -1.1010 -0.6017
 7319TIP3    H243373   1.896   2.201  15.389  1.0319 -0.2687 -0.1342
 7320TIP3   OH243374   2.828   6.735  13.984 -0.0645 -0.6595  0.2875
 7320TIP3    H143375   2.780   6.805  13.939  2.9600  1.4541  0.1238
 7320TIP3    H243376   2.912   6.730  13.938  1.2370 -1.8456  2.6500
 7321TIP3   OH243377   0.786   2.457   5.602 -0.2020 -0.2763 -0.0899
 7321TIP3    H143378   0.712   2.465   5.542  0.5083  2.6458 -0.7442
 7321TIP3    H243379   0.748   2.423   5.683 -2.4669  1.7983 -0.1679
 7322TIP3   OH243380   0.623   3.319  11.557  0.4744  0.2490  0.1927
 7322TIP3    H143381   0.591   3.407  11.574 -0.1977  0.2401 -0.9326
 7322TIP3    H243382   0.595   3.268  11.632  1.9902  1.2329  1.5040
 7323TIP3   OH243383   0.146   2.200   5.005  0.1722 -0.1103 -0.2415
 7323TIP3    H143384   0.185   2.114   5.001  0.4919  0.0359 -0.2673
 7323TIP3    H243385   0.220   2.261   5.007 -0.0513  0.1839 -0.7404
 7324TIP3   OH243386   3.047   4.025  12.848  0.0618  0.8491  0.3800
 7324TIP3    H143387   3.100   4.098  12.817 -0.8526  1.0248 -0.8540
 7324TIP3    H243388   3.008   4.056  12.930  0.3787  1.4127  0.3185
 7325TIP3   OH243389   5.976   0.766  14.080 -0.4119 -0.1178  0.1454
 7325TIP3    H143390   5.974   0.854  14.042  0.2329 -0.6364 -1.1594
 7325TIP3    H243391   5.887   0.732  14.069 -0.2512 -0.2392 -0.9094
 7326TIP3   OH243392   2.883   0.624  15.540  0.0818  0.4573 -0.4278
 7326TIP3    H143393   2.975   0.601  15.552 -0.4083 -2.5844 -1.5252
 7326TIP3    H243394   2.864   0.602  15.449 -2.3607 -1.9874  0.5222
 7327TIP3   OH243395   4.547   6.090   0.270  0.6479  0.3489 -0.2734
 7327TIP3    H143396   4.561   6.019   0.207 -2.9195 -0.4424 -0.4116
 7327TIP3    H243397   4.509   6.047   0.346  1.7156  1.7311  1.0870
 7328TIP3   OH243398   5.602   4.695   2.883 -0.6630 -0.1421  0.0101
 7328TIP3    H143399   5.611   4.621   2.823 -0.2674  0.1611 -0.3050
 7328TIP3    H243400   5.516   4.731   2.863 -0.6871 -0.2673 -0.1147
 7329TIP3   OH243401   0.602   6.753  16.405 -0.2191 -0.4192  0.0236
 7329TIP3    H143402   0.554   6.795  16.476  0.2893  0.2928 -0.0445
 7329TIP3    H243403   0.534   6.711  16.352 -1.0346  2.1114 -1.1004
 7330TIP3   OH243404   0.727   4.800   4.909  0.3100  0.0997 -0.5484
 7330TIP3    H143405   0.736   4.894   4.892 -1.1385 -0.0825 -2.7932
 7330TIP3    H243406   0.782   4.759   4.842  0.6454 -0.6700  0.1894
 7331TIP3   OH243407   0.749   1.581  12.824 -0.0822  0.2443 -0.1056
 7331TIP3    H143408   0.785   1.664  12.855  1.5698 -0.0792 -1.0662
 7331TIP3    H243409   0.745   1.590  12.729 -1.6768 -0.1079 -0.0995
 7332TIP3   OH243410   3.680   3.022  14.797  0.1590  0.2348  0.1585
 7332TIP3    H143411   3.759   3.072  14.818 -0.1338  0.2172  1.3643
 7332TIP3    H243412   3.709   2.931  14.794  0.0087  0.1146  1.6659
 7333TIP3   OH243413   0.446   6.394  12.088 -0.2161  0.5792  0.0549
 7333TIP3    H143414   0.482   6.454  12.022 -1.1402  1.0152 -0.0650
 7333TIP3    H243415   0.423   6.315  12.038 -0.8540  0.8841 -0.1356
 7334TIP3   OH243416   2.217   1.505   0.960 -0.4662  0.1935  1.0149
 7334TIP3    H143417   2.139   1.475   0.912 -0.0224 -0.7726  0.8674
 7334TIP3    H243418   2.182   1.552   1.036 -1.2165 -1.1764  1.5482
 7335TIP3   OH243419   5.795   4.000  12.735 -0.9316 -0.5308  0.1697
 7335TIP3    H143420   5.869   3.950  12.701  0.4845  0.8948  1.0394
 7335TIP3    H243421   5.725   3.935  12.744  0.8942 -2.4403  1.5469
 7336TIP3   OH243422   3.565   5.219  12.151  0.5245  0.8313 -0.0855
 7336TIP3    H143423   3.532   5.204  12.063  0.9765 -0.5689 -0.0440
 7336TIP3    H243424   3.659   5.235  12.140  0.7867 -0.3809  0.1953
 7337TIP3   OH243425   2.127   2.178  12.523  0.4855  0.1160 -0.1657
 7337TIP3    H143426   2.057   2.113  12.522 -0.5395  1.1641  0.8824
 7337TIP3    H243427   2.115   2.227  12.442  1.0198 -0.7297 -0.7690
 7338TIP3   OH243428   5.004   1.937  11.793 -0.4152  0.1783  0.1497
 7338TIP3    H143429   5.098   1.926  11.779 -0.1817  0.1208  1.6048
 7338TIP3    H243430   4.983   2.019  11.748  0.2098 -0.0930 -0.6633
 7339TIP3   OH243431   4.963   2.614   0.674 -0.7376  0.8211 -0.8540
 7339TIP3    H143432   4.984   2.641   0.763  0.1624  0.2483 -0.8811
 7339TIP3    H243433   5.045   2.619   0.626 -1.4685  2.4763 -2.0457
 7340TIP3   OH243434   3.173   3.883   4.532 -0.3661 -0.1063  0.3975
 7340TIP3    H143435   3.176   3.978   4.550 -1.0473  0.3328 -1.5968
 7340TIP3    H243436   3.084   3.867   4.502  0.1082 -1.1366 -0.5335
 7341TIP3   OH243437   2.763   3.526   4.503 -0.2971  0.1605  0.1124
 7341TIP3    H143438   2.683   3.577   4.513 -0.2625  0.2270  0.0527
 7341TIP3    H243439   2.735   3.435   4.514 -0.4491  0.1559 -0.3024
 7342TIP3   OH243440   4.832   1.254  14.938 -0.1856  0.3254  0.2169
 7342TIP3    H143441   4.762   1.199  14.974  0.7817 -0.3288  1.1556
 7342TIP3    H243442   4.894   1.266  15.010  0.5059  1.1822 -0.4899
 7343TIP3   OH243443   5.298   0.384   4.575  1.0807  0.5655  0.1216
 7343TIP3    H143444   5.297   0.359   4.482 -0.9925 -0.9195  0.4556
 7343TIP3    H243445   5.230   0.451   4.582  1.2574  0.7027  0.5611
 7344TIP3   OH243446   3.181   1.291   1.839  0.4268 -0.0704 -0.4617
 7344TIP3    H143447   3.257   1.343   1.811 -1.4012  4.3086  1.8696
 7344TIP3    H243448   3.107   1.331   1.795 -1.0209 -1.6015  0.4681
 7345TIP3   OH243449   0.422   3.246  12.790  0.2477  0.1157 -0.0124
 7345TIP3    H143450   0.381   3.190  12.856  1.6089  1.0980  1.7459
 7345TIP3    H243451   0.350   3.294  12.751 -0.8181 -1.9190 -0.7095
 7346TIP3   OH243452   5.009   4.302  17.206  0.0583 -0.4532  0.0498
 7346TIP3    H143453   5.035   4.376  17.261 -0.1357  0.0418 -0.5143
 7346TIP3    H243454   5.065   4.308  17.129  0.0663 -0.9183  0.0119
 7347TIP3   OH243455   2.991   1.322   2.059 -0.6703 -0.0341  0.0337
 7347TIP3    H143456   2.978   1.397   2.117 -0.0593 -0.9988  1.4784
 7347TIP3    H243457   3.080   1.334   2.025 -0.2609 -0.5072  0.9090
 7348TIP3   OH243458   5.492   1.139   2.330 -0.5356  0.6828  0.9437
 7348TIP3    H143459   5.490   1.114   2.238 -1.4708  1.9561  0.5812
 7348TIP3    H243460   5.413   1.099   2.368 -0.4709  0.6569  1.0524
 7349TIP3   OH243461   5.494   2.602  13.040  0.0478  0.1128 -0.0593
 7349TIP3    H143462   5.520   2.575  12.952  0.7854 -0.2734  0.2660
 7349TIP3    H243463   5.494   2.698  13.037  0.3619  0.1027 -0.3951
 7350TIP3   OH243464   1.650   1.750  14.622 -0.0266 -0.4758  0.5708
 7350TIP3    H143465   1.609   1.773  14.539  0.7878 -1.2094 -0.0587
 7350TIP3    H243466   1.740   1.725  14.598  0.4995  0.1579  1.7818
 7351TIP3   OH243467   3.402   2.757  11.980  0.0164  0.5367 -0.3097
 7351TIP3    H143468   3.353   2.837  11.962 -1.6588 -0.0857  1.2161
 7351TIP3    H243469   3.370   2.694  11.915 -1.1160  0.1944  0.5464
 7352TIP3   OH243470   1.779   0.944   1.471 -0.5312 -0.1755 -0.1824
 7352TIP3    H143471   1.796   0.943   1.565  1.2974  0.2875 -0.4731
 7352TIP3    H243472   1.698   0.894   1.461 -1.0446  0.2055  1.6755
 7353TIP3   OH243473   3.516   3.418  12.901 -0.0089  0.1859 -0.1521
 7353TIP3    H143474   3.547   3.395  12.989  1.2717  0.3047 -0.5496
 7353TIP3    H243475   3.534   3.340  12.848  0.4529  0.5798 -0.5867
 7354TIP3   OH243476   4.773   0.420   2.886  0.2986  0.4024 -0.0040
 7354TIP3    H143477   4.825   0.448   2.811  0.3888  2.0247  0.6305
 7354TIP3    H243478   4.823   0.448   2.962 -0.7936  0.7047  0.6375
 7355TIP3   OH243479   2.930   5.962   0.787 -0.3286 -0.0393 -0.2603
 7355TIP3    H143480   2.849   6.013   0.800  0.5530  1.2671  0.3166
 7355TIP3    H243481   2.899   5.874   0.765 -1.9141  0.2882  0.4757
 7356TIP3   OH243482   5.620   0.037   6.687 -0.5384 -0.0570  0.0858
 7356TIP3    H143483   5.676   0.113   6.669 -0.2012 -0.6014 -1.2502
 7356TIP3    H243484   5.679  -0.027   6.727  0.3627 -1.3423 -2.9769
 7357TIP3   OH243485   0.925   1.073   1.130 -0.5132 -0.2781 -0.4226
 7357TIP3    H143486   0.851   1.087   1.071 -0.8504 -0.4986 -0.0682
 7357TIP3    H243487   0.986   1.143   1.110 -0.8776 -0.0169 -0.6380
 7358TIP3   OH243488   1.752   3.264  15.634 -0.4771 -0.3091  0.2415
 7358TIP3    H143489   1.681   3.201  15.648  0.1510 -0.9757  0.4928
 7358TIP3    H243490   1.727   3.340  15.686 -0.7253 -0.7622  0.7962
 7359TIP3   OH243491   2.986   4.465  16.042  0.4698  0.1483  0.3763
 7359TIP3    H143492   3.080   4.479  16.028  0.6604 -0.1339  1.2601
 7359TIP3    H243493   2.944   4.508  15.968  1.3322 -0.4493 -0.4855
 7360TIP3   OH243494   4.111   3.772  13.701  0.7251  0.0228  0.1024
 7360TIP3    H143495   4.125   3.843  13.638  1.4086  0.0043  0.2286
 7360TIP3    H243496   4.157   3.800  13.780 -2.5622  1.4726  1.7181
 7361TIP3   OH243497   4.217   6.722   6.025  0.2082 -0.5325 -0.1713
 7361TIP3    H143498   4.172   6.674   6.096  1.4812 -1.0139  0.3361
 7361TIP3    H243499   4.218   6.660   5.952 -0.8603 -0.1357 -0.5475
 7362TIP3   OH243500   3.134   6.431  15.613  0.3285 -0.6410  0.1962
 7362TIP3    H143501   3.207   6.372  15.593  0.9480  0.1234  0.1341
 7362TIP3    H243502   3.100   6.400  15.697  1.8763  0.0421  1.1331
 7363TIP3   OH243503   6.576   4.617   4.042 -0.1556  0.0690 -0.0505
 7363TIP3    H143504   6.499   4.634   4.097 -0.0614 -1.5471  0.6202
 7363TIP3    H243505   6.561   4.668   3.963 -0.9557  1.3628  0.8943
 7364TIP3   OH243506   5.834   5.597  16.024  0.2750 -0.0462 -0.1765
 7364TIP3    H143507   5.857   5.614  15.933  1.2178 -2.7104 -0.5276
 7364TIP3    H243508   5.881   5.664  16.074  1.0848  0.4242 -1.5358
 7365TIP3   OH243509   5.498   5.652  16.944 -0.0341 -0.3725  0.1526
 7365TIP3    H143510   5.583   5.618  16.915  0.2257  0.0340  0.4409
 7365TIP3    H243511   5.477   5.602  17.023  1.1050  1.2105  1.5140
 7366TIP3   OH243512   4.370   2.524  12.305  0.1279  0.4194  0.4046
 7366TIP3    H143513   4.329   2.544  12.221  1.2473 -0.8688 -0.4904
 7366TIP3    H243514   4.390   2.430  12.301  1.2014  0.5554  1.6599
 7367TIP3   OH243515   3.872   3.107   5.519 -0.0784 -0.0040  0.0482
 7367TIP3    H143516   3.879   3.143   5.607 -0.1347  0.6993 -0.2274
 7367TIP3    H243517   3.792   3.054   5.521 -1.1799  1.5889 -0.1010
 7368TIP3   OH243518   3.473   6.488  13.861  0.1953  0.3888 -0.0559
 7368TIP3    H143519   3.561   6.456  13.880  1.5161  1.9455 -2.9771
 7368TIP3    H243520   3.425   6.411  13.831 -0.2134 -0.8966  3.3613
 7369TIP3   OH243521   2.025   6.302   3.426  0.0424  0.0444 -0.2629
 7369TIP3    H143522   2.077   6.332   3.500  3.6846  0.2432 -2.6738
 7369TIP3    H243523   2.030   6.206   3.430 -1.5627 -0.0360  0.8162
 7370TIP3   OH243524   4.725   2.757   3.188 -0.6372 -0.2633  0.2523
 7370TIP3    H143525   4.716   2.701   3.112 -3.4949  0.3472  0.0018
 7370TIP3    H243526   4.644   2.743   3.238  0.7391  0.0047  2.7638
 7371TIP3   OH243527   0.385   0.315   2.897  0.3137 -0.0583 -0.0729
 7371TIP3    H143528   0.350   0.242   2.845  2.4340 -1.6992  0.6705
 7371TIP3    H243529   0.311   0.343   2.951 -1.2856  0.1579 -2.2323
 7372TIP3   OH243530   2.359   1.010  12.517 -0.3093 -0.0280  0.9642
 7372TIP3    H143531   2.376   1.005  12.611 -1.2148  3.0498  1.4137
 7372TIP3    H243532   2.267   1.036  12.511 -0.5866 -1.2605 -0.8565
 7373TIP3   OH243533   2.946   4.860  12.582  0.6985  0.1293  0.1082
 7373TIP3    H143534   2.983   4.906  12.507  0.3997  0.2813  0.0510
 7373TIP3    H243535   2.973   4.912  12.658 -2.1752  2.2149 -0.1389
 7374TIP3   OH243536   5.990   1.817  15.217 -0.8012 -0.0555  0.3333
 7374TIP3    H143537   5.995   1.722  15.213 -1.2018 -0.2841  3.3427
 7374TIP3    H243538   5.897   1.837  15.212 -0.8708  0.0045  1.5576
 7375TIP3   OH243539   2.182   0.178   1.955  0.1112 -0.1143 -0.2835
 7375TIP3    H143540   2.185   0.171   1.859 -1.8036  0.2059 -0.3949
 7375TIP3    H243541   2.209   0.268   1.972 -0.9159  0.2711 -0.6328
 7376TIP3   OH243542   5.694   4.740  15.804  0.3245 -0.7068  0.0664
 7376TIP3    H143543   5.749   4.764  15.729 -1.8967  0.1727 -1.3897
 7376TIP3    H243544   5.663   4.651  15.784  1.1208 -1.1816  0.8568
 7377TIP3   OH243545   5.642   1.106  12.520 -0.3661  0.4879 -0.6314
 7377TIP3    H143546   5.684   1.027  12.486  1.6578  1.1180  0.2506
 7377TIP3    H243547   5.552   1.100  12.489 -0.0204 -1.6626 -1.4155
 7378TIP3   OH243548   1.950   5.707   4.040 -0.6269 -0.1210  0.0469
 7378TIP3    H143549   2.011   5.639   4.068 -1.7086 -0.7349  0.9971
 7378TIP3    H243550   1.864   5.677   4.070 -0.9845  2.2678  1.7638
 7379TIP3   OH243551   1.210   3.781  15.176  0.5771 -0.1525 -0.5324
 7379TIP3    H143552   1.171   3.802  15.261  1.9877 -0.1650  0.1411
 7379TIP3    H243553   1.145   3.725  15.134 -0.8447  1.1373 -0.1265
 7380TIP3   OH243554   6.108   1.793   0.745  0.4051 -0.1989 -0.6474
 7380TIP3    H143555   6.139   1.703   0.732  1.1284  0.2191 -2.0885
 7380TIP3    H243556   6.029   1.784   0.798  0.0769 -1.7568 -1.3435
 7381TIP3   OH243557   2.457   2.883  16.628  0.0684  0.2454 -0.0728
 7381TIP3    H143558   2.372   2.900  16.668 -1.0499 -1.4801 -1.5717
 7381TIP3    H243559   2.520   2.919  16.690 -1.7454  2.5121  0.6131
 7382TIP3   OH243560   4.748   0.964   0.109  0.3232 -0.3651 -0.7831
 7382TIP3    H143561   4.739   0.912   0.189 -0.3715  0.8863 -0.0164
 7382TIP3    H243562   4.665   1.011   0.101  1.3401  1.5136 -0.7932
 7383TIP3   OH243563   3.843   3.251  11.330  0.4310  0.8758 -0.4213
 7383TIP3    H143564   3.834   3.297  11.247  0.7995  1.1899 -0.2892
 7383TIP3    H243565   3.914   3.188  11.315  1.7416  2.1657  0.1896
 7384TIP3   OH243566   0.616   0.464   6.028  0.0899  0.3206  1.0341
 7384TIP3    H143567   0.536   0.434   5.983  1.1632 -0.6403 -0.3375
 7384TIP3    H243568   0.686   0.411   5.989  1.6852  2.5166  0.7453
 7385TIP3   OH243569   4.740   3.361   4.219 -0.2412  0.0167  0.2461
 7385TIP3    H143570   4.666   3.379   4.278 -1.0391 -1.6738 -0.1699
 7385TIP3    H243571   4.786   3.287   4.260 -0.2264 -0.5320 -0.7219
 7386TIP3   OH243572   3.854   4.939  11.121 -0.0547  0.3202 -0.0119
 7386TIP3    H143573   3.907   4.864  11.094 -0.1107 -0.0485  0.8478
 7386TIP3    H243574   3.918   5.008  11.140  0.0807  0.1177  0.2907
 7387TIP3   OH243575   2.231   0.982   2.881  0.3709 -0.1873  0.0564
 7387TIP3    H143576   2.269   1.039   2.948  0.1357  0.9985 -0.7818
 7387TIP3    H243577   2.302   0.922   2.858  1.4208  1.2766 -0.6909
 7388TIP3   OH243578   1.905   0.584  16.049 -0.1470 -0.1543  0.7470
 7388TIP3    H143579   1.930   0.528  15.976 -0.9396  1.1627 -0.6119
 7388TIP3    H243580   1.810   0.591  16.042 -0.3352 -0.5795  2.3811
 7389TIP3   OH243581   1.069   5.472  10.617 -0.0591 -0.5096  0.2697
 7389TIP3    H143582   1.158   5.488  10.648  0.2404 -0.3995 -0.6314
 7389TIP3    H243583   1.078   5.451  10.525 -1.0233  0.1512  0.0042
 7390TIP3   OH243584   2.897   3.959  11.743  0.2790  0.2062 -0.0828
 7390TIP3    H143585   2.859   4.018  11.808 -0.2439  0.6779 -0.7991
 7390TIP3    H243586   2.831   3.955  11.673 -0.1383 -1.9629  0.3481
 7391TIP3   OH243587   5.732   1.753  15.957 -0.3443 -0.2367  0.5236
 7391TIP3    H143588   5.827   1.753  15.946 -0.5968  0.9391 -2.8884
 7391TIP3    H243589   5.703   1.672  15.915 -0.8485 -1.3758  2.8996
 7392TIP3   OH243590   6.788   0.311  16.286 -0.1289  0.2395  0.4912
 7392TIP3    H143591   6.853   0.353  16.343  0.7443 -0.5787  0.1454
 7392TIP3    H243592   6.823   0.223  16.272 -0.5393  0.2819 -0.9598
 7393TIP3   OH243593   0.922   5.560  16.894  0.4554  0.6765  0.3638
 7393TIP3    H143594   0.960   5.488  16.945  1.5931  2.2370  1.8158
 7393TIP3    H243595   0.932   5.533  16.803  0.8029 -1.0176  0.8733
 7394TIP3   OH243596   6.073   5.295   5.664 -0.3171 -0.4170  0.1901
 7394TIP3    H143597   6.081   5.229   5.595  0.9555 -1.3983  1.2288
 7394TIP3    H243598   6.095   5.248   5.745 -0.7615  0.9558  1.1403
 7395TIP3   OH243599   5.024   3.123  15.069 -0.4711 -0.0309  0.4160
 7395TIP3    H143600   4.982   3.199  15.029  1.6192  0.1430 -1.6278
 7395TIP3    H243601   5.021   3.055  15.001 -0.1042 -0.9785  1.3118
 7396TIP3   OH243602   4.620   5.315  11.451 -0.0798  0.2434  0.6202
 7396TIP3    H143603   4.689   5.262  11.409 -1.8062  0.7414 -3.3024
 7396TIP3    H243604   4.651   5.405  11.443 -0.4728  0.3488  0.2012
 7397TIP3   OH243605   3.148   0.865  14.060  0.0325  0.4258 -0.5934
 7397TIP3    H143606   3.165   0.788  14.005 -1.7994 -0.4697  0.0290
 7397TIP3    H243607   3.076   0.839  14.116  0.1719  2.2125  0.4861
 7398TIP3   OH243608   2.070   6.446   0.098  0.5574  0.3906  0.5172
 7398TIP3    H143609   2.067   6.400   0.014  1.8863 -0.1957  0.7618
 7398TIP3    H243610   2.071   6.376   0.164 -1.8533  0.8366  1.1436
 7399TIP3   OH243611   6.051   0.198  11.472  1.0453 -0.5783  0.2266
 7399TIP3    H143612   6.021   0.107  11.483  1.2118 -0.5820  0.6805
 7399TIP3    H243613   6.104   0.196  11.393 -0.7178 -0.4277 -1.0233
 7400TIP3   OH243614   2.042   2.838   2.348  0.0184 -0.5658  0.1286
 7400TIP3    H143615   2.024   2.747   2.372  2.0320 -1.0680 -0.0855
 7400TIP3    H243616   2.098   2.870   2.418  0.2895  0.1231 -0.3948
 7401TIP3   OH243617   2.546   0.121   0.798  0.2059  0.3327  0.2100
 7401TIP3    H143618   2.549   0.201   0.744  0.9551 -0.0001 -0.2598
 7401TIP3    H243619   2.626   0.125   0.851  0.7146 -0.5289 -0.4573
 7402TIP3   OH243620   3.673   4.346  11.783 -0.5900 -0.8182  0.1331
 7402TIP3    H143621   3.687   4.430  11.738 -0.9885 -1.0835 -0.5129
 7402TIP3    H243622   3.761   4.314  11.803 -0.4382 -0.2245  0.4196
 7403TIP3   OH243623   4.471   6.349   0.019  0.4061 -0.2268 -0.2839
 7403TIP3    H143624   4.407   6.403  -0.028  0.9294  0.5018 -0.1859
 7403TIP3    H243625   4.490   6.277  -0.040 -0.3062 -0.3119 -0.4227
 7404TIP3   OH243626   2.058   3.988   1.333  0.4457 -0.4122  0.0848
 7404TIP3    H143627   1.997   4.043   1.383 -0.7814 -0.4759 -1.2737
 7404TIP3    H243628   2.003   3.944   1.268  1.1392 -4.0435  1.6575
 7405TIP3   OH243629   6.260   2.067   5.379  0.2782 -0.1570 -0.8268
 7405TIP3    H143630   6.178   2.082   5.332 -1.1521 -2.7805  0.6270
 7405TIP3    H243631   6.315   2.018   5.318 -0.7342 -1.6725 -0.5567
 7406TIP3   OH243632   0.848   3.854  11.337  0.1151  0.0565  0.1550
 7406TIP3    H143633   0.811   3.803  11.264 -0.7859  1.1515 -0.1798
 7406TIP3    H243634   0.772   3.889  11.383  0.7141  0.8664  0.5552
 7407TIP3   OH243635   4.111   6.571  12.953  0.0175  0.4954  0.4183
 7407TIP3    H143636   4.055   6.634  12.907  0.8846  0.8113 -0.2254
 7407TIP3    H243637   4.139   6.616  13.032 -0.0710  0.5926  0.3936
 7408TIP3   OH243638   1.715   1.622   2.467  0.1748 -0.2744  0.1280
 7408TIP3    H143639   1.620   1.625   2.481 -0.1973 -2.7740 -1.2709
 7408TIP3    H243640   1.752   1.638   2.554 -1.3540  3.2515  0.3003
 7409TIP3   OH243641   0.012   0.914   1.251 -0.0559  0.3497 -0.3782
 7409TIP3    H143642   0.047   1.002   1.242  1.1618 -0.2941 -2.6324
 7409TIP3    H243643   0.085   0.862   1.286 -0.5528  0.0780  0.2912
 7410TIP3   OH243644   6.692   4.604  16.663  0.5175  0.4104 -1.0349
 7410TIP3    H143645   6.749   4.678  16.642 -1.2384  1.9909 -0.4183
 7410TIP3    H243646   6.613   4.618  16.612 -0.1253 -0.6967 -0.3966
 7411TIP3   OH243647   5.125   2.611   5.953 -0.1081  0.0506 -0.0665
 7411TIP3    H143648   5.115   2.522   5.987  0.5940 -0.5517 -1.3749
 7411TIP3    H243649   5.212   2.637   5.980  0.0542 -0.0375 -0.4909
 7412TIP3   OH243650   3.637   4.303   2.203  0.2194 -0.4699 -0.8924
 7412TIP3    H143651   3.669   4.358   2.131  1.9388 -1.4116 -0.9119
 7412TIP3    H243652   3.695   4.227   2.202 -0.9893 -1.4425  0.2456
 7413TIP3   OH243653   6.036   6.352   3.485 -0.0878 -0.2034  0.1254
 7413TIP3    H143654   6.051   6.374   3.577 -1.2516 -1.3719  0.6370
 7413TIP3    H243655   6.103   6.287   3.464  0.4658  0.4009 -0.0033
 7414TIP3   OH243656   4.076   1.097   2.076 -0.4269 -0.1028  0.6725
 7414TIP3    H143657   4.089   1.151   2.154  1.3979  1.2950 -0.5185
 7414TIP3    H243658   4.125   1.017   2.094 -0.3021  0.0606  1.0765
 7415TIP3   OH243659   0.867   0.663   3.533  0.0188 -0.2178 -0.2469
 7415TIP3    H143660   0.935   0.659   3.466 -0.6553 -1.6095 -0.8846
 7415TIP3    H243661   0.785   0.668   3.484 -0.4626 -0.7589  0.4796
 7416TIP3   OH243662   6.046   3.459  15.670  0.4531  0.1422 -0.2094
 7416TIP3    H143663   6.063   3.388  15.732 -1.5069  0.7238  1.1267
 7416TIP3    H243664   6.009   3.416  15.593  1.1381 -0.4300 -0.2306
 7417TIP3   OH243665   2.984   3.925   1.960  0.0595 -0.2801 -0.5292
 7417TIP3    H143666   3.013   3.909   2.050 -0.7074  0.1802 -0.1894
 7417TIP3    H243667   2.909   3.983   1.969 -0.2732 -0.5471 -1.4502
 7418TIP3   OH243668   6.316   5.694  13.039  0.2226 -0.2701  0.6210
 7418TIP3    H143669   6.222   5.708  13.051  0.3955 -0.2716  2.2683
 7418TIP3    H243670   6.352   5.696  13.128  1.7547 -0.4995  0.0427
 7419TIP3   OH243671   2.347   3.703   0.256  0.1463 -0.4055 -0.3140
 7419TIP3    H143672   2.326   3.734   0.168  0.8270 -0.8920 -0.6508
 7419TIP3    H243673   2.431   3.745   0.276  0.4653 -1.0571 -0.2809
 7420TIP3   OH243674   4.638   1.683   4.588  0.1769  0.1221 -0.6837
 7420TIP3    H143675   4.556   1.697   4.541  0.2678 -0.3288 -0.9776
 7420TIP3    H243676   4.645   1.588   4.596 -0.2429  0.2075  0.9633
 7421TIP3   OH243677   2.045   5.839  12.385  0.1300 -0.3247 -0.1239
 7421TIP3    H143678   1.967   5.885  12.354 -0.1663 -0.7755 -0.0608
 7421TIP3    H243679   2.050   5.860  12.478 -0.5222 -1.1364  0.1060
 7422TIP3   OH243680   0.318   2.037  12.508  0.3917  0.0169 -0.0659
 7422TIP3    H143681   0.308   1.973  12.437  1.0549  0.2968 -0.4232
 7422TIP3    H243682   0.327   2.121  12.463 -0.8726  0.4334  0.4092
 7423TIP3   OH243683   5.705   4.472   4.144  0.0654 -0.0172 -0.4433
 7423TIP3    H143684   5.611   4.469   4.160  0.1693 -1.4772  0.0048
 7423TIP3    H243685   5.718   4.415   4.068  0.9456 -2.7728  1.5948
 7424TIP3   OH243686   4.558   4.321  12.685 -0.2299 -0.1200  0.1056
 7424TIP3    H143687   4.580   4.245  12.631  0.0785  0.2386 -0.2876
 7424TIP3    H243688   4.636   4.377  12.679  0.3374 -0.6598  1.9927
 7425TIP3   OH243689   4.145   1.648  16.960 -0.3874  0.2558 -0.0250
 7425TIP3    H143690   4.141   1.732  17.007 -1.2605 -0.0996  0.5680
 7425TIP3    H243691   4.103   1.586  17.020  1.8858 -0.9928  0.3502
 7426TIP3   OH243692   6.714   3.209   1.265  0.6735 -0.2176 -0.1678
 7426TIP3    H143693   6.646   3.226   1.330 -1.7159 -0.6128 -2.3935
 7426TIP3    H243694   6.729   3.115   1.269  0.9853 -0.1522  0.2201
 7427TIP3   OH243695   1.284   4.417  16.898  0.0977  0.1641 -0.1838
 7427TIP3    H143696   1.352   4.368  16.852  0.3348  0.2537  0.0692
 7427TIP3    H243697   1.202   4.378  16.869  0.3037 -0.7962  0.4943
 7428TIP3   OH243698   3.599   2.377   0.429 -0.2790 -0.6689  0.1475
 7428TIP3    H143699   3.619   2.369   0.522 -2.5501 -2.7813  0.5707
 7428TIP3    H243700   3.586   2.471   0.414  1.4137 -0.1578  1.6005
 7429TIP3   OH243701   3.746   1.103  16.050 -0.1207 -0.1851  0.5524
 7429TIP3    H143702   3.687   1.101  16.125 -1.7056 -0.9945 -0.6448
 7429TIP3    H243703   3.713   1.174  15.996  0.1052 -0.5360 -0.0571
 7430TIP3   OH243704   4.737   0.671   5.659  0.4186 -0.2325  0.4356
 7430TIP3    H143705   4.831   0.654   5.671  1.1082  1.7647 -1.5833
 7430TIP3    H243706   4.697   0.584   5.664  2.7030 -1.4977 -1.2829
 7431TIP3   OH243707   1.695   1.175   1.317  0.6405  0.0420  0.6141
 7431TIP3    H143708   1.699   1.127   1.400  2.4442 -1.2901 -0.1735
 7431TIP3    H243709   1.786   1.197   1.298  0.3267 -0.0891 -1.2321
 7432TIP3   OH243710   3.636   5.640   6.486 -0.0428  0.0862  0.2736
 7432TIP3    H143711   3.648   5.547   6.508  0.8281  0.3346  0.8983
 7432TIP3    H243712   3.548   5.660   6.516  0.4846 -0.0418  2.0305
 7433TIP3   OH243713   5.496   0.160   1.579 -0.2822 -0.0717  0.1592
 7433TIP3    H143714   5.584   0.191   1.558 -0.1828 -0.0445  0.5899
 7433TIP3    H243715   5.498   0.067   1.557 -0.3490  0.0694 -0.4404
 7434TIP3   OH243716   4.812   4.195  16.237 -0.0432  0.4800 -0.2873
 7434TIP3    H143717   4.779   4.130  16.174  1.2015  0.0220 -0.4956
 7434TIP3    H243718   4.881   4.241  16.189  1.3325 -0.2720  0.8992
 7435TIP3   OH243719   1.809   5.874  15.795 -0.3681  0.3361  0.1164
 7435TIP3    H143720   1.869   5.846  15.864  0.1436  0.6024 -0.2149
 7435TIP3    H243721   1.735   5.813  15.801 -0.9412  1.1437  1.7289
 7436TIP3   OH243722   5.786   2.308   5.036  0.2475 -0.1074 -0.2255
 7436TIP3    H143723   5.769   2.289   5.128  1.3942  0.2182  0.0623
 7436TIP3    H243724   5.699   2.318   4.997 -0.5231 -4.4352 -0.1284
 7437TIP3   OH243725   6.519   3.487  16.367  0.2340 -0.6702 -0.1437
 7437TIP3    H143726   6.444   3.506  16.423 -0.2286 -0.5186 -0.7937
 7437TIP3    H243727   6.553   3.403  16.399 -0.0098 -0.5739  0.3695
 7438TIP3   OH243728   1.387   1.361   3.200  0.3091 -0.0376  0.1956
 7438TIP3    H143729   1.462   1.303   3.215  2.4016  2.3075 -0.4337
 7438TIP3    H243730   1.338   1.360   3.282  2.1436 -0.1616  1.3350
 7439TIP3   OH243731   3.158   2.845  14.789  0.5981  0.5592 -0.0682
 7439TIP3    H143732   3.075   2.851  14.836  0.3408  0.6947 -0.5364
 7439TIP3    H243733   3.208   2.778  14.836  0.0042  0.0717 -0.1226
 7440TIP3   OH243734   4.917   6.028  13.886 -0.2432 -0.2911  0.1456
 7440TIP3    H143735   4.849   6.045  13.821 -0.4316 -0.6717  0.2408
 7440TIP3    H243736   4.871   5.981  13.956  0.2063 -0.9323  0.0168
 7441TIP3   OH243737   0.114   3.109  13.926 -0.0775  0.0815 -0.4877
 7441TIP3    H143738   0.046   3.105  13.859 -1.1891 -1.2232  0.6617
 7441TIP3    H243739   0.142   3.201  13.926 -1.7389  0.6222 -1.0823
 7442TIP3   OH243740   4.906   6.702  13.780  0.2480 -0.6879 -0.2580
 7442TIP3    H143741   4.863   6.725  13.862  1.1183 -1.8449  0.5593
 7442TIP3    H243742   4.994   6.675  13.806 -0.0146 -2.7884 -1.3476
 7443TIP3   OH243743   0.927   6.507   4.703  0.3558  0.7351 -0.2283
 7443TIP3    H143744   0.893   6.597   4.705  0.1047  0.6448  2.4198
 7443TIP3    H243745   1.022   6.517   4.693  0.0972  1.1382 -2.8997
 7444TIP3   OH243746   1.942   5.056  14.812  0.2856  0.0228  0.1855
 7444TIP3    H143747   1.961   5.039  14.720 -2.1237 -2.6452  0.0403
 7444TIP3    H243748   1.947   5.152  14.820  0.9586  0.3165 -2.5863
 7445TIP3   OH243749   3.985   5.705  15.178 -0.3784 -0.6482  0.1455
 7445TIP3    H143750   3.991   5.793  15.215  0.3344 -0.8529  0.5284
 7445TIP3    H243751   3.912   5.664  15.226 -0.8158 -0.2197 -0.1444
 7446TIP3   OH243752   4.828   1.190   0.505  0.0900 -0.3432 -0.4799
 7446TIP3    H143753   4.844   1.186   0.599 -3.0601  2.3443  0.3517
 7446TIP3    H243754   4.912   1.217   0.467  1.1892 -0.5869  1.6398
 7447TIP3   OH243755   2.534   2.225  15.859 -0.2883 -0.0682 -0.3589
 7447TIP3    H143756   2.502   2.210  15.948 -1.8183  0.8696 -0.6989
 7447TIP3    H243757   2.584   2.146  15.837  2.3142  0.7001  2.1951
 7448TIP3   OH243758   3.957   1.857  14.866  0.2441  0.4592 -0.2075
 7448TIP3    H143759   3.902   1.797  14.916  0.8986 -0.5564 -0.6658
 7448TIP3    H243760   4.012   1.901  14.932  0.2284  0.0578  0.0720
 7449TIP3   OH243761   1.341   6.690   3.210 -0.2260  0.1061  0.3148
 7449TIP3    H143762   1.276   6.760   3.212 -0.4616 -0.1271  1.2338
 7449TIP3    H243763   1.344   6.663   3.118 -3.6146 -1.8742  0.6014
 7450TIP3   OH243764   6.341   6.666   3.596  0.2030  0.3042 -0.3893
 7450TIP3    H143765   6.399   6.590   3.588  0.8100  0.5607  1.1763
 7450TIP3    H243766   6.387   6.725   3.657 -0.7155  1.4862 -0.7916
 7451TIP3   OH243767   2.159   5.852  11.316  0.0360  0.3599  0.7787
 7451TIP3    H143768   2.237   5.820  11.361  0.0269 -0.0727  0.4879
 7451TIP3    H243769   2.120   5.774  11.277 -0.6437  0.5401  1.0792
 7452TIP3   OH243770   1.470   6.259  12.475 -0.3860  0.4350 -0.0192
 7452TIP3    H143771   1.475   6.300  12.389 -1.0888  0.5976  0.0129
 7452TIP3    H243772   1.557   6.274  12.513 -0.1692  0.6308 -0.5735
 7453TIP3   OH243773   1.665   2.828  13.863 -0.5107 -0.3689 -0.0890
 7453TIP3    H143774   1.755   2.818  13.893 -1.4858 -0.3911  3.1844
 7453TIP3    H243775   1.620   2.750  13.895 -1.6897 -0.4886 -1.8996
 7454TIP3   OH243776   0.763   5.852   2.128  0.1659 -0.2355 -0.2757
 7454TIP3    H143777   0.846   5.810   2.153  0.8721  1.1367 -0.1961
 7454TIP3    H243778   0.783   5.946   2.131 -1.2426  0.0942 -0.8286
 7455TIP3   OH243779   2.930   6.634  16.830 -0.0530 -0.3192  0.0369
 7455TIP3    H143780   2.885   6.550  16.842  0.6871 -0.6031  0.9973
 7455TIP3    H243781   2.923   6.653  16.736  0.3061 -1.7729 -0.3048
 7456TIP3   OH243782   6.189   5.336  17.120 -0.7255  0.2108  0.1630
 7456TIP3    H143783   6.259   5.279  17.149 -0.3862  1.0058  0.9411
 7456TIP3    H243784   6.161   5.299  17.036 -0.9979 -1.4941  0.9701
 7457TIP3   OH243785   5.633   6.026   3.326  0.5950  0.0237  0.2361
 7457TIP3    H143786   5.712   6.054   3.281  0.1477  0.5511 -0.2382
 7457TIP3    H243787   5.629   6.079   3.405  0.1388  0.7858 -0.2914
 7458TIP3   OH243788   0.461   3.122   0.021 -0.3579 -0.1753  0.1365
 7458TIP3    H143789   0.459   3.079   0.107  0.4292 -0.4928  0.0076
 7458TIP3    H243790   0.498   3.056  -0.038 -0.0120  0.3600 -0.2586
 7459TIP3   OH243791   5.810   1.147  15.382  0.6689 -0.2113 -0.0645
 7459TIP3    H143792   5.770   1.104  15.458 -0.5658  1.4973  0.3341
 7459TIP3    H243793   5.786   1.093  15.308 -0.9012 -0.2157  0.4034
 7460TIP3   OH243794   2.510   5.121  13.933 -0.3289  0.3796  0.3170
 7460TIP3    H143795   2.440   5.118  13.999 -0.8278  1.7958 -0.1140
 7460TIP3    H243796   2.588   5.145  13.982  0.0473 -1.7907  0.9041
 7461TIP3   OH243797   0.605   0.454  17.130  0.4519 -0.1089 -0.3324
 7461TIP3    H143798   0.582   0.539  17.091  0.1796 -0.0448 -0.0433
 7461TIP3    H243799   0.520   0.413  17.148  0.5851 -0.4110 -0.4062
 7462TIP3   OH243800   1.180   0.215   2.566 -0.1537 -0.3901 -0.9194
 7462TIP3    H143801   1.203   0.185   2.478  3.0070  1.7780 -0.9933
 7462TIP3    H243802   1.145   0.303   2.553  1.7249  0.5349  0.0377
 7463TIP3   OH243803   4.355   3.828  16.845 -1.0227 -0.0295  0.4599
 7463TIP3    H143804   4.284   3.878  16.884  0.3452  1.3823  1.2159
 7463TIP3    H243805   4.425   3.892  16.829 -0.3078 -1.1543 -1.3055
 7464TIP3   OH243806   3.521   0.645   1.480 -0.3287  0.3321  0.4834
 7464TIP3    H143807   3.511   0.556   1.446 -2.5880  1.0289 -0.8956
 7464TIP3    H243808   3.582   0.687   1.419 -1.1391  0.3997 -0.2881
 7465TIP3   OH243809   2.782   6.014  13.099  0.5405  0.1445  0.4749
 7465TIP3    H143810   2.821   5.941  13.051 -0.2973 -0.1759  0.2712
 7465TIP3    H243811   2.718   6.051  13.038  3.5325  3.4966 -0.9951
 7466TIP3   OH243812   0.793   5.051  15.771  0.3840 -0.1418 -0.7140
 7466TIP3    H143813   0.747   5.106  15.834  0.8722 -0.0229 -0.4595
 7466TIP3    H243814   0.860   5.006  15.822  0.0989 -0.8483 -0.9526
 7467TIP3   OH243815   0.631   4.970  14.040  0.1151 -0.1340 -0.2936
 7467TIP3    H143816   0.637   4.993  14.133 -1.8308  0.4759 -0.2893
 7467TIP3    H243817   0.553   4.916  14.033  1.0252 -1.3825 -1.3917
 7468TIP3   OH243818   1.833   6.759   5.450 -0.8314  0.3069 -0.1955
 7468TIP3    H143819   1.836   6.681   5.506 -1.2748 -0.5681 -1.3523
 7468TIP3    H243820   1.872   6.828   5.503  1.7134 -1.2080  0.0660
 7469TIP3   OH243821   5.909   5.003  16.350 -0.7467  0.1722  0.0950
 7469TIP3    H143822   5.977   4.936  16.362 -1.3619 -0.2474  1.3192
 7469TIP3    H243823   5.827   4.957  16.363 -1.2318  0.9463 -0.1533
 7470TIP3   OH243824   3.570   4.674   1.955  0.0320 -0.4512 -0.4164
 7470TIP3    H143825   3.597   4.582   1.948 -0.4564 -0.5510 -1.2003
 7470TIP3    H243826   3.520   4.678   2.037  0.8075 -0.6819  0.0742
 7471TIP3   OH243827   6.596   3.514   4.120  0.1422 -0.4940 -0.5642
 7471TIP3    H143828   6.653   3.514   4.043  3.4008  1.2969  1.5929
 7471TIP3    H243829   6.537   3.588   4.106  0.6231 -0.2588 -1.4074
 7472TIP3   OH243830   4.409   4.215   3.537 -0.4055 -1.0207  0.7748
 7472TIP3    H143831   4.315   4.231   3.545 -0.3139  0.6466 -0.7326
 7472TIP3    H243832   4.434   4.262   3.458  1.9541 -0.1973  1.9211
 7473TIP3   OH243833   4.542   4.065  16.924 -0.4239 -0.3659  0.4183
 7473TIP3    H143834   4.532   4.158  16.943 -0.1758 -0.4969  1.2314
 7473TIP3    H243835   4.636   4.050  16.924 -0.4371 -0.4817 -0.4227
 7474TIP3   OH243836   0.667   0.447  15.663  0.0764  0.2123 -0.0694
 7474TIP3    H143837   0.655   0.476  15.572 -0.5502 -0.9355 -0.3712
 7474TIP3    H243838   0.704   0.524  15.708  1.2146  0.5303 -1.4683
 7475TIP3   OH243839   1.563   3.387  17.151 -0.3620 -0.8517 -0.1279
 7475TIP3    H143840   1.479   3.400  17.194  0.4989  2.9854  0.7903
 7475TIP3    H243841   1.562   3.449  17.078  2.1176  0.4177  0.7901
 7476TIP3   OH243842   4.104   6.111   0.866  0.1186  0.2539  0.1359
 7476TIP3    H143843   4.088   6.080   0.955 -0.7224  0.1672 -0.0370
 7476TIP3    H243844   4.035   6.176   0.850  1.2331  1.4697  0.1183
 7477TIP3   OH243845   6.784   1.438   5.607  0.5714  0.1394 -0.3734
 7477TIP3    H143846   6.729   1.485   5.670 -0.4259 -0.5476 -0.7139
 7477TIP3    H243847   6.826   1.370   5.659  0.3790  0.0850 -0.2861
 7478TIP3   OH243848   6.101   2.731  16.877  0.1729  0.1453  0.0427
 7478TIP3    H143849   6.159   2.718  16.951  0.4698  0.1677 -0.1861
 7478TIP3    H243850   6.153   2.709  16.800 -0.2822 -0.3543 -0.1320
 7479TIP3   OH243851   5.087   6.096   0.877 -0.0659 -0.1693  0.0977
 7479TIP3    H143852   5.153   6.079   0.810 -1.5457  1.1009 -1.8164
 7479TIP3    H243853   5.038   6.014   0.884 -0.0969 -0.2162 -0.6295
 7480TIP3   OH243854   3.930   2.423   5.681 -0.0379  0.7253 -0.0535
 7480TIP3    H143855   3.894   2.338   5.659  0.1804  0.7047 -0.3311
 7480TIP3    H243856   3.854   2.481   5.687 -0.3423  0.2127  1.5601
 7481TIP3   OH243857   2.905   6.057  16.932 -0.4820  0.1427  0.4682
 7481TIP3    H143858   2.882   6.096  16.848  0.0296 -1.2193 -0.3497
 7481TIP3    H243859   2.902   5.962  16.916  0.0684 -0.1383  1.8634
 7482TIP3   OH243860   4.463   0.628   1.894  0.2869 -0.2824  0.0093
 7482TIP3    H143861   4.480   0.575   1.971 -0.3120  0.1272  0.4327
 7482TIP3    H243862   4.431   0.712   1.928  1.1110  0.3231 -0.6478
 7483TIP3   OH243863   5.672   0.704   1.974  0.0097  0.0143  0.0673
 7483TIP3    H143864   5.579   0.680   1.977 -0.6507  2.3497  0.5698
 7483TIP3    H243865   5.717   0.623   1.950 -1.9312 -1.7270  1.8798
 7484TIP3   OH243866   2.216   2.501  12.078  0.0516  0.2159  0.4685
 7484TIP3    H143867   2.201   2.594  12.061 -1.5719 -0.2455 -0.9766
 7484TIP3    H243868   2.298   2.481  12.033 -1.0692  0.3741 -1.7801
 7485TIP3   OH243869   3.405   3.783   2.488 -0.0802  0.6619 -0.9217
 7485TIP3    H143870   3.357   3.843   2.544 -0.3769  0.1637 -0.6303
 7485TIP3    H243871   3.374   3.696   2.514 -1.0128  0.4495 -2.5351
 7486TIP3   OH243872   0.251   3.984  12.447 -0.0854  0.2177 -0.5266
 7486TIP3    H143873   0.318   4.022  12.391  1.3182 -1.5506 -0.1342
 7486TIP3    H243874   0.280   4.004  12.536  0.1296 -0.8542 -0.3466
 7487TIP3   OH243875   4.137   5.242  15.401 -0.1186 -0.3893 -0.9677
 7487TIP3    H143876   4.091   5.325  15.412  1.0333  0.3526 -1.5374
 7487TIP3    H243877   4.163   5.241  15.309 -1.0133 -1.8765 -1.2377
 7488TIP3   OH243878   6.576   5.850   4.093 -0.9104 -0.1529  0.4779
 7488TIP3    H143879   6.608   5.850   4.003 -0.7552  1.7448  0.4903
 7488TIP3    H243880   6.539   5.763   4.106  0.0784 -0.8275 -1.0440
 7489TIP3   OH243881   3.119   5.377   4.222  0.1002  0.3330  0.2445
 7489TIP3    H143882   3.134   5.453   4.279 -1.3947  1.2354 -0.4694
 7489TIP3    H243883   3.157   5.403   4.138  0.1824  0.0116  0.1843
 7490TIP3   OH243884   3.510   5.265   4.606  0.2606 -0.2208  0.1335
 7490TIP3    H143885   3.526   5.354   4.574 -1.4634 -0.3295 -1.1710
 7490TIP3    H243886   3.416   5.262   4.624  0.1962 -1.8990 -0.3040
 7491TIP3   OH243887   5.897   6.502   5.357  0.0145 -0.2592  0.2415
 7491TIP3    H143888   5.959   6.455   5.411 -1.7049  0.1770  2.7566
 7491TIP3    H243889   5.811   6.479   5.393 -1.0833  1.8768 -0.8082
 7492TIP3   OH243890   5.486   2.795  16.600  0.4524 -0.4251 -0.3412
 7492TIP3    H143891   5.571   2.840  16.605  1.4305 -2.0789 -1.3849
 7492TIP3    H243892   5.435   2.849  16.540  2.1952 -1.4579 -2.9523
 7493TIP3   OH243893   1.370   4.740   2.600  0.0570 -0.1971  0.2935
 7493TIP3    H143894   1.331   4.764   2.516  1.5452  0.2356 -0.3028
 7493TIP3    H243895   1.422   4.817   2.626  0.6040 -0.7814  0.9958
 7494TIP3   OH243896   0.240   0.812   1.374  0.2086 -0.5044  0.5650
 7494TIP3    H143897   0.286   0.753   1.314 -1.6726 -0.3204 -1.1496
 7494TIP3    H243898   0.165   0.760   1.405  1.2104 -0.6430  2.9244
 7495TIP3   OH243899   0.770   0.040   1.397 -0.1266  0.1165  0.3510
 7495TIP3    H143900   0.787   0.049   1.491  2.0689  1.3226 -0.1081
 7495TIP3    H243901   0.682   0.078   1.386  0.5203  2.1878  1.6159
 7496TIP3   OH243902   2.992   2.511  14.701 -0.4526  0.0189  0.2508
 7496TIP3    H143903   2.939   2.531  14.779  1.6911  1.7840  1.3502
 7496TIP3    H243904   3.056   2.581  14.697 -0.0800 -0.3823 -2.8084
 7497TIP3   OH243905   0.780   1.810   2.325 -0.1546  0.2864 -0.9202
 7497TIP3    H143906   0.850   1.867   2.356 -0.1952 -0.1346 -0.0101
 7497TIP3    H243907   0.810   1.722   2.348  0.0716 -0.1026 -2.6190
 7498TIP3   OH243908   5.065   2.967  16.002 -0.1564 -0.0430  0.0369
 7498TIP3    H143909   5.103   2.985  16.088 -1.4420 -0.3643  0.6901
 7498TIP3    H243910   5.103   3.035  15.945  0.0964  0.6633  1.0226
 7499TIP3   OH243911   1.826   6.466   0.279  0.2159  0.1946  0.1233
 7499TIP3    H143912   1.823   6.555   0.246 -1.7335  0.4780  0.9262
 7499TIP3    H243913   1.754   6.461   0.341  0.8925 -1.6654  0.8392
 7500TIP3   OH243914   4.659   0.190   2.933  0.1358  0.0849  0.4992
 7500TIP3    H143915   4.689   0.139   2.858  0.9701 -0.5050  1.2183
 7500TIP3    H243916   4.681   0.281   2.909 -0.7784  0.0639 -0.5059
 7501TIP3   OH243917   6.692   1.568  16.988 -0.6535 -0.5808  0.0018
 7501TIP3    H143918   6.672   1.639  17.049 -0.6912 -2.8523  2.8460
 7501TIP3    H243919   6.645   1.592  16.908  1.7420  4.0193 -0.3678
 7502TIP3   OH243920   1.127   0.325  12.287 -0.1356  0.7397 -0.2438
 7502TIP3    H143921   1.127   0.244  12.237 -1.4892  2.2171 -2.9189
 7502TIP3    H243922   1.132   0.298  12.378 -3.7675 -2.5438 -0.7738
 7503TIP3   OH243923   2.449   4.475   0.887 -0.1032 -0.2201  0.1149
 7503TIP3    H143924   2.403   4.478   0.971  0.6321 -1.0769  0.5676
 7503TIP3    H243925   2.535   4.437   0.908  0.4285  0.3874 -0.8773
 7504TIP3   OH243926   4.491   4.217   2.340  0.1257 -0.0847 -0.2703
 7504TIP3    H143927   4.511   4.193   2.430 -0.7664  1.1256  0.2882
 7504TIP3    H243928   4.493   4.135   2.292 -1.4292 -1.1115  1.2686
 7505TIP3   OH243929   0.829   5.927   0.762 -0.0025 -0.4047 -0.0081
 7505TIP3    H143930   0.737   5.905   0.771  0.3028 -1.6399  0.2559
 7505TIP3    H243931   0.830   6.001   0.701 -0.9223 -2.8103 -3.2370
 7506TIP3   OH243932   5.496   5.110   4.305  0.3082 -0.1522  0.2702
 7506TIP3    H143933   5.498   5.068   4.219  1.1056 -0.7949  0.5992
 7506TIP3    H243934   5.588   5.121   4.329  0.0987  0.6234  0.7580
 7507TIP3   OH243935   6.655   1.307   0.307  0.6653  0.4885  0.2676
 7507TIP3    H143936   6.614   1.227   0.275  2.1813 -0.4581  0.5612
 7507TIP3    H243937   6.717   1.331   0.238 -0.5119  2.0570 -0.3097
 7508TIP3   OH243938   6.722   4.690   2.031 -0.0389  0.6678 -0.6798
 7508TIP3    H143939   6.643   4.647   1.997 -0.2828  0.6902 -0.1520
 7508TIP3    H243940   6.789   4.670   1.966  0.1206 -1.3819  0.0299
 7509TIP3   OH243941   0.542   3.397  15.525 -0.3302  0.1003 -0.1106
 7509TIP3    H143942   0.607   3.450  15.571 -1.2591 -0.1178  1.5246
 7509TIP3    H243943   0.534   3.438  15.439  0.3886  1.4247  0.4287
 7510TIP3   OH243944   1.989   6.740   4.357 -0.2127  0.0609 -0.1029
 7510TIP3    H143945   1.968   6.651   4.327 -1.9638  0.4100 -0.0222
 7510TIP3    H243946   2.038   6.778   4.284  1.5669 -1.2959  0.3106
 7511TIP3   OH243947   4.147   4.597   2.712 -0.0337 -0.6202 -0.2120
 7511TIP3    H143948   4.236   4.561   2.711 -0.0179 -0.6643  0.9800
 7511TIP3    H243949   4.125   4.604   2.805 -0.2176  2.0344 -0.3810
 7512TIP3   OH243950   6.591   6.358   1.982 -0.2612  0.3264  0.2349
 7512TIP3    H143951   6.552   6.307   2.053 -1.3415 -0.2702 -0.7549
 7512TIP3    H243952   6.651   6.418   2.027  0.6726 -1.4236  1.4774
 7513TIP3   OH243953   3.810   6.243   1.614 -0.5701 -0.0003 -0.1262
 7513TIP3    H143954   3.781   6.182   1.682 -2.0740  2.5618  1.6912
 7513TIP3    H243955   3.751   6.228   1.540  0.2028 -1.8669 -0.4155
 7514TIP3   OH243956   2.490   5.715   5.733  0.2762 -0.7694  0.3028
 7514TIP3    H143957   2.400   5.698   5.704  0.0330  0.7258  0.0810
 7514TIP3    H243958   2.487   5.706   5.828 -0.8973  2.1645  0.6689
 7515TIP3   OH243959   1.132   0.533   2.954  0.1364 -0.5338 -0.1451
 7515TIP3    H143960   1.064   0.473   2.923 -1.9728  1.6694 -0.0793
 7515TIP3    H243961   1.198   0.533   2.884 -1.5022 -0.3534 -1.7694
 7516TIP3   OH243962   1.470   3.710  11.841  0.1560 -0.4911 -0.1395
 7516TIP3    H143963   1.495   3.710  11.933  0.6973 -0.5915 -0.2834
 7516TIP3    H243964   1.492   3.798  11.810 -0.3497 -0.3448 -0.0896
 7517TIP3   OH243965   1.385   0.905  11.588 -0.2620  0.1670 -0.2831
 7517TIP3    H143966   1.385   0.996  11.619 -2.8544  0.7072 -1.6285
 7517TIP3    H243967   1.356   0.911  11.497  0.4878 -1.9539 -0.7074
 7518TIP3   OH243968   5.161   2.051  12.376  0.2639 -0.2220 -0.3763
 7518TIP3    H143969   5.153   2.061  12.281 -1.7071  1.8755 -0.0923
 7518TIP3    H243970   5.139   2.137  12.411  1.3573 -0.8189  2.0080
 7519TIP3   OH243971   2.390   4.754   0.764 -0.4245  0.0026 -0.1381
 7519TIP3    H143972   2.424   4.670   0.795  0.5418  0.5831  0.4455
 7519TIP3    H243973   2.363   4.800   0.843  0.1899  0.7102 -0.3186
 7520TIP3   OH243974   5.681   2.686  14.553 -0.5521 -0.4340  0.4789
 7520TIP3    H143975   5.624   2.632  14.498  0.1839  0.3583 -1.1292
 7520TIP3    H243976   5.644   2.774  14.547  1.7548  0.4912 -2.0902
 7521TIP3   OH243977   5.205   0.375  16.399 -0.5720  0.4059 -0.5615
 7521TIP3    H143978   5.136   0.425  16.444 -0.3483 -1.4301  2.0020
 7521TIP3    H243979   5.287   0.414  16.431 -0.3871  0.9618 -1.6765
 7522TIP3   OH243980   3.509   1.339  12.349  0.2482  0.5780  0.5987
 7522TIP3    H143981   3.486   1.292  12.429  1.1305 -0.3994  0.2992
 7522TIP3    H243982   3.489   1.277  12.278  2.8338 -0.0092  0.2713
 7523TIP3   OH243983   2.896   6.143   5.589  0.3908 -0.8714  0.3613
 7523TIP3    H143984   2.977   6.138   5.639 -0.2458  1.5954  1.8258
 7523TIP3    H243985   2.827   6.137   5.655 -0.4999  0.9463 -0.3450
 7524TIP3   OH243986   4.590   4.393   0.330  0.3857 -0.7491  0.2748
 7524TIP3    H143987   4.535   4.329   0.284  0.0537 -1.9369  2.2013
 7524TIP3    H243988   4.553   4.396   0.419  0.7379  1.7459  0.4047
 7525TIP3   OH243989   1.680   3.349  15.383  0.4324  0.5895 -0.2867
 7525TIP3    H143990   1.731   3.333  15.462  0.9300 -1.8960 -1.0168
 7525TIP3    H243991   1.631   3.429  15.401 -0.6227 -0.6822  3.0991
 7526TIP3   OH243992   0.292   2.369  11.843  0.2436  0.2567  0.3263
 7526TIP3    H143993   0.284   2.274  11.850  0.5993  0.1535 -0.5529
 7526TIP3    H243994   0.292   2.386  11.749 -0.0062  1.1451  0.4807
 7527TIP3   OH243995   0.876   3.378   6.187 -0.7973  0.3735  0.0170
 7527TIP3    H143996   0.912   3.428   6.114 -1.1106  0.7923  0.1443
 7527TIP3    H243997   0.840   3.445   6.246 -1.4543 -0.0079  0.0619
 7528TIP3   OH243998   4.395   0.808   2.928  0.7951 -0.0067 -0.3355
 7528TIP3    H143999   4.404   0.712   2.929 -1.8961 -0.3454  1.6257
 7528TIP3    H244000   4.304   0.823   2.902  0.2230  1.8219  2.3807
 7529TIP3   OH244001   5.801   6.469  12.577 -0.4438  0.1591  0.1582
 7529TIP3    H144002   5.880   6.415  12.567 -0.9520 -0.7373  0.8978
 7529TIP3    H244003   5.733   6.421  12.531 -0.5618  1.0020 -0.5962
 7530TIP3   OH244004   2.271   4.650  13.318 -0.0766 -0.4231 -0.3561
 7530TIP3    H144005   2.242   4.588  13.385  0.0740 -1.5563 -1.3002
 7530TIP3    H244006   2.200   4.652  13.254 -0.3056  0.8001 -0.0877
 7531TIP3   OH244007   6.071   2.151  14.395 -0.2211  0.6521  0.0488
 7531TIP3    H144008   6.158   2.125  14.425 -0.1748 -0.6659 -1.1466
 7531TIP3    H244009   6.082   2.167  14.301 -1.3143  0.2627 -0.1537
 7532TIP3   OH244010   1.268   3.075   6.624  0.6714  0.5347 -0.3680
 7532TIP3    H144011   1.302   3.163   6.612 -0.7265  1.1227 -0.2719
 7532TIP3    H244012   1.206   3.063   6.552 -0.0627  0.1168  0.3139
 7533TIP3   OH244013   0.205   5.086  16.606 -0.5159  0.0313  0.5591
 7533TIP3    H144014   0.279   5.125  16.560 -0.9038  0.7361  0.5216
 7533TIP3    H244015   0.231   4.995  16.622 -0.2342 -0.1257 -0.7303
 7534TIP3   OH244016   0.929   4.153   0.937 -0.3209 -0.6345  0.2967
 7534TIP3    H144017   0.948   4.232   0.987  0.4919 -0.8285  0.3048
 7534TIP3    H244018   0.869   4.103   0.992  1.0357 -1.1394  1.3736
 7535TIP3   OH244019   5.215   6.720   4.074  0.4989 -0.1196  0.2449
 7535TIP3    H144020   5.274   6.653   4.108  0.1616 -0.8021 -0.4797
 7535TIP3    H244021   5.199   6.694   3.983  0.6715  1.1620 -0.1666
 7536TIP3   OH244022   2.137   5.342  14.163  0.1813  0.2580 -0.3156
 7536TIP3    H144023   2.186   5.301  14.235 -0.2481  0.3848  0.0503
 7536TIP3    H244024   2.189   5.419  14.140  1.4922 -0.9534 -1.6336
 7537TIP3   OH244025   4.265   1.056   1.764 -0.0348  0.2250 -0.3777
 7537TIP3    H144026   4.258   1.138   1.813  1.1135 -0.7399  1.5183
 7537TIP3    H244027   4.293   1.083   1.676  0.2987  1.8524  0.1873
 7538TIP3   OH244028   1.731   5.766  11.389 -0.2640  0.0491 -0.0841
 7538TIP3    H144029   1.775   5.850  11.399 -1.9068  0.9565  0.0132
 7538TIP3    H244030   1.772   5.726  11.312 -0.8946  1.9556 -1.4884
 7539TIP3   OH244031   3.555   3.818  16.819 -0.1909  0.8657 -0.0802
 7539TIP3    H144032   3.584   3.907  16.838 -0.9992  1.0374  0.3755
 7539TIP3    H244033   3.499   3.794  16.893  0.0209 -0.0267 -0.1946
 7540TIP3   OH244034   0.113   2.062   0.952  0.2880 -0.0124  0.2031
 7540TIP3    H144035   0.032   2.097   0.915 -0.0877 -0.9863  0.0906
 7540TIP3    H244036   0.128   2.116   1.030 -1.4702 -0.9684  1.2767
 7541TIP3   OH244037   0.211   0.915  11.582  0.4219  0.2887 -0.3630
 7541TIP3    H144038   0.304   0.915  11.602  0.4877  1.2839 -0.5768
 7541TIP3    H244039   0.170   0.954  11.660  0.4583  2.1284 -1.2016
 7542TIP3   OH244040   5.385   3.592   4.354 -0.4304 -0.0079 -0.3012
 7542TIP3    H144041   5.434   3.673   4.369 -0.5382 -0.0622  0.3627
 7542TIP3    H244042   5.339   3.576   4.436 -2.2556  0.4952 -1.1724
 7543TIP3   OH244043   0.339   4.772   3.764  0.7476  0.0531 -0.8139
 7543TIP3    H144044   0.401   4.824   3.814 -1.0990  1.8266 -0.2256
 7543TIP3    H244045   0.334   4.815   3.679  0.0589  0.1574 -0.7265
 7544TIP3   OH244046   4.187   0.026   5.424  0.4736 -0.4796  0.5352
 7544TIP3    H144047   4.191   0.030   5.520 -0.4385 -0.3852  0.5788
 7544TIP3    H244048   4.279   0.030   5.396  0.8186 -1.4939  1.4374
 7545TIP3   OH244049   0.523   6.474   4.037  0.6128  0.5458 -0.3985
 7545TIP3    H144050   0.584   6.405   4.066 -1.3071 -0.8100  0.6578
 7545TIP3    H244051   0.471   6.432   3.969  0.1422  1.3357 -0.5336
 7546TIP3   OH244052   2.032   4.566  11.232 -0.2703  0.1138  0.4070
 7546TIP3    H144053   1.965   4.553  11.165 -1.9382  0.9260  1.8345
 7546TIP3    H244054   2.032   4.661  11.247  1.0064  0.0901  0.6429
 7547TIP3   OH244055   3.672   6.193   4.763  0.0287  0.8277 -0.5622
 7547TIP3    H144056   3.585   6.166   4.790  0.1667  1.0317  0.1011
 7547TIP3    H244057   3.712   6.228   4.842  0.8678  0.3409 -0.7520
 7548TIP3   OH244058   2.525   3.367  14.903  0.5091 -0.8303  0.2261
 7548TIP3    H144059   2.611   3.326  14.914  0.6583 -1.4354 -2.4888
 7548TIP3    H244060   2.480   3.311  14.840 -0.9781  0.7858 -0.2154
 7549TIP3   OH244061   2.303   3.730   4.746 -0.7330  0.0737  0.3447
 7549TIP3    H144062   2.280   3.637   4.748  2.4170 -0.9957 -2.7616
 7549TIP3    H244063   2.281   3.759   4.657  2.8397  0.7667 -0.4904
 7550TIP3   OH244064   3.645   1.165  13.371  0.2665 -0.6594 -0.2770
 7550TIP3    H144065   3.631   1.239  13.312  1.2189 -1.1414 -1.1262
 7550TIP3    H244066   3.610   1.089  13.324 -3.6390 -0.4512  1.8079
 7551TIP3   OH244067   4.173   2.493  11.258  0.0110 -0.2706  0.5253
 7551TIP3    H144068   4.140   2.498  11.168 -1.0157 -0.6807  0.8685
 7551TIP3    H244069   4.187   2.400  11.273  0.6553 -0.1601  0.6323
 7552TIP3   OH244070   0.939   1.612   3.843 -0.1867  0.0632 -0.1154
 7552TIP3    H144071   0.914   1.530   3.886  0.5177  0.4051  0.9775
 7552TIP3    H244072   0.960   1.586   3.753  1.5867 -1.2470  0.6158
 7553TIP3   OH244073   1.752   1.217  12.507 -0.4650 -0.3549 -0.0796
 7553TIP3    H144074   1.776   1.262  12.426 -1.2732 -0.0888 -0.1842
 7553TIP3    H244075   1.685   1.274  12.546 -2.2014 -1.8972 -0.6702
 7554TIP3   OH244076   4.632   0.871   3.669 -0.5342 -0.3826 -0.5120
 7554TIP3    H144077   4.554   0.817   3.660  0.1368 -1.2521 -1.3736
 7554TIP3    H244078   4.673   0.869   3.583  1.4971 -1.6329  0.3963
 7555TIP3   OH244079   6.756   3.390   4.917  0.7301 -0.1836  0.6721
 7555TIP3    H144080   6.842   3.388   4.960  0.3080  0.8711  1.6037
 7555TIP3    H244081   6.753   3.475   4.874 -0.0456  0.0057  1.0801
 7556TIP3   OH244082   2.345   4.490   6.367  0.2080 -0.3147  0.0296
 7556TIP3    H144083   2.423   4.544   6.374 -1.4920  2.3857 -0.4163
 7556TIP3    H244084   2.361   4.416   6.426  1.9494  1.6006  2.1139
 7557TIP3   OH244085   3.068   5.801  14.416  0.3400  0.6651 -0.5170
 7557TIP3    H144086   2.998   5.745  14.384  1.3204  0.0230 -1.6307
 7557TIP3    H244087   3.036   5.890  14.405 -1.3952  0.3916  1.6222
 7558TIP3   OH244088   4.465   2.810   3.668  0.3735 -0.1446 -0.7463
 7558TIP3    H144089   4.445   2.865   3.592  1.0479 -1.1839 -1.6965
 7558TIP3    H244090   4.494   2.727   3.631 -1.1371 -1.3646  0.6593
 7559TIP3   OH244091   3.813   0.308   1.252 -0.4622 -0.0745 -0.1219
 7559TIP3    H144092   3.801   0.229   1.305 -0.4276  0.7357  1.1353
 7559TIP3    H244093   3.811   0.380   1.315  0.2419  0.8872 -1.1510
 7560TIP3   OH244094   2.503   3.596   0.024  0.0252 -0.4721 -0.1585
 7560TIP3    H144095   2.453   3.642  -0.043 -0.8154 -0.6522  0.3281
 7560TIP3    H244096   2.472   3.634   0.107  1.6564  0.3665  0.1276
 7561TIP3   OH244097   2.631   3.403   5.991  0.1542 -0.4766  0.1670
 7561TIP3    H144098   2.590   3.335   6.045 -2.1034 -0.5353 -1.4660
 7561TIP3    H244099   2.672   3.355   5.918 -0.9479 -0.1723 -0.6830
 7562TIP3   OH244100   2.419   3.784  16.972 -0.5280  0.6132  0.3293
 7562TIP3    H144101   2.394   3.801  16.881 -1.4767 -0.7721  0.2935
 7562TIP3    H244102   2.474   3.706  16.968  0.3855  1.2080  0.8526
 7563TIP3   OH244103   5.349   2.288   5.501 -0.1201 -0.0932  0.2935
 7563TIP3    H144104   5.263   2.325   5.522 -0.2261  1.1881 -2.0549
 7563TIP3    H244105   5.334   2.234   5.423  0.7355 -2.1799  1.4988
 7564TIP3   OH244106   5.024   2.696   1.926 -0.0839  0.2871 -0.3046
 7564TIP3    H144107   4.977   2.663   2.002  0.6249  1.3744  0.6296
 7564TIP3    H244108   5.112   2.716   1.958  1.0067 -1.4580 -1.9463
 7565TIP3   OH244109   3.774   0.208   4.604 -0.7535 -0.2605  0.2038
 7565TIP3    H144110   3.837   0.147   4.642 -2.1757  0.3120  3.9201
 7565TIP3    H244111   3.697   0.154   4.585 -1.0849 -0.0976  1.0279
 7566TIP3   OH244112   3.611   0.417   4.971 -0.8604  0.6206 -0.0999
 7566TIP3    H144113   3.603   0.366   5.052  0.4396 -1.0844 -0.9726
 7566TIP3    H244114   3.617   0.507   5.001 -0.4206  0.0425  1.7222
 7567TIP3   OH244115   5.711   6.136   6.758  0.5009 -0.0685 -0.3529
 7567TIP3    H144116   5.741   6.196   6.689 -0.0161  0.4333 -0.1517
 7567TIP3    H244117   5.775   6.065   6.757  1.5447  0.8241 -0.1383
 7568TIP3   OH244118   1.821   3.072  10.694 -0.3837 -0.0915  0.4879
 7568TIP3    H144119   1.869   3.074  10.611 -0.7202 -1.4497  0.2374
 7568TIP3    H244120   1.885   3.099  10.760  0.3337 -0.5201 -0.0181
 7569TIP3   OH244121   3.134   1.143   3.603  0.0192 -0.3586  0.5048
 7569TIP3    H144122   3.206   1.098   3.648  0.1961  0.3026  0.8935
 7569TIP3    H244123   3.172   1.172   3.520  0.8993  2.0072  1.6717
 7570TIP3   OH244124   1.516   3.533   1.868  0.1771  0.3142 -0.0259
 7570TIP3    H144125   1.508   3.580   1.786 -1.5809  0.3808  0.1475
 7570TIP3    H244126   1.490   3.596   1.935 -0.7832 -0.4338  0.3370
 7571TIP3   OH244127   3.971   5.813   4.025 -0.0756  0.1386 -0.5109
 7571TIP3    H144128   3.901   5.782   3.967  1.4776 -1.0336 -1.8536
 7571TIP3    H244129   4.051   5.798   3.975  1.2842 -0.2157  1.6671
 7572TIP3   OH244130   5.296   2.776  14.980  0.3768 -0.2764 -0.3155
 7572TIP3    H144131   5.271   2.684  14.991  1.2947 -0.5533 -0.4261
 7572TIP3    H244132   5.223   2.815  14.932  0.0063 -0.9650 -0.3330
 7573TIP3   OH244133   1.126   0.802   0.780 -0.1893 -0.2129 -0.0396
 7573TIP3    H144134   1.127   0.830   0.689 -1.1703 -0.2034 -0.0608
 7573TIP3    H244135   1.107   0.708   0.776 -1.6578  0.0408  0.1757
 7574TIP3   OH244136   4.800   0.260  14.651  0.3096  0.0562 -0.0403
 7574TIP3    H144137   4.713   0.298  14.665  0.2120  0.3806 -1.3310
 7574TIP3    H244138   4.828   0.296  14.567  2.5157  1.4513  1.1985
 7575TIP3   OH244139   3.906   2.767  14.818 -0.2808  0.3847 -0.2616
 7575TIP3    H144140   3.843   2.792  14.885 -0.5291  0.8913 -0.6783
 7575TIP3    H244141   3.991   2.775  14.860 -0.2763  2.6677 -0.5662
 7576TIP3   OH244142   2.715   0.290  15.169  0.0904  0.1702 -0.8994
 7576TIP3    H144143   2.788   0.238  15.136 -0.4030 -0.3606 -1.1817
 7576TIP3    H244144   2.676   0.329  15.091  0.1293  0.5344 -0.7404
 7577TIP3   OH244145   5.387   4.160  11.769 -0.6034 -0.0771  0.2242
 7577TIP3    H144146   5.386   4.231  11.832  0.9784 -0.4876  0.7675
 7577TIP3    H244147   5.325   4.187  11.701  0.2385  2.0258  0.2085
 7578TIP3   OH244148   1.912   3.043  12.272 -0.6154 -0.2110 -0.6440
 7578TIP3    H144149   1.885   3.122  12.224  0.9387  0.3016 -0.7136
 7578TIP3    H244150   1.898   3.065  12.364 -2.4299 -0.7483 -0.7558
 7579TIP3   OH244151   3.962   0.724   3.027 -0.2754  0.1080  0.1478
 7579TIP3    H144152   4.019   0.800   3.040  0.2085  0.1837 -1.9527
 7579TIP3    H244153   3.875   0.761   3.012 -0.1184  0.2348 -0.4681
 7580TIP3   OH244154   2.366   0.152   0.250 -0.3183 -0.3914 -0.2491
 7580TIP3    H144155   2.443   0.126   0.301  0.5221  0.7858 -0.8726
 7580TIP3    H244156   2.292   0.125   0.304  0.5153  1.5396  2.0728
 7581TIP3   OH244157   1.537   2.305  14.741 -0.6211 -0.3562 -0.0419
 7581TIP3    H144158   1.532   2.209  14.737 -0.3385 -0.5272  2.4869
 7581TIP3    H244159   1.525   2.333  14.650  1.7918 -2.8909 -1.3146
 7582TIP3   OH244160   4.211   1.073   6.394 -0.3179 -0.2593  0.5999
 7582TIP3    H144161   4.150   1.001   6.411 -0.8590 -0.3296 -1.3818
 7582TIP3    H244162   4.294   1.043   6.432 -0.7320 -1.5587  0.5414
 7583TIP3   OH244163   0.410   2.467   4.787  0.3876  0.4058  0.1588
 7583TIP3    H144164   0.436   2.538   4.728 -0.6298 -0.7002 -1.7218
 7583TIP3    H244165   0.317   2.483   4.804 -0.5100 -1.6453 -2.1989
 7584TIP3   OH244166   6.122   5.177   3.155 -0.0354 -0.0351 -0.2594
 7584TIP3    H144167   6.065   5.239   3.109  1.0497  0.1141 -1.4697
 7584TIP3    H244168   6.141   5.220   3.239 -1.0019  0.2974 -0.2026
 7585TIP3   OH244169   5.881   5.325  14.467  0.0765 -0.5534 -0.0374
 7585TIP3    H144170   5.913   5.249  14.516  1.6216 -0.9613 -1.5880
 7585TIP3    H244171   5.933   5.398  14.498 -0.1384 -0.4802  0.1513
 7586TIP3   OH244172   4.742   4.941   0.814  0.2437  0.0074 -0.2394
 7586TIP3    H144173   4.724   4.916   0.904  3.3610  1.1244  0.8266
 7586TIP3    H244174   4.726   4.862   0.762 -0.2430 -1.0484  1.4706
 7587TIP3   OH244175   6.365   0.681  14.776  0.0792 -0.0182 -0.0516
 7587TIP3    H144176   6.324   0.594  14.770  0.7904 -0.3499 -0.2564
 7587TIP3    H244177   6.451   0.669  14.736  0.6179  0.4972  0.9277
 7588TIP3   OH244178   3.657   0.928  13.103 -0.3304  0.1366  0.3373
 7588TIP3    H144179   3.649   0.871  13.180 -0.5172 -1.3733 -0.7559
 7588TIP3    H244180   3.751   0.935  13.087 -0.3302 -0.4482  0.0672
 7589TIP3   OH244181   3.925   2.314   5.019  0.0009 -0.3647 -0.0395
 7589TIP3    H144182   3.832   2.329   5.039 -0.5457 -1.4670 -1.6131
 7589TIP3    H244183   3.955   2.396   4.981 -0.5112 -0.2451 -0.1863
 7590TIP3   OH244184   3.196   3.618   3.023 -0.2851 -0.0919 -0.4856
 7590TIP3    H144185   3.267   3.682   3.021 -1.0755  0.8545  0.6216
 7590TIP3    H244186   3.157   3.622   2.935 -0.0941  0.6802 -0.5441
 7591TIP3   OH244187   3.184   6.666   5.848 -0.0776  0.2633  0.2321
 7591TIP3    H144188   3.197   6.759   5.828 -0.3613  0.0961 -0.8477
 7591TIP3    H244189   3.158   6.664   5.940 -1.3640  1.3855 -0.0694
 7592TIP3   OH244190   6.618   6.597   4.271 -0.2260  0.0164 -0.1345
 7592TIP3    H144191   6.562   6.590   4.193 -0.6920 -0.8917  0.2611
 7592TIP3    H244192   6.571   6.548   4.338  0.0158  1.0668  0.8174
 7593TIP3   OH244193   4.479   0.831  15.499  0.2624  0.4506 -0.1432
 7593TIP3    H144194   4.567   0.844  15.466  0.2282 -2.1794 -1.5247
 7593TIP3    H244195   4.425   0.822  15.420 -0.8239 -0.2854  0.6574
 7594TIP3   OH244196   3.247   1.705   0.226 -0.1645  0.0946 -0.4712
 7594TIP3    H144197   3.339   1.694   0.250 -0.1707  0.9177 -0.0599
 7594TIP3    H244198   3.236   1.799   0.214 -0.4809 -0.1336 -2.4518
 7595TIP3   OH244199   5.168   0.966   1.023  0.0170  0.5012  0.1249
 7595TIP3    H144200   5.143   0.886   1.069  1.6707 -0.3467 -0.3885
 7595TIP3    H244201   5.115   1.034   1.064 -2.2712 -0.9900 -0.1774
 7596TIP3   OH244202   5.912   3.953   3.966  0.0560 -0.4579  0.1088
 7596TIP3    H144203   5.830   3.993   3.995  0.3680  1.0624 -0.9572
 7596TIP3    H244204   5.888   3.900   3.891 -0.2629 -1.8298  1.1463
 7597TIP3   OH244205   1.699   6.053  12.004 -0.6442 -0.1149  0.0122
 7597TIP3    H144206   1.649   5.977  12.034  0.6373  0.0049  2.8267
 7597TIP3    H244207   1.790   6.025  12.011 -0.1721  1.4686  0.5089
 7598TIP3   OH244208   1.577   2.967   3.283  0.5041 -0.2063 -0.0902
 7598TIP3    H144209   1.500   3.020   3.304 -0.2266 -1.0591 -0.5625
 7598TIP3    H244210   1.627   2.962   3.364 -0.5931 -0.7120  0.5664
 7599TIP3   OH244211   5.277   5.881   2.462  0.2331  0.0284  0.3954
 7599TIP3    H144212   5.322   5.904   2.543  1.1813 -2.7791  0.7614
 7599TIP3    H244213   5.210   5.817   2.488 -1.0666  0.8576 -0.7478
 7600TIP3   OH244214   6.595   2.562  15.442 -0.4049 -0.0409 -0.2903
 7600TIP3    H144215   6.641   2.512  15.373  0.0806 -2.7334  1.8069
 7600TIP3    H244216   6.644   2.644  15.449  1.5811 -1.1056 -0.9323
 7601TIP3   OH244217   6.738   2.531   0.994 -0.4895 -0.1082 -0.2676
 7601TIP3    H144218   6.775   2.605   1.041 -2.0859 -0.4119  1.5835
 7601TIP3    H244219   6.811   2.496   0.943  1.0873  0.8639  1.2229
 7602TIP3   OH244220   1.362   2.447  11.211  0.0120 -0.1059 -0.1314
 7602TIP3    H144221   1.325   2.535  11.215  0.9709  0.2910  0.5172
 7602TIP3    H244222   1.454   2.460  11.186  0.3980 -0.8384  0.8144
 7603TIP3   OH244223   5.750   5.514   3.050  0.2643  0.2702 -0.3214
 7603TIP3    H144224   5.839   5.530   3.082  0.1028 -0.9962  0.8155
 7603TIP3    H244225   5.761   5.449   2.980  0.1991 -0.2936  0.1826
 7604TIP3   OH244226   2.320   1.889  13.345  0.1862 -0.2916 -0.2713
 7604TIP3    H144227   2.291   1.977  13.321 -0.6591 -0.6642 -0.6310
 7604TIP3    H244228   2.367   1.857  13.268 -0.4246 -0.5598 -0.5329
 7605TIP3   OH244229   6.182   2.572  13.464  0.3230 -0.4699 -0.2132
 7605TIP3    H144230   6.154   2.633  13.532  1.8020  0.3348 -0.2789
 7605TIP3    H244231   6.104   2.519  13.445 -0.6665  0.6182  0.6730
 7606TIP3   OH244232   2.861   0.281  14.224 -0.4607  0.7276  0.5655
 7606TIP3    H144233   2.898   0.268  14.311  0.2114  1.4844  0.4029
 7606TIP3    H244234   2.839   0.374  14.220 -1.8782  0.4097  0.4504
 7607TIP3   OH244235   0.091   1.375   5.239  0.6675  0.0086 -0.0128
 7607TIP3    H144236   0.186   1.388   5.250  0.6962  1.7160 -1.7287
 7607TIP3    H244237   0.059   1.459   5.208 -1.6886 -0.1321  1.7820
 7608TIP3   OH244238   3.140   5.823   5.549 -0.3681 -0.3585  0.1425
 7608TIP3    H144239   3.085   5.806   5.625 -1.6391 -0.0730 -0.6682
 7608TIP3    H244240   3.129   5.745   5.494  1.4346 -1.0682  0.7283
 7609TIP3   OH244241   4.479   4.383   3.802 -0.5162 -0.1905  0.4173
 7609TIP3    H144242   4.411   4.348   3.860  0.7159 -2.2240  0.7480
 7609TIP3    H244243   4.521   4.305   3.765 -0.7085  1.0024 -2.6227
 7610TIP3   OH244244   2.501   2.150   5.680  0.1342 -0.2977 -0.7666
 7610TIP3    H144245   2.510   2.123   5.771  0.7955  0.1920 -0.6836
 7610TIP3    H244246   2.587   2.185   5.656 -0.8247  2.3009 -0.6891
 7611TIP3   OH244247   4.465   0.665  14.297 -1.0302 -0.3230  1.0360
 7611TIP3    H144248   4.478   0.740  14.354  1.7794  1.1134 -1.2018
 7611TIP3    H244249   4.392   0.690  14.240 -0.0372  0.8291  0.2285
 7612TIP3   OH244250   5.272   3.582  12.002  0.2091  0.1115 -0.4448
 7612TIP3    H144251   5.195   3.638  11.988 -0.3655 -0.9188 -1.5917
 7612TIP3    H244252   5.312   3.573  11.916  1.5597  0.5107  0.1157
 7613TIP3   OH244253   4.619   2.840  16.126  0.1118 -0.3380 -0.0219
 7613TIP3    H144254   4.543   2.847  16.068 -0.5723  0.5477  0.9539
 7613TIP3    H244255   4.694   2.859  16.069 -0.5213  0.2589 -0.6779
 7614TIP3   OH244256   1.267   2.604   0.443  0.1022  0.1412  0.3218
 7614TIP3    H144257   1.315   2.581   0.363 -0.5210 -2.7876  0.6749
 7614TIP3    H244258   1.333   2.609   0.511  0.3771  0.3919  0.0391
 7615TIP3   OH244259   1.773   6.020  15.231 -0.0296  0.0846  0.5166
 7615TIP3    H144260   1.776   6.115  15.238 -1.3465  0.2410 -0.6766
 7615TIP3    H244261   1.814   5.989  15.312  0.3223  1.6496  0.9746
 7616TIP3   OH244262   2.859   2.520  13.682 -0.4038  0.5753  0.4569
 7616TIP3    H144263   2.900   2.603  13.657 -0.5679  1.0632  1.7546
 7616TIP3    H244264   2.911   2.453  13.638 -1.0626  1.3960 -1.7016
 7617TIP3   OH244265   5.497   2.477   0.790 -0.6494 -0.0832  0.5067
 7617TIP3    H144266   5.572   2.420   0.810 -1.0843 -2.1725 -2.9145
 7617TIP3    H244267   5.535   2.546   0.735 -1.0156 -0.5901 -0.4095
 7618TIP3   OH244268   4.648   2.969  11.959 -0.0262  0.5638  0.1870
 7618TIP3    H144269   4.724   2.913  11.972  0.2736  0.8445 -0.3617
 7618TIP3    H244270   4.578   2.908  11.933  0.2189  0.4099 -0.1116
 7619TIP3   OH244271   5.882   2.358   2.562 -0.0804 -0.1201 -0.0029
 7619TIP3    H144272   5.885   2.436   2.507 -0.3876  0.8458  1.2953
 7619TIP3    H244273   5.788   2.339   2.572 -0.2197  1.3850  2.3705
 7620TIP3   OH244274   1.714   5.164  14.095  0.0565  0.3062  0.0238
 7620TIP3    H144275   1.704   5.140  14.003  0.1232  0.0489  0.0828
 7620TIP3    H244276   1.739   5.257  14.092 -0.0123  0.3192 -0.2140
 7621TIP3   OH244277   4.389   2.328   1.238 -0.3457 -0.3210  0.9170
 7621TIP3    H144278   4.484   2.317   1.232 -0.1296  0.8999  1.6925
 7621TIP3    H244279   4.374   2.352   1.330 -1.1223  1.8105  0.2921
 7622TIP3   OH244280   1.430   0.965  16.046  0.4377  0.1829 -0.2039
 7622TIP3    H144281   1.364   0.934  15.985  0.7846 -1.1774  0.0843
 7622TIP3    H244282   1.392   0.948  16.133  2.0201 -2.7257  0.0192
 7623TIP3   OH244283   1.620   4.274  16.990 -0.3037  0.7766 -0.3746
 7623TIP3    H144284   1.661   4.188  16.983  0.2357  1.0807 -1.0245
 7623TIP3    H244285   1.600   4.283  17.083  1.1052  0.6057 -0.0306
 7624TIP3   OH244286   1.343   0.419   4.593 -0.1936  0.3221 -0.3931
 7624TIP3    H144287   1.422   0.371   4.567 -0.1299  0.2330 -0.0409
 7624TIP3    H244288   1.346   0.420   4.689 -0.1565  1.0891 -0.3956
 7625TIP3   OH244289   2.936   0.910   2.602  0.1485  0.4631 -0.6889
 7625TIP3    H144290   3.026   0.908   2.569 -0.4437  0.8361 -2.4392
 7625TIP3    H244291   2.937   0.853   2.679  1.8375  0.3455 -0.7632
 7626TIP3   OH244292   5.135   2.974   2.530  0.5464 -0.2991  0.0291
 7626TIP3    H144293   5.204   2.913   2.555 -0.7064 -1.7723  0.0711
 7626TIP3    H244294   5.154   2.997   2.439  3.1870  2.3763  1.0837
 7627TIP3   OH244295   5.401   4.305  12.467  0.5774 -0.5201  0.0809
 7627TIP3    H144296   5.391   4.247  12.391 -1.9854 -0.8386  0.5987
 7627TIP3    H244297   5.412   4.392  12.429 -0.9187 -0.6426 -0.6809
 7628TIP3   OH244298   1.218   0.736   1.034  0.2039  0.5685  0.2080
 7628TIP3    H144299   1.193   0.765   0.946  0.1435  1.8617  0.6350
 7628TIP3    H244300   1.143   0.685   1.065 -0.1806  0.9332 -0.1166
 7629TIP3   OH244301   3.132   1.554   0.783 -0.0275 -0.0964  0.5060
 7629TIP3    H144302   3.052   1.584   0.827 -2.1789 -4.1546 -0.1232
 7629TIP3    H244303   3.159   1.477   0.832  2.6257  0.2635 -0.2614
 7630TIP3   OH244304   2.275   5.802  10.996  0.9518 -0.9898 -0.0120
 7630TIP3    H144305   2.335   5.807  10.922  0.8090 -0.1038 -0.0747
 7630TIP3    H244306   2.302   5.873  11.054 -0.6625  0.1008 -0.5349
 7631TIP3   OH244307   3.301   5.888  15.094  0.0451 -0.0285  0.7203
 7631TIP3    H144308   3.263   5.954  15.036 -0.2091 -1.4150 -0.7724
 7631TIP3    H244309   3.385   5.926  15.122  0.8662  0.1547 -1.7368
 7632TIP3   OH244310   1.874   6.593   3.571 -0.8251 -0.1548  0.3819
 7632TIP3    H144311   1.930   6.620   3.498  0.1635 -1.1575  0.7341
 7632TIP3    H244312   1.812   6.531   3.531 -0.0887 -0.9426  0.4175
 7633TIP3   OH244313   4.616   3.256  16.843 -0.2791  0.2108  1.1562
 7633TIP3    H144314   4.564   3.177  16.830 -1.2517  1.1780 -1.4069
 7633TIP3    H244315   4.560   3.314  16.894 -1.6905  1.0944 -1.2566
 7634TIP3   OH244316   4.122   1.261   2.284  0.2644 -0.2720  1.0346
 7634TIP3    H144317   4.184   1.329   2.259 -1.0725  0.1996 -1.2289
 7634TIP3    H244318   4.109   1.274   2.378  1.5396  1.2922  1.0318
 7635TIP3   OH244319   4.331   1.971   3.804 -0.3639 -0.2334  0.1006
 7635TIP3    H144320   4.380   1.932   3.877 -1.4988 -1.1754  0.3817
 7635TIP3    H244321   4.255   2.012   3.846 -0.5460  0.0108 -0.4659
 7636TIP3   OH244322   3.868   0.258  13.360  0.9050  0.6571 -0.1977
 7636TIP3    H144323   3.857   0.174  13.405  0.5079  1.0630  0.4742
 7636TIP3    H244324   3.840   0.324  13.423  1.5552  1.3337 -0.5933
 7637TIP3   OH244325   6.402   0.508   3.067  0.1910  0.1873  0.1050
 7637TIP3    H144326   6.476   0.564   3.091  0.3378 -0.3146  0.8630
 7637TIP3    H244327   6.429   0.420   3.093 -0.6475 -0.0120  0.3405
 7638TIP3   OH244328   5.536   0.833  14.150  0.1609  0.3183  0.0995
 7638TIP3    H144329   5.550   0.878  14.066  2.6946  1.0200  0.8045
 7638TIP3    H244330   5.477   0.891  14.198  0.6757  1.1911 -0.2934
 7639TIP3   OH244331   2.173   0.914  13.657  0.2006 -0.1232 -0.5950
 7639TIP3    H144332   2.205   0.931  13.568  0.6774  1.1663 -0.2021
 7639TIP3    H244333   2.189   0.996  13.704 -0.7630 -0.5259  0.4783
 7640TIP3   OH244334   0.197   6.701  13.526 -0.1346 -0.5546  0.3362
 7640TIP3    H144335   0.190   6.728  13.434 -1.3989 -1.2815  0.1970
 7640TIP3    H244336   0.152   6.771  13.574 -1.3378 -1.1849  0.1838
 7641TIP3   OH244337   6.463   5.392  11.177  0.0388  0.3335 -0.3618
 7641TIP3    H144338   6.420   5.316  11.138  0.5886  0.1050 -0.5263
 7641TIP3    H244339   6.556   5.376  11.164  0.1315  1.4769 -1.2084
 7642TIP3   OH244340   6.196   1.339  15.902 -0.0230 -0.1061  0.0671
 7642TIP3    H144341   6.269   1.277  15.907  1.0470  1.1815  1.1142
 7642TIP3    H244342   6.223   1.401  15.834 -0.5068 -0.0748 -0.0958
 7643TIP3   OH244343   2.446   3.380  15.776 -0.2986 -0.8320 -0.1039
 7643TIP3    H144344   2.372   3.384  15.836  0.9049  0.2048  1.3969
 7643TIP3    H244345   2.522   3.372  15.833  0.8473 -0.5170 -1.5337
 7644TIP3   OH244346   4.214   2.522  15.369 -0.5436  0.2172  0.2414
 7644TIP3    H144347   4.249   2.611  15.361  1.6516 -0.6802 -1.0883
 7644TIP3    H244348   4.150   2.528  15.440 -0.2298  2.7798  0.4099
 7645TIP3   OH244349   5.589   2.145  11.580 -0.1827  0.5817 -0.1313
 7645TIP3    H144350   5.654   2.121  11.646  0.6134  1.8745 -0.4149
 7645TIP3    H244351   5.505   2.131  11.622  0.2511 -1.1525  0.2428
 7646TIP3   OH244352   2.144   4.931  14.958  0.2881 -0.5129 -0.0746
 7646TIP3    H144353   2.062   4.966  14.924 -0.4808 -0.5055  1.6671
 7646TIP3    H244354   2.180   4.879  14.886 -0.3177  0.9364 -1.4853
 7647TIP3   OH244355   3.212   5.632  11.377 -0.0901 -0.1445 -0.1389
 7647TIP3    H144356   3.206   5.537  11.361  2.5755 -0.1641 -1.6816
 7647TIP3    H244357   3.195   5.672  11.292 -0.2431  0.7270  0.2901
 7648TIP3   OH244358   0.252   3.547  11.919 -0.1260  0.0067 -0.2112
 7648TIP3    H144359   0.174   3.513  11.875 -0.5424 -1.6561  1.6527
 7648TIP3    H244360   0.249   3.641  11.905 -0.3879 -0.3793 -3.3774
 7649TIP3   OH244361   3.556   0.898   4.130 -0.0816 -0.0773  0.2816
 7649TIP3    H144362   3.536   0.823   4.185 -0.4849 -0.0558  0.1626
 7649TIP3    H244363   3.517   0.877   4.045  0.6656 -0.1813 -0.0453
 7650TIP3   OH244364   6.559   1.156  14.782 -0.4682 -0.5943 -0.4317
 7650TIP3    H144365   6.547   1.119  14.869 -0.9705 -1.4823 -0.8631
 7650TIP3    H244366   6.470   1.176  14.751 -0.1949  1.6377  0.0342
 7651TIP3   OH244367   0.477   2.899   4.087 -0.0008  0.3767  0.2600
 7651TIP3    H144368   0.470   2.975   4.144  0.2126 -0.0912  0.9241
 7651TIP3    H244369   0.425   2.831   4.131 -0.6256  0.2867 -0.5882
 7652TIP3   OH244370   1.967   5.639   2.390 -0.0353  0.1135  0.1546
 7652TIP3    H144371   1.952   5.710   2.328  1.0923 -0.4729 -0.8197
 7652TIP3    H244372   1.936   5.674   2.474 -0.4505  1.3671 -0.4957
 7653TIP3   OH244373   5.731   1.811  14.670 -0.3324  0.3743 -0.1368
 7653TIP3    H144374   5.757   1.719  14.663 -0.1066  0.3459  0.8683
 7653TIP3    H244375   5.767   1.839  14.754 -1.5007  1.0157  0.1784
 7654TIP3   OH244376   3.937   3.219   3.841  0.1354 -0.0130 -0.4286
 7654TIP3    H144377   3.852   3.222   3.796  0.4870 -1.6517 -1.2682
 7654TIP3    H244378   3.991   3.163   3.787  1.6863  0.7428  0.2712
 7655TIP3   OH244379   5.455   2.508  16.219 -0.4528 -0.3062  0.0181
 7655TIP3    H144380   5.447   2.602  16.204 -0.0001 -0.2383  0.1955
 7655TIP3    H244381   5.378   2.470  16.177 -1.5625  0.2993  1.4324
 7656TIP3   OH244382   2.217   1.760   6.686 -0.3942 -0.5772  0.3056
 7656TIP3    H144383   2.127   1.763   6.719 -0.4026  0.1734  0.2132
 7656TIP3    H244384   2.260   1.693   6.740 -0.1167  1.3073  2.5859
 7657TIP3   OH244385   5.846   2.760   4.656  0.3784 -0.2784  0.4826
 7657TIP3    H144386   5.882   2.848   4.665 -2.0039  0.7427  0.7827
 7657TIP3    H244387   5.906   2.704   4.705  2.6735  0.9204 -0.8351
 7658TIP3   OH244388   5.630   6.401   5.429  0.0377  0.2161  0.2593
 7658TIP3    H144389   5.579   6.415   5.509 -0.1075  1.2786  0.0000
 7658TIP3    H244390   5.567   6.413   5.358  0.4934  0.8756 -0.0457
 7659TIP3   OH244391   2.445   6.277   5.132  0.2288 -0.1405 -0.1037
 7659TIP3    H144392   2.504   6.351   5.148  2.0995 -2.0071  2.5534
 7659TIP3    H244393   2.488   6.203   5.174 -2.3274 -2.4522 -1.2471
 7660TIP3   OH244394   4.473   1.517   1.357  0.5703 -0.4722  0.5247
 7660TIP3    H144395   4.515   1.596   1.389 -0.2255 -0.0053  0.4390
 7660TIP3    H244396   4.451   1.536   1.266  1.0409 -1.0680  0.2809
 7661TIP3   OH244397   2.758   5.091   5.133  0.5083 -0.0339 -0.3693
 7661TIP3    H144398   2.828   5.157   5.131  1.2376 -0.6937  1.1492
 7661TIP3    H244399   2.711   5.108   5.215  1.5725 -2.1703  0.7909
 7662TIP3   OH244400   2.103   3.912   1.674 -0.3146 -0.0568 -0.0537
 7662TIP3    H144401   2.108   3.833   1.729  0.0723  0.1789  0.2535
 7662TIP3    H244402   2.038   3.890   1.608 -0.9809 -0.2455  0.6521
 7663TIP3   OH244403   0.858   4.928   6.225  0.5024 -0.0670 -0.6198
 7663TIP3    H144404   0.943   4.970   6.217  0.2424  0.3735 -1.0786
 7663TIP3    H244405   0.832   4.944   6.316  0.7757  0.0487 -0.5626
 7664TIP3   OH244406   5.920   2.078   1.609  0.1210  0.0737 -0.0318
 7664TIP3    H144407   5.958   2.156   1.649  0.2742 -0.3739  0.7235
 7664TIP3    H244408   5.851   2.051   1.669 -0.9012  0.4345 -1.0082
 7665TIP3   OH244409   1.805   5.991   3.346  0.2864  0.0234 -0.4899
 7665TIP3    H144410   1.842   5.953   3.425 -1.4588 -2.0062 -0.5637
 7665TIP3    H244411   1.757   6.068   3.376  1.1035  0.3108  0.1336
 7666TIP3   OH244412   5.403   4.019   2.892  0.2768  0.1527 -0.1185
 7666TIP3    H144413   5.373   3.952   2.830  0.4176  0.3848 -0.4359
 7666TIP3    H244414   5.329   4.079   2.900 -1.3563 -2.0007  3.0258
 7667TIP3   OH244415   3.121   1.583  13.885 -0.6820 -0.1572 -0.0074
 7667TIP3    H144416   3.048   1.617  13.834 -2.1747 -1.4383  1.1798
 7667TIP3    H244417   3.082   1.515  13.940  1.1774 -0.0335  1.5650
 7668TIP3   OH244418   1.281   3.123  13.837  0.0048  0.3171 -0.2799
 7668TIP3    H144419   1.375   3.116  13.852 -0.0481 -0.4421 -0.2615
 7668TIP3    H244420   1.258   3.209  13.871 -0.1574 -1.3054  4.4238
 7669TIP3   OH244421   2.282   5.053  12.903 -0.2281 -0.1093 -0.0971
 7669TIP3    H144422   2.314   4.986  12.964  1.7306  1.3184  0.5538
 7669TIP3    H244423   2.295   5.136  12.950 -1.2409  0.8538 -1.4312
 7670TIP3   OH244424   4.672   6.343   4.014  0.3883  0.3856 -0.7891
 7670TIP3    H144425   4.635   6.329   4.101 -0.0477 -1.8733 -1.2899
 7670TIP3    H244426   4.723   6.423   4.023 -1.6159  1.5918  0.8889
 7671TIP3   OH244427   3.012   2.242   4.969 -0.2964 -0.2754  0.0328
 7671TIP3    H144428   3.094   2.279   5.000 -0.7315  0.1857  0.6845
 7671TIP3    H244429   3.021   2.237   4.874  1.3097 -2.2661  0.2245
 7672TIP3   OH244430   1.038   1.166  11.923  0.5230 -0.3689  0.7015
 7672TIP3    H144431   1.085   1.101  11.871 -0.6105 -0.1576 -0.6534
 7672TIP3    H244432   1.101   1.236  11.937  0.7768 -0.2747 -0.7308
 7673TIP3   OH244433   3.584   3.696  11.782 -0.1795  0.0009 -0.7688
 7673TIP3    H144434   3.595   3.601  11.778 -2.9776 -0.4575  0.2637
 7673TIP3    H244435   3.552   3.713  11.870  1.7455  2.1713 -0.3799
 7674TIP3   OH244436   5.609   2.953   4.301 -0.1305  0.1425 -0.3805
 7674TIP3    H144437   5.600   3.017   4.372 -1.2598  1.3038 -1.5143
 7674TIP3    H244438   5.560   2.991   4.228  0.5391 -1.2689 -1.6244
 7675TIP3   OH244439   2.709   5.348  12.825 -0.5905 -0.4357  0.2425
 7675TIP3    H144440   2.714   5.431  12.779  0.4867  0.2506  1.5358
 7675TIP3    H244441   2.797   5.311  12.819 -0.9684 -1.3281 -0.0222
 7676TIP3   OH244442   3.144   6.394  13.843  0.3839 -0.3685 -0.4900
 7676TIP3    H144443   3.176   6.427  13.759  1.8543 -1.0620 -0.2342
 7676TIP3    H244444   3.121   6.303  13.825  0.5481 -0.4721 -0.1837
 7677TIP3   OH244445   5.447   1.924   1.404  0.2790  0.2906 -0.2199
 7677TIP3    H144446   5.447   1.921   1.308  3.9043 -0.3726 -0.3125
 7677TIP3    H244447   5.498   2.002   1.426  0.6409 -0.2975  1.1413
 7678TIP3   OH244448   1.456   0.678  12.609 -0.8054 -0.3469  0.2574
 7678TIP3    H144449   1.511   0.673  12.687  0.0846 -1.3762 -0.4000
 7678TIP3    H244450   1.441   0.772  12.597  1.7820  0.0916 -0.1532
 7679TIP3   OH244451   1.547   5.061  15.420 -0.4645 -0.1422 -0.1569
 7679TIP3    H144452   1.456   5.060  15.448 -0.5405  2.6558 -0.0990
 7679TIP3    H244453   1.547   5.114  15.340  1.0131 -0.8044 -0.6279
 7680TIP3   OH244454   2.252   5.360   1.178 -0.2663  0.5546  0.3116
 7680TIP3    H144455   2.159   5.380   1.169 -0.1937  1.6488  1.6580
 7680TIP3    H244456   2.280   5.409   1.255  1.6621  1.0880 -0.6514
 7681TIP3   OH244457   5.391   0.821   5.129 -0.4072 -1.0945 -0.6732
 7681TIP3    H144458   5.471   0.798   5.177  0.2975  1.1495 -0.6633
 7681TIP3    H244459   5.418   0.890   5.069 -2.5417  0.5323  0.1187
 7682TIP3   OH244460   5.160   5.244   3.359  0.2355 -0.0231  0.1802
 7682TIP3    H144461   5.133   5.275   3.272  0.8761 -0.6586 -0.2599
 7682TIP3    H244462   5.229   5.303   3.386  0.3670 -0.1138  0.0429
 7683TIP3   OH244463   5.172   4.341   5.458 -0.1578  0.3646  0.5799
 7683TIP3    H144464   5.083   4.316   5.432  0.1474 -2.8349  2.0933
 7683TIP3    H244465   5.159   4.400   5.532 -1.0546  0.2033  0.5664
 7684TIP3   OH244466   3.884   6.295  14.496 -0.2709  0.1966 -0.5182
 7684TIP3    H144467   3.879   6.213  14.446  0.3267  0.5099 -1.0948
 7684TIP3    H244468   3.819   6.352  14.456  0.1604  0.4242 -0.8967
 7685TIP3   OH244469   0.629   2.925  11.031  0.0018  1.0825 -1.1782
 7685TIP3    H144470   0.642   2.952  10.940  2.9858 -2.4103 -1.9918
 7685TIP3    H244471   0.715   2.930  11.071 -0.8037  0.3297  0.7891
 7686TIP3   OH244472   2.392   6.026  16.367 -0.2858 -0.1504 -0.3878
 7686TIP3    H144473   2.454   6.082  16.322 -1.0873 -0.2790 -1.6903
 7686TIP3    H244474   2.445   5.979  16.432  0.7285  0.6603 -0.6019
 7687TIP3   OH244475   2.413   1.066  14.869 -0.3037 -0.1895 -0.0112
 7687TIP3    H144476   2.460   1.058  14.952  0.0161 -2.1500 -0.3515
 7687TIP3    H244477   2.379   0.979  14.852 -0.8846  0.3302 -1.6628
 7688TIP3   OH244478   1.598   1.685   1.873 -0.2346 -0.2685  0.0754
 7688TIP3    H144479   1.536   1.701   1.944  0.5075  0.5040  0.5737
 7688TIP3    H244480   1.549   1.635   1.808 -1.5303  0.7720  0.2271
 7689TIP3   OH244481   5.172   5.366  14.076 -0.4221 -0.2712 -0.1126
 7689TIP3    H144482   5.236   5.436  14.059  1.5534 -2.2905 -1.6233
 7689TIP3    H244483   5.090   5.400  14.040  0.1154  1.8142  0.4774
 7690TIP3   OH244484   1.956   3.456   4.635  0.1655  0.1209 -0.6027
 7690TIP3    H144485   2.006   3.423   4.710  1.6843  0.7492 -1.3038
 7690TIP3    H244486   1.950   3.381   4.576 -1.1648 -0.4210  0.1632
 7691TIP3   OH244487   2.787   4.315  17.131  0.0536 -0.0216 -0.2869
 7691TIP3    H144488   2.838   4.235  17.142 -1.3246 -0.6317  2.6946
 7691TIP3    H244489   2.843   4.385  17.166 -0.1097 -0.2727  0.4887
 7692TIP3   OH244490   3.586   5.194  15.603  0.1056  0.8364  0.7283
 7692TIP3    H144491   3.537   5.145  15.537  0.6958  1.8571 -0.5027
 7692TIP3    H244492   3.545   5.169  15.686  0.0490 -1.3188  0.1160
 7693TIP3   OH244493   4.785   0.742  11.428 -0.6480 -0.9428  0.0672
 7693TIP3    H144494   4.707   0.779  11.469 -1.3105 -0.3023 -1.6758
 7693TIP3    H244495   4.844   0.817  11.415 -1.1987 -0.7765 -1.7289
 7694TIP3   OH244496   6.498   6.595   5.957 -0.3753 -0.1388  0.4569
 7694TIP3    H144497   6.551   6.515   5.961 -1.4373 -0.8518  0.4662
 7694TIP3    H244498   6.456   6.600   6.043  0.7692  1.2140  0.9849
 7695TIP3   OH244499   1.522   4.018  11.375 -0.1542 -0.1688 -0.8820
 7695TIP3    H144500   1.555   3.977  11.295 -0.9419 -0.0278 -1.2975
 7695TIP3    H244501   1.577   3.983  11.445  1.1520  0.4122 -1.5831
 7696TIP3   OH244502   3.919   3.246  14.440 -0.2155  0.0869 -0.2810
 7696TIP3    H144503   4.005   3.204  14.439 -0.5993 -0.7123 -1.6085
 7696TIP3    H244504   3.938   3.340  14.433  0.5811  0.0158  0.7682
 7697TIP3   OH244505   0.570   3.823   4.588 -0.4243 -0.1345  0.7134
 7697TIP3    H144506   0.634   3.754   4.574 -0.4992 -0.2808  1.1029
 7697TIP3    H244507   0.556   3.860   4.500 -2.3983 -2.3914 -0.0430
 7698TIP3   OH244508   5.415   4.540  12.304 -0.4115 -0.1851 -0.0522
 7698TIP3    H144509   5.343   4.522  12.244 -1.6013 -0.1427  1.3003
 7698TIP3    H244510   5.432   4.634  12.294 -2.2927  0.3783  1.3732
 7699TIP3   OH244511   2.264   4.102   0.791 -0.0921 -0.0287 -0.1820
 7699TIP3    H144512   2.287   4.045   0.864 -0.0944 -1.1643 -1.0566
 7699TIP3    H244513   2.287   4.190   0.822  0.5844 -0.5660  0.9085
 7700TIP3   OH244514   1.721   4.710   1.930  0.3634 -0.2855  0.1351
 7700TIP3    H144515   1.784   4.756   1.985 -0.3461  0.0803  0.6540
 7700TIP3    H244516   1.722   4.620   1.963 -1.6727  0.3798  2.3063
 7701TIP3   OH244517   1.606   1.266  12.024 -0.2752  0.4187  0.3331
 7701TIP3    H144518   1.642   1.254  12.112 -1.2890  1.8610  0.9910
 7701TIP3    H244519   1.587   1.177  11.993  0.1792 -0.1212  1.5409
 7702TIP3   OH244520   1.685   5.379   0.980  0.0053 -0.4077 -0.0250
 7702TIP3    H144521   1.613   5.324   1.013 -0.5236 -0.3122 -0.9861
 7702TIP3    H244522   1.641   5.458   0.948  0.8715  1.4212  2.8811
 7703TIP3   OH244523   1.942   3.381  10.478  0.2810  0.1417 -0.0915
 7703TIP3    H144524   1.907   3.405  10.563 -1.5324 -1.7422 -0.2205
 7703TIP3    H244525   1.930   3.459  10.424 -0.6930  0.6042  0.7706
 7704TIP3   OH244526   3.628   6.478  15.055  0.2358  0.6067 -0.3976
 7704TIP3    H144527   3.706   6.424  15.066 -0.2022 -0.0451 -0.4705
 7704TIP3    H244528   3.650   6.561  15.098  0.4879 -0.0316  0.7380
 7705TIP3   OH244529   6.388   0.761  12.623  0.3429  0.4714 -0.1229
 7705TIP3    H144530   6.331   0.837  12.609 -2.2745 -1.3662 -0.2730
 7705TIP3    H244531   6.352   0.693  12.565  4.1217 -0.2405 -1.9411
 7706TIP3   OH244532   4.104   1.139   1.077  0.6412  0.3572 -0.0267
 7706TIP3    H144533   4.180   1.092   1.113  1.6588  0.7816 -1.4871
 7706TIP3    H244534   4.037   1.072   1.066  1.6488 -0.5561 -0.9273
 7707TIP3   OH244535   1.068   1.374  11.405  0.0441 -0.1926 -0.4325
 7707TIP3    H144536   1.064   1.284  11.438 -2.0600  0.4027  1.1947
 7707TIP3    H244537   0.993   1.381  11.345  0.3961  0.3868 -0.8201
 7708TIP3   OH244538   1.580   3.880  11.137 -0.2598 -0.1004  0.1332
 7708TIP3    H144539   1.559   3.884  11.043 -1.1056  0.1276  0.3219
 7708TIP3    H244540   1.673   3.901  11.141 -0.3043  0.3157 -0.6261
 7709TIP3   OH244541   6.712   6.143   3.962  0.4922 -0.2275 -0.0668
 7709TIP3    H144542   6.670   6.228   3.947  1.1098 -0.2023 -1.9937
 7709TIP3    H244543   6.645   6.079   3.940  0.3621 -0.2365  0.3457
 7710TIP3   OH244544   1.038   3.046   0.291 -0.2102 -0.1225  0.1569
 7710TIP3    H144545   1.114   3.001   0.330  0.6057  0.9655 -0.1185
 7710TIP3    H244546   0.991   3.082   0.366 -1.0107 -1.6056  0.3997
 7711TIP3   OH244547   4.097   4.267   3.750 -0.5205 -0.3750 -0.3673
 7711TIP3    H144548   4.140   4.332   3.694  1.4046 -1.7513 -0.5917
 7711TIP3    H244549   4.155   4.259   3.826 -2.0848  0.0378  0.9031
 7712TIP3   OH244550   2.786   6.003  14.036  0.4464  0.6583  0.3850
 7712TIP3    H144551   2.695   6.013  14.008 -0.0348 -1.1678  1.0929
 7712TIP3    H244552   2.813   6.091  14.062 -0.9991  1.3019 -0.1637
 7713TIP3   OH244553   6.290   1.398   2.064 -0.4139 -0.3953 -0.4830
 7713TIP3    H144554   6.372   1.349   2.077 -0.1622 -0.4363 -2.0849
 7713TIP3    H244555   6.244   1.389   2.148  0.9039 -0.9542  0.2204
 7714TIP3   OH244556   0.428   2.958   0.283  0.5675 -0.0996 -0.0304
 7714TIP3    H144557   0.374   3.036   0.296  0.4756 -0.2309  0.3820
 7714TIP3    H244558   0.383   2.889   0.331  0.3372 -0.5548 -0.8757
 7715TIP3   OH244559   0.228   2.836  16.085 -0.8980 -0.0185 -0.2112
 7715TIP3    H144560   0.248   2.836  15.991  0.6168  0.2516  0.0800
 7715TIP3    H244561   0.159   2.771  16.095  0.2301 -1.4351 -1.2621
 7716TIP3   OH244562   1.601   4.803  14.174 -0.0966  0.1248  0.2981
 7716TIP3    H144563   1.509   4.809  14.147  0.6590  1.1910 -2.3593
 7716TIP3    H244564   1.620   4.889  14.211  0.0411  0.2320 -0.0126
 7717TIP3   OH244565   5.390   2.026  15.679 -0.3235  0.2014  0.2125
 7717TIP3    H144566   5.407   1.952  15.737 -0.2414  1.9174  2.4944
 7717TIP3    H244567   5.471   2.036  15.629 -0.3831 -1.2852 -0.2512
 7718TIP3   OH244568   4.941   4.706   3.293 -0.6158 -0.7707  0.2671
 7718TIP3    H144569   4.943   4.781   3.353  0.5155 -0.9976  0.5300
 7718TIP3    H244570   5.033   4.689   3.273 -0.9532 -0.9673 -1.2168
 7719TIP3   OH244571   4.968   2.597  15.691  0.5065  0.0715 -0.3515
 7719TIP3    H144572   5.036   2.600  15.758 -0.4913 -0.3407  0.7070
 7719TIP3    H244573   4.942   2.688  15.679  0.3523  0.0995  0.1782
 7720TIP3   OH244574   1.685   3.891   2.951 -0.7648  0.1248  0.0877
 7720TIP3    H144575   1.687   3.907   3.046 -1.6735  1.2882 -0.0622
 7720TIP3    H244576   1.777   3.893   2.925 -0.2699 -2.6412  1.2684
 7721TIP3   OH244577   3.449   3.958   3.561  0.3638  0.0150  0.0932
 7721TIP3    H144578   3.434   3.975   3.654  1.1545  1.0027  0.0560
 7721TIP3    H244579   3.495   4.036   3.530 -1.7246  0.6773 -1.6005
 7722TIP3   OH244580   1.067   3.819   1.118 -0.4157  0.4096  0.3672
 7722TIP3    H144581   1.068   3.891   1.055 -0.8806 -0.3631 -0.5356
 7722TIP3    H244582   1.097   3.743   1.069 -0.8882 -0.2269  1.0398
 7723TIP3   OH244583   2.966   0.296   2.059  0.5781 -0.1322 -0.2244
 7723TIP3    H144584   3.023   0.323   1.987 -0.2414  1.3081 -0.3589
 7723TIP3    H244585   3.026   0.254   2.122  1.4188 -0.7024 -1.3726
 7724TIP3   OH244586   2.621   5.781  16.209  1.1533  0.3033  0.1134
 7724TIP3    H144587   2.650   5.788  16.300 -0.6126 -0.0208  0.7485
 7724TIP3    H244588   2.593   5.870  16.187 -1.1473 -0.1520  0.9229
 7725TIP3   OH244589   3.317   6.663   6.651  0.4497 -0.0614 -0.5361
 7725TIP3    H144590   3.379   6.731   6.677 -0.1029  0.1402  0.2902
 7725TIP3    H244591   3.348   6.584   6.696  0.6549 -0.1817 -0.8876
 7726TIP3   OH244592   1.964   6.750  15.221 -0.3677 -0.2508 -0.5147
 7726TIP3    H144593   1.869   6.738  15.225 -0.7777  2.4544  0.3603
 7726TIP3    H244594   1.976   6.828  15.166  1.5406 -1.7649 -2.4199
 7727TIP3   OH244595   0.252   3.431   4.465  0.3697 -0.0052  0.3759
 7727TIP3    H144596   0.338   3.448   4.505  0.1405  0.3316  0.7341
 7727TIP3    H244597   0.215   3.360   4.517  1.3922 -1.7691 -1.2199
 7728TIP3   OH244598   5.325   0.531   2.293 -0.0181  0.1640  0.3507
 7728TIP3    H144599   5.287   0.512   2.208  0.2028 -1.4948  0.5719
 7728TIP3    H244600   5.353   0.445   2.326  2.2155  1.0614  0.9883
 7729TIP3   OH244601   3.669   5.192   6.252  0.4173 -1.0607  0.1400
 7729TIP3    H144602   3.735   5.133   6.289  1.4741  0.1646  0.2540
 7729TIP3    H244603   3.599   5.194   6.318  0.7179 -1.5844  0.4818
 7730TIP3   OH244604   3.324   1.230  12.200  0.5787 -0.3122  0.3940
 7730TIP3    H144605   3.242   1.187  12.178  1.7110 -2.4084  0.0784
 7730TIP3    H244606   3.325   1.310  12.146 -1.3771 -0.0439  0.6886
 7731TIP3   OH244607   1.136   3.990   5.894 -0.6967 -0.1731 -0.1173
 7731TIP3    H144608   1.126   3.912   5.948 -0.1826  0.7771  1.4098
 7731TIP3    H244609   1.201   4.043   5.940 -0.6454  0.9360 -1.3939
 7732TIP3   OH244610   5.875   6.271   1.283  0.2238 -0.3296 -0.1325
 7732TIP3    H144611   5.938   6.321   1.335  0.4096  0.5074 -1.1259
 7732TIP3    H244612   5.834   6.337   1.226 -2.9406 -0.4571  1.7577
 7733TIP3   OH244613   4.771   2.173  17.195  0.3083 -0.1441  0.2859
 7733TIP3    H144614   4.865   2.181  17.206 -0.0389  3.1378  2.1091
 7733TIP3    H244615   4.751   2.223  17.115  0.1282 -1.4238 -0.4987
 7734TIP3   OH244616   4.012   4.549  17.056 -0.1344  0.4958 -0.4237
 7734TIP3    H144617   4.023   4.612  17.127  1.9920  0.6228 -0.8042
 7734TIP3    H244618   3.996   4.603  16.978 -0.3131  0.4484 -0.4230
 7735TIP3   OH244619   4.614   4.222   2.008  1.0085  0.5425 -0.9281
 7735TIP3    H144620   4.709   4.212   2.001  1.1733  0.5437  0.7930
 7735TIP3    H244621   4.587   4.154   2.069 -0.0420  0.8147 -1.0696
 7736TIP3   OH244622   4.715   3.379   2.644 -0.6404 -0.5792 -0.4645
 7736TIP3    H144623   4.654   3.416   2.580  0.0461  0.2397 -0.6706
 7736TIP3    H244624   4.668   3.305   2.682 -1.8483  0.1565 -0.4639
 7737TIP3   OH244625   6.193   5.349  11.277  0.2255  0.4761  0.2099
 7737TIP3    H144626   6.284   5.368  11.256 -0.2934  0.3537 -2.5966
 7737TIP3    H244627   6.146   5.363  11.195 -1.8619 -2.1648  0.7826
 7738TIP3   OH244628   1.500   3.580  11.155  0.0497 -0.8943 -0.7519
 7738TIP3    H144629   1.501   3.676  11.151  0.0100 -0.8809 -0.4463
 7738TIP3    H244630   1.487   3.560  11.248  1.8427 -1.2033 -0.5258
 7739TIP3   OH244631   2.187   4.911   5.796 -0.6433 -0.1882 -0.2850
 7739TIP3    H144632   2.227   4.876   5.716 -0.6154 -0.3505 -0.2013
 7739TIP3    H244633   2.229   4.862   5.867  0.1726  0.7568 -0.0961
 7740TIP3   OH244634   0.090   0.354   0.749 -0.0606 -0.4117  0.4023
 7740TIP3    H144635   0.040   0.326   0.826 -0.9198 -0.7299 -0.2592
 7740TIP3    H244636   0.036   0.422   0.708  0.5446 -0.0087  0.2466
 7741TIP3   OH244637   3.084   2.715   0.753 -0.0920  0.4587  0.0932
 7741TIP3    H144638   3.031   2.793   0.738 -1.0469 -0.2652 -0.3951
 7741TIP3    H244639   3.173   2.741   0.726 -0.5174  1.1948 -0.6358
 7742TIP3   OH244640   3.429   4.058   3.799 -0.2848  0.0475 -0.3120
 7742TIP3    H144641   3.429   4.141   3.847  0.7903 -0.1549  0.0786
 7742TIP3    H244642   3.384   3.997   3.858  2.0240 -0.4825  1.0524
 7743TIP3   OH244643   5.957   4.642  16.889  0.0415 -0.5146 -0.3654
 7743TIP3    H144644   5.931   4.562  16.934 -1.9262  0.2658 -0.0441
 7743TIP3    H244645   5.877   4.674  16.847  1.0833  0.5743 -1.6367
 7744TIP3   OH244646   4.120   5.983   6.379 -0.0070  0.2581 -0.3478
 7744TIP3    H144647   4.202   6.021   6.412 -0.8421 -1.0068  3.7224
 7744TIP3    H244648   4.053   6.012   6.441 -1.8143 -2.3599 -0.8969
 7745TIP3   OH244649   3.792   1.242   4.312  0.5033 -0.6140  0.3274
 7745TIP3    H144650   3.810   1.155   4.275  1.0665  0.2097 -1.4539
 7745TIP3    H244651   3.740   1.224   4.390  1.8681 -2.6242  0.8588
 7746TIP3   OH244652   6.590   1.732  13.055  0.2534  0.5241  0.1861
 7746TIP3    H144653   6.623   1.643  13.047 -0.8362 -0.1196  2.1030
 7746TIP3    H244654   6.658   1.779  13.104 -0.1129  0.1139  1.1238
 7747TIP3   OH244655   5.250   1.441  12.694  0.0054  0.2562  0.3725
 7747TIP3    H144656   5.326   1.382  12.698 -0.9020 -0.9091  1.2086
 7747TIP3    H244657   5.279   1.520  12.740  0.7657 -0.1145  0.5606
 7748TIP3   OH244658   3.822   6.714   1.649  0.6230  0.0858  0.0585
 7748TIP3    H144659   3.734   6.706   1.685  0.1156  2.1361 -0.5607
 7748TIP3    H244660   3.864   6.631   1.669 -1.1534 -0.6091  1.1624
 7749TIP3   OH244661   5.086   1.189   0.340 -0.0401 -0.1748 -0.0259
 7749TIP3    H144662   5.121   1.270   0.303  3.4430 -1.0230  1.0789
 7749TIP3    H244663   5.077   1.130   0.266 -1.0496  0.6649 -0.6005
 7750TIP3   OH244664   1.013   1.544   5.671 -0.8410  0.1191  0.0901
 7750TIP3    H144665   1.106   1.528   5.689 -0.1819  2.5002 -0.7309
 7750TIP3    H244666   0.995   1.493   5.593  0.0128  0.2235 -0.1917
 7751TIP3   OH244667   6.585   2.338   1.150 -0.0867 -0.1630  0.2813
 7751TIP3    H144668   6.598   2.361   1.242 -0.7106 -0.3306  0.4170
 7751TIP3    H244669   6.626   2.410   1.102  1.6497 -0.8596  0.6660
 7752TIP3   OH244670   0.890   5.899   1.409 -0.7256 -0.3466  0.5129
 7752TIP3    H144671   0.804   5.873   1.377  0.3896 -0.9565 -2.3544
 7752TIP3    H244672   0.901   5.989   1.378  0.5081 -1.0546 -1.3082
 7753TIP3   OH244673   3.883   4.089  11.632 -0.1383  0.0457  0.3097
 7753TIP3    H144674   3.912   3.999  11.646 -1.8624 -0.6192 -0.0540
 7753TIP3    H244675   3.842   4.114  11.716  0.9827  0.7832  0.6607
 7754TIP3   OH244676   4.979   4.722   0.794 -0.6783 -0.2678 -0.4216
 7754TIP3    H144677   4.890   4.691   0.813 -0.2564 -2.4147 -1.6523
 7754TIP3    H244678   5.034   4.645   0.806  1.4844  1.5640  2.7694
 7755TIP3   OH244679   6.754   5.828   2.764 -0.2499  0.2892 -0.3768
 7755TIP3    H144680   6.662   5.827   2.791 -0.4781  0.3342 -1.1404
 7755TIP3    H244681   6.791   5.905   2.808 -0.7956  0.7808 -0.7608
 7756TIP3   OH244682   4.625   5.640  13.578  0.0685  0.0198  0.2073
 7756TIP3    H144683   4.620   5.592  13.495 -2.2542  0.2128  0.1785
 7756TIP3    H244684   4.677   5.718  13.558 -2.2623  1.1900 -1.7059
 7757TIP3   OH244685   1.618   2.456   1.139  0.8418  0.1703  0.5904
 7757TIP3    H144686   1.612   2.551   1.124 -0.8330 -0.2054 -1.9195
 7757TIP3    H244687   1.625   2.447   1.234 -1.5401  2.7764  1.1783
 7758TIP3   OH244688   5.650   4.889   5.619  0.5208 -0.5935 -1.0134
 7758TIP3    H144689   5.730   4.887   5.671 -0.3388 -2.4004  0.3512
 7758TIP3    H244690   5.670   4.837   5.541  0.5531 -1.4851 -0.4239
 7759TIP3   OH244691   2.053   0.985  14.746 -0.6763  0.3595  0.0168
 7759TIP3    H144692   2.049   0.936  14.828  1.3627 -2.5671 -1.4744
 7759TIP3    H244693   1.972   0.961  14.700 -0.6661  0.0549  0.1557
 7760TIP3   OH244694   5.131   2.281  11.454 -0.1894 -0.3112 -1.0098
 7760TIP3    H144695   5.070   2.343  11.414 -2.0711 -0.6746  1.0960
 7760TIP3    H244696   5.192   2.336  11.503 -2.0734  0.0222  1.1648
 7761TIP3   OH244697   2.287   0.947  10.702 -0.0386  0.4905 -0.1312
 7761TIP3    H144698   2.258   0.882  10.638  1.3761 -0.5053  0.2150
 7761TIP3    H244699   2.218   0.947  10.769  0.1417 -0.9683  0.0792
 7762TIP3   OH244700   3.571   1.564  15.710 -0.0967  0.3028  0.6546
 7762TIP3    H144701   3.561   1.610  15.793  0.4547 -0.4469  1.1463
 7762TIP3    H244702   3.666   1.551  15.702 -0.1214  0.5984 -0.2193
 7763TIP3   OH244703   3.951   1.478   4.405  0.7883  0.3042  0.2909
 7763TIP3    H144704   3.878   1.416   4.398  0.5829  0.6214 -0.5289
 7763TIP3    H244705   3.909   1.562   4.425  1.0319  0.2708  0.9727
 7764TIP3   OH244706   1.847   2.287   3.652  0.0937  0.0115 -0.1668
 7764TIP3    H144707   1.933   2.268   3.689 -0.2092  0.6139  0.8761
 7764TIP3    H244708   1.797   2.206   3.663 -0.3964  0.5512  1.9529
 7765TIP3   OH244709   0.719   0.984  16.200  0.1736 -0.0490  0.0969
 7765TIP3    H144710   0.716   1.050  16.131  1.6946  0.6019  0.6011
 7765TIP3    H244711   0.745   0.903  16.155  3.2055  0.8063  0.1039
 7766TIP3   OH244712   0.935   0.755   1.745  0.7709  0.0917 -0.1416
 7766TIP3    H144713   0.856   0.759   1.690  0.2640  2.3435  0.6554
 7766TIP3    H244714   0.902   0.748   1.834  1.3557  2.3934  0.3242
 7767TIP3   OH244715   1.189   2.097  13.927 -0.0835 -0.1050 -0.6753
 7767TIP3    H144716   1.173   2.003  13.923  0.0267 -0.1082 -1.0168
 7767TIP3    H244717   1.189   2.117  14.021  1.7158 -0.7455 -0.5001
 7768TIP3   OH244718   2.048   4.394  11.451  0.3876  0.2089  1.1882
 7768TIP3    H144719   2.041   4.444  11.369  0.0202 -0.9335  0.5061
 7768TIP3    H244720   2.114   4.442  11.502 -1.1236  2.3357  1.2845
 7769TIP3   OH244721   4.626   2.589  14.717  0.1470 -0.1441  0.1254
 7769TIP3    H144722   4.639   2.679  14.689 -1.0643  0.1232  0.3443
 7769TIP3    H244723   4.536   2.569  14.692  0.3783 -1.2746  0.1451
 7770TIP3   OH244724   5.531   5.762   1.083 -0.1395 -0.3010 -0.2217
 7770TIP3    H144725   5.607   5.788   1.136 -0.6622 -0.1285  0.4565
 7770TIP3    H244726   5.520   5.834   1.021 -1.6840  1.3106  1.7613
 7771TIP3   OH244727   3.385   5.701   6.600 -0.0165  0.1756 -0.6306
 7771TIP3    H144728   3.332   5.635   6.645  1.4928  0.7376  2.2493
 7771TIP3    H244729   3.322   5.764   6.565 -1.3473 -1.1705 -0.7639
 7772TIP3   OH244730   5.125   5.642  11.918 -0.6957 -0.0089 -0.1469
 7772TIP3    H144731   5.164   5.723  11.885  0.6128 -0.3124  0.6201
 7772TIP3    H244732   5.033   5.666  11.935 -0.3484  1.2896  0.0084
 7773TIP3   OH244733   4.938   3.892  11.521  0.8808 -0.4200 -0.0243
 7773TIP3    H144734   4.916   3.808  11.481 -0.5737 -0.6285  1.1282
 7773TIP3    H244735   5.029   3.907  11.497  0.4709 -1.1457 -2.2672
 7774TIP3   OH244736   0.721   4.916   2.881 -0.1778 -0.3912  0.0865
 7774TIP3    H144737   0.808   4.880   2.897 -0.1709 -0.7594 -0.7547
 7774TIP3    H244738   0.732   5.010   2.893  0.6018 -0.3115 -1.1116
 7775TIP3   OH244739   3.206   2.769  12.892  0.2446  0.5871 -0.0348
 7775TIP3    H144740   3.267   2.765  12.819 -0.6318 -1.3325 -0.7419
 7775TIP3    H244741   3.121   2.786  12.851 -0.1534  0.1539  0.5854
 7776TIP3   OH244742   1.210   3.422  14.778 -0.2264 -0.2646 -0.2765
 7776TIP3    H144743   1.145   3.480  14.816 -0.9981 -1.1749 -0.1825
 7776TIP3    H244744   1.253   3.475  14.711 -0.3766  0.6516  0.3307
 7777TIP3   OH244745   2.577   3.739   4.673 -0.5624  0.0145  0.4003
 7777TIP3    H144746   2.580   3.778   4.586 -0.7503 -1.0192 -0.0836
 7777TIP3    H244747   2.488   3.758   4.704  0.2541  2.5530  1.4352
 7778TIP3   OH244748   6.133   6.610   5.207 -0.5038 -0.2000 -0.0390
 7778TIP3    H144749   6.044   6.614   5.243  0.0577 -0.8504  1.4881
 7778TIP3    H244750   6.123   6.563   5.125 -1.3394 -1.9975  1.0367
 7779TIP3   OH244751   5.265   6.047   1.934  0.1495  0.6649 -0.1768
 7779TIP3    H144752   5.170   6.050   1.926 -0.0373 -2.8241 -1.3187
 7779TIP3    H244753   5.281   6.015   2.023  0.3486  2.3323  0.4077
 7780TIP3   OH244754   6.465   3.040   0.036  0.5964 -0.5863 -0.3459
 7780TIP3    H144755   6.429   3.124   0.008 -0.6653 -1.4433 -1.4188
 7780TIP3    H244756   6.541   3.027  -0.022  0.2596 -0.5828 -0.7996
 7781TIP3   OH244757   4.892   0.773  12.397  0.5699 -0.0156 -0.4686
 7781TIP3    H144758   4.958   0.706  12.412 -0.3109 -1.3969 -2.3386
 7781TIP3    H244759   4.933   0.833  12.334  0.0545 -0.9319 -1.7116
 7782TIP3   OH244760   3.980   5.472  15.499 -0.5986  0.0990 -0.1000
 7782TIP3    H144761   4.035   5.548  15.515 -0.3065 -0.1801  0.2484
 7782TIP3    H244762   3.929   5.462  15.580  0.6235 -1.1024  0.5628
 7783TIP3   OH244763   6.411   4.894   5.742  0.1434  0.1864  0.0938
 7783TIP3    H144764   6.375   4.806   5.738 -0.5264  0.4692 -0.2433
 7783TIP3    H244765   6.482   4.888   5.806  1.0670 -0.9200 -0.9782
 7784TIP3   OH244766   2.627   6.068  13.327 -0.2297  0.1475  0.1377
 7784TIP3    H144767   2.610   6.009  13.401  1.0921 -0.6489 -0.1671
 7784TIP3    H244768   2.560   6.044  13.263  0.3197 -1.1010 -0.0107
 7785TIP3   OH244769   5.357   1.319   5.907 -0.4409 -0.5713  0.3261
 7785TIP3    H144770   5.359   1.414   5.892  2.8298 -0.6596 -0.6896
 7785TIP3    H244771   5.342   1.310   6.001 -0.4181  0.9717  0.5094
 7786TIP3   OH244772   0.430   0.327   5.848 -0.4919  0.2521  0.0070
 7786TIP3    H144773   0.336   0.344   5.839 -0.6244 -0.3863  0.1046
 7786TIP3    H244774   0.436   0.232   5.859  0.0704  0.4031  1.1828
 7787TIP3   OH244775   6.362   2.823  13.533  0.3265 -0.8568 -0.4604
 7787TIP3    H144776   6.433   2.834  13.597 -0.0980 -0.2174 -0.0849
 7787TIP3    H244777   6.340   2.730  13.538  0.8881 -0.9858 -0.3072
 7788TIP3   OH244778   3.165   3.709   6.150  0.2857 -0.2900 -0.3825
 7788TIP3    H144779   3.205   3.625   6.129  2.1271  0.8928 -2.0281
 7788TIP3    H244780   3.212   3.739   6.228 -0.3717 -0.7461  0.2052
 7789TIP3   OH244781   4.235   1.435  15.670 -0.0388 -0.3007 -0.1297
 7789TIP3    H144782   4.184   1.372  15.619 -0.0384 -0.2352 -0.2121
 7789TIP3    H244783   4.196   1.432  15.757  0.1328 -0.6107 -0.0610
 7790TIP3   OH244784   1.329   1.294  13.171 -0.4475  0.0906  0.0756
 7790TIP3    H144785   1.256   1.290  13.232  0.3661  0.2995  1.0981
 7790TIP3    H244786   1.313   1.223  13.108 -0.6189 -1.0007  1.3226
 7791TIP3   OH244787   2.225   6.555  11.270  0.1269 -0.0608 -0.4439
 7791TIP3    H144788   2.301   6.548  11.328  0.2510  0.3691 -0.5539
 7791TIP3    H244789   2.183   6.469  11.276  0.2524 -0.0859  0.1251
 7792TIP3   OH244790   4.384   5.133   1.329  0.2089  0.0624 -0.3835
 7792TIP3    H144791   4.351   5.160   1.415 -0.7189 -0.9612 -0.3905
 7792TIP3    H244792   4.404   5.215   1.284 -0.8256  0.6757  0.2285
 7793TIP3   OH244793   3.422   4.776   0.722  0.0039 -0.5943 -0.2288
 7793TIP3    H144794   3.327   4.784   0.709  0.2498 -0.4737 -2.3638
 7793TIP3    H244795   3.445   4.695   0.676  1.1954  0.5015 -1.6753
 7794TIP3   OH244796   5.734   3.450   0.498  0.0112  0.4104  0.3562
 7794TIP3    H144797   5.665   3.491   0.549 -1.2516  0.5173 -1.3497
 7794TIP3    H244798   5.701   3.449   0.408  1.1629 -1.8324 -0.1358
 7795TIP3   OH244799   0.517   3.519  14.341 -0.1023 -0.0154  0.0084
 7795TIP3    H144800   0.487   3.444  14.392 -0.1378  0.6460  0.9880
 7795TIP3    H244801   0.441   3.576  14.335  0.2039  0.4241  0.1894
 7796TIP3   OH244802   1.171   5.509  15.900  0.6901  0.0300 -0.4277
 7796TIP3    H144803   1.162   5.562  15.979 -0.8503 -0.9231  0.0929
 7796TIP3    H244804   1.192   5.421  15.932  1.3765 -0.0873 -1.1654
 7797TIP3   OH244805   3.225   4.020   5.748 -0.1845  0.7110  0.3054
 7797TIP3    H144806   3.316   4.006   5.774  0.1501  1.8176 -0.2170
 7797TIP3    H244807   3.217   4.115   5.738 -1.2849  0.5939 -0.0526
 7798TIP3   OH244808   2.077   6.296   3.086  1.0763 -0.3357 -0.5389
 7798TIP3    H144809   2.117   6.209   3.087  0.7169 -0.7675  4.7138
 7798TIP3    H244810   1.997   6.286   3.034  1.3904 -2.9233 -0.6202
 7799TIP3   OH244811   2.788   6.030   2.878 -0.0977  0.5632 -0.1216
 7799TIP3    H144812   2.803   5.997   2.967  0.8759  0.1010 -0.4535
 7799TIP3    H244813   2.704   6.075   2.884  0.3588  1.2974  1.2541
 7800TIP3   OH244814   2.634   6.580  16.916 -0.0261  0.2194 -0.2385
 7800TIP3    H144815   2.657   6.490  16.896 -0.4305  0.2375 -0.7934
 7800TIP3    H244816   2.635   6.584  17.012 -0.7412 -0.5699 -0.1836
 7801TIP3   OH244817   3.970   2.896  16.095  0.3301 -0.2463 -0.3908
 7801TIP3    H144818   3.995   2.804  16.086 -1.9158 -1.3549  2.8452
 7801TIP3    H244819   3.892   2.905  16.040  0.5302 -0.2649 -0.6803
 7802TIP3   OH244820   5.283   6.245  15.787  1.0128  0.0346  0.1598
 7802TIP3    H144821   5.297   6.282  15.874 -1.1040  0.0414  0.5719
 7802TIP3    H244822   5.195   6.276  15.763  1.5472  0.0251 -1.9913
 7803TIP3   OH244823   2.332   4.908   6.206 -0.1574  0.2989 -0.5077
 7803TIP3    H144824   2.385   4.915   6.285  0.8381 -1.8125 -0.9404
 7803TIP3    H244825   2.261   4.849   6.230  0.9523 -1.5469 -1.5202
 7804TIP3   OH244826   5.941   3.901   1.014 -0.4659 -0.0266  0.7729
 7804TIP3    H144827   6.035   3.884   1.020 -0.5026 -0.5742 -0.0866
 7804TIP3    H244828   5.902   3.817   0.988 -0.9888  0.5923 -0.5677
 7805TIP3   OH244829   2.443   0.456  16.298 -0.2129  0.0526 -0.4672
 7805TIP3    H144830   2.479   0.460  16.210  1.2191  0.9912  0.1107
 7805TIP3    H244831   2.413   0.545  16.316 -1.1273 -0.2884 -0.2468
 7806TIP3   OH244832   5.121   6.742  16.389 -0.1447  0.3836  0.4060
 7806TIP3    H144833   5.115   6.802  16.463  0.5950 -0.6106  1.3094
 7806TIP3    H244834   5.125   6.799  16.312  0.0704  1.4630  1.1898
 7807TIP3   OH244835   0.417   1.902  13.760 -0.2415 -0.4594  0.1614
 7807TIP3    H144836   0.496   1.876  13.808  0.4185  0.9451 -0.0980
 7807TIP3    H244837   0.440   1.889  13.668  0.3467  1.4648 -0.0235
 7808TIP3   OH244838   1.546   4.543   5.445  0.0301 -0.9155 -0.4330
 7808TIP3    H144839   1.581   4.602   5.512 -0.0231  0.0987 -1.2760
 7808TIP3    H244840   1.458   4.522   5.475 -0.3325  0.2704 -0.6224
 7809TIP3   OH244841   4.481   4.827  14.920 -0.0494 -0.1366  0.5792
 7809TIP3    H144842   4.447   4.746  14.957 -2.7952  0.1560 -1.0660
 7809TIP3    H244843   4.451   4.896  14.979 -0.6069 -0.0571  0.2125
 7810TIP3   OH244844   4.064   2.050  13.171  0.0110 -0.0098  0.4003
 7810TIP3    H144845   4.091   2.024  13.259 -0.1105 -0.7502  0.2278
 7810TIP3    H244846   3.968   2.049  13.175 -0.0815 -2.5739 -0.4034
 7811TIP3   OH244847   4.395   1.410   2.417 -0.1255 -0.0005 -0.8009
 7811TIP3    H144848   4.453   1.405   2.340  0.8260  0.8130 -0.1653
 7811TIP3    H244849   4.449   1.380   2.490  0.1641  2.4618  0.1196
 7812TIP3   OH244850   4.467   2.530  10.472  0.3898  0.2218 -0.3169
 7812TIP3    H144851   4.481   2.602  10.410 -0.4945  1.4997  0.8935
 7812TIP3    H244852   4.494   2.566  10.557  2.6313 -1.8393 -0.0467
 7813TIP3   OH244853   3.642   2.595   0.703  0.3325  0.0292  0.5600
 7813TIP3    H144854   3.677   2.527   0.760 -0.1034  0.0540  0.8613
 7813TIP3    H244855   3.712   2.612   0.640  0.3196 -0.9480  0.2643
 7814TIP3   OH244856   4.672   2.619  15.868 -0.5629  0.1669  0.2501
 7814TIP3    H144857   4.719   2.538  15.890  1.1848  0.5871 -1.7181
 7814TIP3    H244858   4.729   2.689  15.899 -0.8243  0.6825 -0.4278
 7815TIP3   OH244859   5.797   6.791   4.423 -0.0341 -0.0964 -0.2432
 7815TIP3    H144860   5.815   6.734   4.348 -0.1944 -0.5134  0.0295
 7815TIP3    H244861   5.702   6.796   4.427 -0.0515 -0.8785  0.5195
 7816TIP3   OH244862   1.194   2.292  13.308 -0.7541 -0.0945 -0.1595
 7816TIP3    H144863   1.141   2.259  13.380  0.0429 -2.5354 -0.5757
 7816TIP3    H244864   1.281   2.303  13.346 -0.3915 -1.1473 -0.6274
 7817TIP3   OH244865   1.540   3.512  13.370 -0.7406 -0.5878  0.2384
 7817TIP3    H144866   1.522   3.604  13.385 -0.2348 -0.3492 -0.5767
 7817TIP3    H244867   1.551   3.475  13.458 -0.3422  0.2431  0.5429
 7818TIP3   OH244868   6.775   1.062  15.876 -0.1558  0.0782 -0.3565
 7818TIP3    H144869   6.746   0.977  15.841 -0.5390 -0.9874  2.3184
 7818TIP3    H244870   6.758   1.056  15.970 -3.7257  4.5505 -0.4031
 7819TIP3   OH244871   3.320   2.083   1.010  0.5628 -0.1692  0.1202
 7819TIP3    H144872   3.408   2.091   1.045  0.6819  0.8284 -0.3852
 7819TIP3    H244873   3.329   2.019   0.938  0.6945 -0.7142  0.6129
 7820TIP3   OH244874   4.609   1.126  12.607 -0.4818  0.2727  0.2030
 7820TIP3    H144875   4.661   1.076  12.670 -1.3121  0.8818  1.4281
 7820TIP3    H244876   4.522   1.130  12.647 -1.3920 -0.4154 -1.6213
 7821TIP3   OH244877   4.006   0.929  11.463 -0.2656 -0.8886 -0.1606
 7821TIP3    H144878   4.100   0.932  11.441 -0.0734  0.5861  0.7354
 7821TIP3    H244879   3.962   0.941  11.378  0.3685 -0.4796 -0.4386
 7822TIP3   OH244880   1.676   6.206   3.074  0.2283  0.2659  0.0841
 7822TIP3    H144881   1.591   6.249   3.070  0.3778  0.4748 -0.9202
 7822TIP3    H244882   1.724   6.255   3.141 -0.3338  0.3339  0.4439
 7823TIP3   OH244883   0.056   3.684  17.174  0.0732 -0.1013 -0.2793
 7823TIP3    H144884   0.148   3.695  17.149  0.1799  0.1148  0.1980
 7823TIP3    H244885   0.021   3.624  17.109  1.4072 -3.0199  1.5120
 7824TIP3   OH244886   5.163   2.662  16.223  0.2760 -0.3302  0.2465
 7824TIP3    H144887   5.101   2.722  16.265 -1.2810 -1.2609 -0.6321
 7824TIP3    H244888   5.178   2.593  16.288  0.4539 -0.0639  0.4901
 7825TIP3   OH244889   6.367   2.283   4.599  0.2269 -0.0595 -0.3944
 7825TIP3    H144890   6.293   2.337   4.571  0.7782  0.6771 -0.4465
 7825TIP3    H244891   6.388   2.315   4.687 -0.1162 -0.9143  0.0166
 7826TIP3   OH244892   5.185   5.095   7.145 -0.1634  0.2845  0.5541
 7826TIP3    H144893   5.222   5.016   7.105 -1.6647  0.5762 -1.6399
 7826TIP3    H244894   5.108   5.064   7.193 -1.0641  0.4177 -0.7523
 7827TIP3   OH244895   6.649   5.297   2.293 -0.7968 -0.0429  0.3321
 7827TIP3    H144896   6.624   5.381   2.330 -1.2844  0.6452 -1.4176
 7827TIP3    H244897   6.673   5.243   2.368  1.3120  2.2064  1.4268
 7828TIP3   OH244898   0.985   4.799  11.398 -0.8083 -0.0787  0.1979
 7828TIP3    H144899   0.976   4.858  11.324 -0.1682 -1.7762 -1.2849
 7828TIP3    H244900   0.898   4.797  11.438 -1.7041 -0.5843 -1.6757
 7829TIP3   OH244901   6.663   2.310  14.943  0.2724 -0.4705  0.2285
 7829TIP3    H144902   6.623   2.277  14.862 -2.2799 -0.1026  1.2539
 7829TIP3    H244903   6.694   2.231  14.988  0.9699 -0.7471 -0.6817
 7830TIP3   OH244904   4.490   2.723   1.784  0.4632 -0.2215 -0.9740
 7830TIP3    H144905   4.580   2.727   1.815  0.1375 -0.1414 -0.0160
 7830TIP3    H244906   4.464   2.632   1.795  0.2337 -0.1223 -0.6781
 7831TIP3   OH244907   3.463   0.398   1.370  0.6420 -0.1094  0.4745
 7831TIP3    H144908   3.490   0.325   1.426  3.3792  2.2724  2.5175
 7831TIP3    H244909   3.485   0.369   1.281 -0.5738 -2.6303  0.9118
 7832TIP3   OH244910   1.624   6.361   1.663  0.3370  0.6178 -0.2161
 7832TIP3    H144911   1.697   6.422   1.649  2.1395 -1.0063  1.5411
 7832TIP3    H244912   1.561   6.411   1.714  0.9261  1.5647 -0.3749
 7833TIP3   OH244913   0.370   1.947   1.776 -0.1360  0.2158 -0.1985
 7833TIP3    H144914   0.427   1.990   1.840  0.0555  0.3394 -0.4495
 7833TIP3    H244915   0.287   1.934   1.823  0.2390 -0.3875  0.3150
 7834TIP3   OH244916   0.932   0.591  11.888  0.4882 -0.1941 -0.2645
 7834TIP3    H144917   0.940   0.686  11.899 -0.5883 -0.1257  0.0346
 7834TIP3    H244918   0.916   0.557  11.976 -1.2405 -0.4096 -0.6312
 7835TIP3   OH244919   2.794   6.269  15.600 -0.4786  0.1562 -0.5919
 7835TIP3    H144920   2.703   6.297  15.608 -0.1815  1.0322 -0.2305
 7835TIP3    H244921   2.844   6.350  15.586  0.3423 -0.2239  0.0411
 7836TIP3   OH244922   3.801   0.460   0.966  0.5811 -0.4888  0.6890
 7836TIP3    H144923   3.781   0.436   1.056  0.9480  2.0142  1.5040
 7836TIP3    H244924   3.888   0.500   0.970  0.4472  0.0081 -0.7031
 7837TIP3   OH244925   5.278   0.663  15.488 -0.3901  0.6457 -0.1748
 7837TIP3    H144926   5.246   0.695  15.573  0.1864  2.3666 -0.5659
 7837TIP3    H244927   5.223   0.707  15.423  0.3360  0.7171 -0.7486
 7838TIP3   OH244928   2.875   4.391   3.572  0.3775  0.8388 -0.8444
 7838TIP3    H144929   2.943   4.344   3.620 -0.3653 -1.1141 -1.5911
 7838TIP3    H244930   2.795   4.377   3.623  0.3497  2.3913 -0.4231
 7839TIP3   OH244931   3.563   1.452   2.101  0.2526 -0.4243 -0.4149
 7839TIP3    H144932   3.657   1.435   2.096  0.3497 -0.1771  0.4610
 7839TIP3    H244933   3.557   1.547   2.112 -0.0205 -0.6245  1.3283
 7840TIP3   OH244934   0.251   0.219   1.172  0.2307  0.1194 -0.2115
 7840TIP3    H144935   0.265   0.283   1.103  0.5333  1.3222  0.9300
 7840TIP3    H244936   0.226   0.270   1.249  0.1437 -1.1541  0.6519
 7841TIP3   OH244937   5.978   0.161  15.713  0.2895  0.4282 -0.1843
 7841TIP3    H144938   6.057   0.112  15.688  0.2450  0.6981 -0.8842
 7841TIP3    H244939   5.918   0.149  15.639  0.1508  1.2567 -0.2185
 7842TIP3   OH244940   1.482   6.429  14.601 -0.4250  0.3811  0.4578
 7842TIP3    H144941   1.498   6.431  14.696  2.1256  1.1346  0.0932
 7842TIP3    H244942   1.539   6.497  14.566 -0.4591 -0.6390 -1.7299
 7843TIP3   OH244943   1.556   6.235  13.543 -0.0746 -0.3646 -0.7772
 7843TIP3    H144944   1.545   6.178  13.619  0.3636 -0.8364 -1.0639
 7843TIP3    H244945   1.574   6.176  13.470 -0.9890  0.0499 -1.3536
 7844TIP3   OH244946   0.416   2.504   2.556 -0.5808  0.4687  0.2715
 7844TIP3    H144947   0.323   2.486   2.545 -0.2675 -0.8857 -0.3272
 7844TIP3    H244948   0.421   2.600   2.554 -2.2683  0.7607  3.3252
 7845TIP3   OH244949   1.363   3.547   2.505  0.0894 -0.1760  0.3525
 7845TIP3    H144950   1.371   3.485   2.432  0.4765  0.5579 -0.2479
 7845TIP3    H244951   1.439   3.606   2.494 -1.1014  1.3601 -0.0369
 7846TIP3   OH244952   0.840   1.747  13.672  0.1699  0.1322  0.0664
 7846TIP3    H144953   0.803   1.667  13.637  0.4645  0.2498 -0.5337
 7846TIP3    H244954   0.935   1.736  13.661  0.2592  0.2169  0.7343
 7847TIP3   OH244955   2.366   1.881  12.017  0.0907  0.1836  0.2163
 7847TIP3    H144956   2.406   1.820  12.079 -0.5430  0.5486  0.9926
 7847TIP3    H244957   2.315   1.825  11.959 -0.7885 -0.0097  1.1538
 7848TIP3   OH244958   4.793   2.655  11.333  0.3017  0.4808 -0.1128
 7848TIP3    H144959   4.846   2.734  11.349  0.4765  0.2840  0.2777
 7848TIP3    H244960   4.720   2.686  11.279 -0.1723  1.1103  0.8582
 7849TIP3   OH244961   1.024   2.192   4.266  0.1945  0.2016 -0.5141
 7849TIP3    H144962   1.036   2.152   4.180  0.6046 -0.3046 -0.2249
 7849TIP3    H244963   0.948   2.147   4.302 -0.7353  1.2493 -1.0838
 7850TIP3   OH244964   0.858   4.469   5.335  0.2766 -0.3523 -0.1016
 7850TIP3    H144965   0.941   4.460   5.383 -0.4389 -0.9403  1.0814
 7850TIP3    H244966   0.875   4.538   5.271  2.4347 -2.1280 -1.6057
 7851TIP3   OH244967   0.907   4.958  14.556  0.0624 -0.1962  0.4339
 7851TIP3    H144968   0.901   4.931  14.648 -0.1482  0.8669  0.7513
 7851TIP3    H244969   0.963   5.036  14.558 -1.1190  0.6968 -0.1417
 7852TIP3   OH244970   0.606   5.185  14.422  0.6555 -0.8707 -0.6850
 7852TIP3    H144971   0.619   5.092  14.441  3.6213 -0.5173 -0.5104
 7852TIP3    H244972   0.614   5.192  14.327  0.6197 -0.7569 -0.6808
 7853TIP3   OH244973   0.911   1.386   5.461 -0.2957  0.4334 -0.1210
 7853TIP3    H144974   0.924   1.404   5.368  1.1334  1.0704  0.1668
 7853TIP3    H244975   0.828   1.339   5.465 -0.4755  0.5525 -1.6946
 7854TIP3   OH244976   5.486   2.418   4.465  0.4345  0.5355 -0.0366
 7854TIP3    H144977   5.400   2.432   4.503  0.6944 -0.2966  0.8982
 7854TIP3    H244978   5.541   2.487   4.501  0.7101 -0.3217  1.2369
 7855TIP3   OH244979   6.671   6.543   4.955 -0.0570  0.0670  0.5209
 7855TIP3    H144980   6.581   6.564   4.980 -0.2088 -0.5934  0.5432
 7855TIP3    H244981   6.702   6.482   5.023  1.0770  1.7656  1.6080
 7856TIP3   OH244982   5.482   4.954  15.793 -0.0312  0.0123  0.0831
 7856TIP3    H144983   5.518   5.024  15.848 -0.2756  1.0487 -1.0405
 7856TIP3    H244984   5.557   4.897  15.775 -0.2379 -1.2558  2.7279
 7857TIP3   OH244985   4.369   5.782  12.775 -0.4349 -0.0468  0.1780
 7857TIP3    H144986   4.351   5.718  12.844  0.0993  0.0255  0.3903
 7857TIP3    H244987   4.453   5.821  12.799 -0.7128  0.6809  0.0058
 7858TIP3   OH244988   6.207   1.646   5.680 -0.3850  0.7452 -0.1482
 7858TIP3    H144989   6.117   1.661   5.710 -0.9652 -1.1375 -0.8061
 7858TIP3    H244990   6.254   1.619   5.759 -0.4830  1.3236  0.1157
 7859TIP3   OH244991   5.505   6.287   6.465 -0.0514 -0.2261 -0.0154
 7859TIP3    H144992   5.471   6.283   6.376 -0.4069  0.7704  0.0556
 7859TIP3    H244993   5.427   6.292   6.520  0.0564  3.3550  0.0860
 7860TIP3   OH244994   5.994   0.587   5.535 -1.0124 -0.8850  0.0828
 7860TIP3    H144995   5.977   0.567   5.627 -1.5936  0.5706  0.3196
 7860TIP3    H244996   5.910   0.575   5.491 -0.9764 -0.6221 -0.0640
 7861TIP3   OH244997   4.205   2.678   2.222 -0.0070  0.0305  0.2979
 7861TIP3    H144998   4.215   2.614   2.152 -0.8335  1.4620 -1.1824
 7861TIP3    H244999   4.121   2.721   2.204  0.2948  1.2208  1.5201
 7862TIP3   OH245000   3.203   2.796  11.429  0.0087  0.1113 -0.2819
 7862TIP3    H145001   3.242   2.870  11.383 -0.1040  2.0582  2.4649
 7862TIP3    H245002   3.278   2.752  11.470 -0.0012 -0.9095 -1.3110
 7863TIP3   OH245003   4.954   6.131  16.910 -0.5243  0.3717 -0.0426
 7863TIP3    H145004   4.871   6.110  16.866 -0.6489  0.8207 -0.0374
 7863TIP3    H245005   5.006   6.175  16.842 -0.4034  0.3441  0.0336
 7864TIP3   OH245006   0.103   6.744   4.729 -0.8567 -0.3724  0.3273
 7864TIP3    H145007   0.082   6.830   4.693 -1.0728 -0.9356 -0.9231
 7864TIP3    H245008   0.189   6.756   4.770  1.1400 -0.4729 -3.3887
 7865TIP3   OH245009   1.702   3.324   5.298  0.4035  0.2577 -0.4255
 7865TIP3    H145010   1.688   3.233   5.323 -0.1689  0.7995  1.3430
 7865TIP3    H245011   1.757   3.318   5.219  0.6212 -1.5917 -0.1932
 7866TIP3   OH245012   0.327   1.924  13.035  0.7335  0.1543 -0.3078
 7866TIP3    H145013   0.377   1.848  13.065 -0.6157 -0.7100 -0.1569
 7866TIP3    H245014   0.305   1.904  12.944 -0.4349 -0.0834  0.0216
 7867TIP3   OH245015   5.040   2.756   0.883 -0.2057  0.4735  0.5645
 7867TIP3    H145016   5.130   2.756   0.917 -0.1734  0.6307  0.4836
 7867TIP3    H245017   5.037   2.832   0.824 -0.1672  0.0338 -0.0227
 7868TIP3   OH245018   2.163   4.463  14.335 -0.0038  1.0374 -0.2199
 7868TIP3    H145019   2.198   4.391  14.388 -1.4361  1.1043  0.8983
 7868TIP3    H245020   2.209   4.456  14.252  1.5419  0.2446  0.6505
 7869TIP3   OH245021   5.127   3.192   4.602  0.5963 -0.0408  0.0344
 7869TIP3    H145022   5.094   3.103   4.589  0.8666 -0.4964  2.1314
 7869TIP3    H245023   5.062   3.248   4.559  0.7250 -1.2525 -1.8304
 7870TIP3   OH245024   0.481   1.827  13.516 -0.2926  0.1620  0.1048
 7870TIP3    H145025   0.550   1.809  13.453 -0.3843  1.0860 -0.2753
 7870TIP3    H245026   0.429   1.896  13.475  0.1766  1.4349  1.5647
 7871TIP3   OH245027   3.092   3.182   4.104  0.2976 -0.3040 -0.0878
 7871TIP3    H145028   3.169   3.149   4.150 -0.4804 -1.1589  0.6592
 7871TIP3    H245029   3.060   3.253   4.159  1.6459  1.4245 -1.4090
 7872TIP3   OH245030   5.725   4.965   6.670  0.0366  0.2055 -0.6821
 7872TIP3    H145031   5.746   4.965   6.763 -1.5819 -0.4411 -0.2878
 7872TIP3    H245032   5.732   5.057   6.644 -2.5087  0.9604  0.8525
 7873TIP3   OH245033   6.375   2.512   2.698 -0.1688  0.2316 -0.0963
 7873TIP3    H145034   6.381   2.475   2.786 -1.0540 -1.0014 -0.5238
 7873TIP3    H245035   6.437   2.585   2.699  0.3554 -0.1833  1.3267
 7874TIP3   OH245036   0.574   4.137   1.930 -0.3682 -0.2392  0.1529
 7874TIP3    H145037   0.617   4.054   1.913  0.5736  0.3163 -0.2539
 7874TIP3    H245038   0.588   4.188   1.850  1.0694  1.1404  1.2244
 7875TIP3   OH245039   5.497   0.775   4.193 -0.3203 -0.5108 -0.1123
 7875TIP3    H145040   5.495   0.796   4.100  0.2629 -0.1622 -0.0503
 7875TIP3    H245041   5.575   0.722   4.204 -0.3196 -0.4461  0.1984
 7876TIP3   OH245042   4.659   6.111  16.296 -0.2227  0.0260  0.5234
 7876TIP3    H145043   4.667   6.094  16.202 -2.1986 -2.7879  0.7471
 7876TIP3    H245044   4.744   6.145  16.321  0.8505 -0.5034 -2.0291
 7877TIP3   OH245045   3.230   5.237   3.315  0.4962 -0.3847  0.0838
 7877TIP3    H145046   3.304   5.212   3.371  1.3471  0.0015 -0.8421
 7877TIP3    H245047   3.236   5.177   3.240 -0.9131 -1.2159  0.5920
 7878TIP3   OH245048   2.615   5.922   5.520  0.2035  0.6214 -0.2018
 7878TIP3    H145049   2.589   6.010   5.546 -0.3121 -0.0665  1.8630
 7878TIP3    H245050   2.619   5.873   5.603  0.9400 -1.1737 -1.2336
 7879TIP3   OH245051   6.363   2.444  15.950 -0.1279 -0.7266  0.0493
 7879TIP3    H145052   6.335   2.493  15.874  1.4378 -0.3022 -0.2884
 7879TIP3    H245053   6.353   2.352  15.925 -2.4794 -0.6308  0.4616
 7880TIP3   OH245054   5.224   5.153   6.229 -0.4053  0.1098  0.1299
 7880TIP3    H145055   5.310   5.192   6.211 -0.2241  0.1212  0.9646
 7880TIP3    H245056   5.221   5.147   6.325 -1.2220 -0.1534  0.0890
 7881TIP3   OH245057   5.286   1.992   0.216  0.4939 -0.2411 -0.4963
 7881TIP3    H145058   5.226   2.066   0.227  0.0646 -0.8426  1.6071
 7881TIP3    H245059   5.237   1.930   0.162 -0.2098 -0.1059 -0.0258
 7882TIP3   OH245060   1.817   4.872  13.475  0.2287 -0.1309  0.4902
 7882TIP3    H145061   1.798   4.965  13.468  0.5233 -0.0406  0.8078
 7882TIP3    H245062   1.883   4.867  13.545  1.3132 -0.4214 -0.5173
 7883TIP3   OH245063   3.206   6.432  11.435 -0.0215 -0.0436 -0.1560
 7883TIP3    H145064   3.140   6.429  11.366  0.3632 -1.8795 -0.4865
 7883TIP3    H245065   3.275   6.373  11.405  0.4628 -0.3637  1.4875
 7884TIP3   OH245066   3.074   4.754  16.557  0.4156  0.0767 -0.3466
 7884TIP3    H145067   3.145   4.696  16.531  1.0726  0.1660  1.1176
 7884TIP3    H245068   3.026   4.704  16.623 -0.5948  0.2059 -0.9741
 7885TIP3   OH245069   0.026   5.651  14.215  0.0326 -0.3291  0.6114
 7885TIP3    H145070   0.051   5.563  14.185 -0.6662  0.1931 -1.6491
 7885TIP3    H245071  -0.043   5.635  14.280 -1.7674 -1.4508 -1.4642
 7886TIP3   OH245072   5.724   0.239  13.907 -0.2590 -0.3096  0.2354
 7886TIP3    H145073   5.788   0.236  13.835 -0.6229 -2.3933 -0.0601
 7886TIP3    H245074   5.768   0.193  13.979 -0.3973  0.6508  0.9544
 7887TIP3   OH245075   5.531   1.859   1.933  0.0255  0.1424  0.2969
 7887TIP3    H145076   5.583   1.898   1.863 -0.2321 -1.6682 -0.9736
 7887TIP3    H245077   5.552   1.911   2.010  2.5171  0.4633 -0.5053
 7888TIP3   OH245078   2.679   3.039   0.394 -0.2708  0.0936 -0.0627
 7888TIP3    H145079   2.636   2.990   0.324  0.7022 -0.5528 -0.2359
 7888TIP3    H245080   2.611   3.052   0.460 -0.8698 -0.4064 -0.5726
 7889TIP3   OH245081   1.407   5.360   5.163 -0.0000 -0.1487  0.3123
 7889TIP3    H145082   1.473   5.384   5.229  0.6581  0.2437 -0.4701
 7889TIP3    H245083   1.387   5.268   5.180  1.8754 -0.7168 -0.3733
 7890TIP3   OH245084   1.548   2.106  11.427  0.4821 -0.4253  0.8586
 7890TIP3    H145085   1.641   2.125  11.440  0.7857 -0.1811 -1.3798
 7890TIP3    H245086   1.547   2.025  11.376 -0.5757 -0.8421  1.5110
 7891TIP3   OH245087   4.874   6.695   3.349  0.2744  0.0933 -0.1289
 7891TIP3    H145088   4.873   6.745   3.267  1.5085  1.8124  0.8366
 7891TIP3    H245089   4.962   6.709   3.384 -0.0010 -1.2018  1.1518
 7892TIP3   OH245090   2.142   1.069  14.377  0.1237  0.5484 -0.4742
 7892TIP3    H145091   2.211   1.067  14.442  0.6962  2.0065 -0.9852
 7892TIP3    H245092   2.161   1.147  14.325 -2.6845  1.8424  0.2536
 7893TIP3   OH245093   0.333   2.259   1.990 -0.2808 -0.3685  0.1014
 7893TIP3    H145094   0.400   2.312   1.948 -0.1588 -0.0445  0.6812
 7893TIP3    H245095   0.370   2.171   1.994  0.5599  0.0045  1.3177
 7894TIP3   OH245096   1.512   5.885   4.376 -0.3956  0.1386 -0.4596
 7894TIP3    H145097   1.440   5.923   4.426 -1.0487 -0.6389 -0.7969
 7894TIP3    H245098   1.514   5.793   4.403 -0.8560 -0.3401 -1.9428
 7895TIP3   OH245099   1.779   3.942  13.099 -0.0197 -0.1340  0.0580
 7895TIP3    H145100   1.746   3.886  13.029  0.9381 -1.6453  0.7506
 7895TIP3    H245101   1.816   4.018  13.054 -0.7240 -0.3837 -0.9597
 7896TIP3   OH245102   5.210   1.881  16.420  0.4912  0.5273  0.5583
 7896TIP3    H145103   5.227   1.812  16.356  0.8235  1.0359  0.0794
 7896TIP3    H245104   5.145   1.937  16.377 -1.0135 -0.3474  1.5946
 7897TIP3   OH245105   0.681   6.471   3.425 -0.0665  0.0206 -0.3675
 7897TIP3    H145106   0.674   6.563   3.452 -0.1934 -0.0448 -0.1742
 7897TIP3    H245107   0.774   6.450   3.434  0.0201  0.2267 -0.7349
 7898TIP3   OH245108   3.805   4.206   2.722  0.0072 -0.0900  0.6059
 7898TIP3    H145109   3.779   4.244   2.638  1.0978 -0.3382  0.1421
 7898TIP3    H245110   3.826   4.281   2.777 -1.4789  0.1099  0.9380
 7899TIP3   OH245111   0.521   2.806   6.695 -0.4582  0.6465  0.2751
 7899TIP3    H145112   0.474   2.754   6.631 -0.8776 -1.4738  2.1912
 7899TIP3    H245113   0.458   2.873   6.723 -0.3719  1.3924 -1.2009
 7900TIP3   OH245114   6.145   6.322  15.497 -0.2019  0.1356 -0.6734
 7900TIP3    H145115   6.102   6.254  15.445  0.7557 -0.1595 -1.1023
 7900TIP3    H245116   6.171   6.278  15.578 -1.8719  0.6436  0.1890
 7901TIP3   OH245117   3.198   6.456   2.948 -0.1281  0.3017  0.1410
 7901TIP3    H145118   3.130   6.523   2.959 -0.7202 -0.5075  1.6740
 7901TIP3    H245119   3.253   6.466   3.026  1.1536  0.5146 -0.7679
 7902TIP3   OH245120   3.140   2.431   3.671 -0.0934 -0.1347 -0.4426
 7902TIP3    H145121   3.213   2.493   3.676 -0.2425  0.0490 -0.5232
 7902TIP3    H245122   3.165   2.359   3.729  0.2796 -0.2052 -0.6833
 7903TIP3   OH245123   1.719   5.840   5.534  0.0249 -0.6104  0.4338
 7903TIP3    H145124   1.780   5.876   5.599  0.9629 -1.1176 -0.1527
 7903TIP3    H245125   1.642   5.896   5.540  1.3923  1.4665 -0.3759
 7904TIP3   OH245126   1.540   5.160   1.155  0.4700  0.2394  0.2815
 7904TIP3    H145127   1.588   5.085   1.190  2.3785  2.1538  2.0836
 7904TIP3    H245128   1.493   5.196   1.231 -0.1454  1.0567 -0.4594
 7905TIP3   OH245129   6.753   0.916   5.748 -0.1552  0.0373 -0.0444
 7905TIP3    H145130   6.696   0.992   5.764 -1.2252 -0.4809 -1.2609
 7905TIP3    H245131   6.815   0.946   5.681  0.7244  0.4313  0.9021
 7906TIP3   OH245132   4.610   3.302  10.679 -0.6562  0.1342 -0.5529
 7906TIP3    H145133   4.539   3.364  10.663 -1.4694 -1.2446 -2.7080
 7906TIP3    H245134   4.568   3.216  10.675  1.1494 -0.7449 -2.1446
 7907TIP3   OH245135   6.086   1.579  11.623  0.4398  0.0348  0.3769
 7907TIP3    H145136   6.054   1.489  11.608  0.5760 -0.1841  1.3870
 7907TIP3    H245137   6.061   1.626  11.543 -2.1856 -0.2011  0.9604
 7908TIP3   OH245138   0.225   2.841  14.822  0.0213 -0.3462 -0.7498
 7908TIP3    H145139   0.249   2.869  14.734 -0.0923 -2.2324 -1.4443
 7908TIP3    H245140   0.139   2.801  14.811 -0.2141 -0.1659  0.3247
 7909TIP3   OH245141   1.655   6.503   0.936  0.3474 -0.3685 -0.1558
 7909TIP3    H145142   1.569   6.465   0.954 -1.3340  1.5194 -3.1937
 7909TIP3    H245143   1.662   6.502   0.841  1.7336  3.4122 -0.2654
 7910TIP3   OH245144   2.553   4.902   0.349 -0.1673 -0.1791 -0.0796
 7910TIP3    H145145   2.459   4.893   0.334 -0.1072 -2.3587  0.5248
 7910TIP3    H245146   2.563   4.901   0.444  0.5537 -1.3528 -0.1546
 7911TIP3   OH245147   4.654   3.409  15.269  0.6566  0.1269 -0.2948
 7911TIP3    H145148   4.559   3.401  15.278  0.5498  2.0449  0.5690
 7911TIP3    H245149   4.682   3.323  15.236 -1.4605 -0.2033 -1.3747
 7912TIP3   OH245150   4.997   4.119  11.936 -0.0868 -0.3320 -0.2784
 7912TIP3    H145151   4.991   4.116  11.840  0.0408 -0.8855 -0.2719
 7912TIP3    H245152   5.016   4.211  11.955 -0.1527 -0.2083 -0.7830
 7913TIP3   OH245153   6.525   4.383   1.678 -0.7035  0.1127 -0.7812
 7913TIP3    H145154   6.616   4.372   1.652 -1.0794  0.4500 -2.3413
 7913TIP3    H245155   6.478   4.400   1.596 -2.3320 -1.0950 -0.1594
 7914TIP3   OH245156   2.768   4.494   6.500 -0.0343  0.4482 -0.0831
 7914TIP3    H145157   2.748   4.558   6.568 -0.1483 -0.0787  0.3885
 7914TIP3    H245158   2.704   4.424   6.513  1.5726 -0.9409  1.0006
 7915TIP3   OH245159   6.487   0.598  13.654 -0.3768  0.7200  0.4185
 7915TIP3    H145160   6.451   0.517  13.618  1.4285 -0.1908  0.5423
 7915TIP3    H245161   6.505   0.578  13.745  1.2235  0.8114  0.1559
 7916TIP3   OH245162   2.749   6.601  11.731  0.6770 -0.0041 -0.2850
 7916TIP3    H145163   2.831   6.571  11.770  1.1088  0.9114 -0.4364
 7916TIP3    H245164   2.687   6.600  11.803  1.5857  2.1362  0.6293
 7917TIP3   OH245165   2.985   0.804   4.694  0.9654  0.0701  0.0216
 7917TIP3    H145166   2.967   0.882   4.746  1.4269 -0.4515  0.9897
 7917TIP3    H245167   2.962   0.731   4.751 -1.0917 -0.5316 -1.4663
 7918TIP3   OH245168   5.999   0.599  11.646 -0.0639  0.1838 -0.1658
 7918TIP3    H145169   5.933   0.548  11.694 -0.5595 -0.1497 -1.1590
 7918TIP3    H245170   6.063   0.535  11.618 -1.6518 -0.3256 -3.0477
 7919TIP3   OH245171   5.110   5.297   4.026  0.2009  0.8375  0.1169
 7919TIP3    H145172   5.203   5.274   4.033  0.3866  1.9053  1.7118
 7919TIP3    H245173   5.109   5.391   4.007 -0.5216  1.1153  1.3689
 7920TIP3   OH245174   2.183   4.794   1.781  0.1535 -0.1966  0.0257
 7920TIP3    H145175   2.091   4.819   1.780  0.1783 -0.1165 -0.6674
 7920TIP3    H245176   2.207   4.794   1.874 -0.4753  0.0227  0.1919
 7921TIP3   OH245177   2.168   3.733  13.957 -0.2846  0.0593 -0.3025
 7921TIP3    H145178   2.163   3.754  14.051 -1.5184  1.3151 -0.6152
 7921TIP3    H245179   2.101   3.666  13.944  0.0965 -0.3378 -0.2400
 7922TIP3   OH245180   2.504   4.873   2.731 -0.1717  0.2997 -0.2639
 7922TIP3    H145181   2.542   4.786   2.724  0.3828  0.4401  0.8025
 7922TIP3    H245182   2.506   4.893   2.824 -1.0617  1.1238 -0.3995
 7923TIP3   OH245183   4.110   5.738  16.459  0.2949 -0.8278 -0.0473
 7923TIP3    H145184   4.064   5.740  16.543  1.9994 -2.6769  1.0325
 7923TIP3    H245185   4.149   5.825  16.451  0.7004 -0.8404  1.4652
 7924TIP3   OH245186   4.592   4.588   1.825  0.3065  0.3592 -0.6661
 7924TIP3    H145187   4.619   4.505   1.785 -1.3033 -1.3760  1.5789
 7924TIP3    H245188   4.496   4.582   1.829  0.2900  1.3712  1.4203
 7925TIP3   OH245189   2.356   3.257   2.354 -0.4105  0.3341  0.0283
 7925TIP3    H145190   2.361   3.346   2.317  0.1777  0.1819 -0.2683
 7925TIP3    H245191   2.290   3.213   2.300 -0.8190  0.6357  0.2764
 7926TIP3   OH245192   0.082   1.819  10.926 -0.3129  0.0366  0.0704
 7926TIP3    H145193   0.051   1.766  10.999  0.1769  1.5628  1.4602
 7926TIP3    H245194   0.176   1.828  10.940 -0.3408  1.0261 -0.2741
 7927TIP3   OH245195   4.855   5.082  13.733 -0.3657 -0.0671 -0.3142
 7927TIP3    H145196   4.873   5.073  13.827  0.4373 -0.4796 -0.4984
 7927TIP3    H245197   4.760   5.079  13.727 -0.4160 -0.3393  0.4596
 7928TIP3   OH245198   3.806   5.140   4.657  0.5966  0.4448  0.3146
 7928TIP3    H145199   3.789   5.082   4.583  0.5740  0.5176  0.2619
 7928TIP3    H245200   3.733   5.202   4.656  2.0412  2.2390 -1.3643
 7929TIP3   OH245201   6.661   4.844  11.443 -0.5477  0.1097 -0.8676
 7929TIP3    H145202   6.727   4.909  11.417 -0.6791 -0.5268 -3.0497
 7929TIP3    H245203   6.638   4.867  11.532  3.0814 -0.0190  0.2606
 7930TIP3   OH245204   3.306   2.281  13.161 -0.2703 -0.2039  0.1186
 7930TIP3    H145205   3.398   2.267  13.182 -0.0487  1.0059 -0.0080
 7930TIP3    H245206   3.270   2.324  13.238 -0.2330  1.2125 -0.6352
 7931TIP3   OH245207   4.577   0.094  15.537 -0.2669  0.3570  0.5373
 7931TIP3    H145208   4.651   0.076  15.594 -0.9158 -1.7417  0.8022
 7931TIP3    H245209   4.607   0.068  15.450 -0.4720  0.1212  0.5356
 7932TIP3   OH245210   4.712   5.243  12.979  0.2131  0.0508  0.3938
 7932TIP3    H145211   4.674   5.249  12.891 -1.1075  0.3026  0.9494
 7932TIP3    H245212   4.747   5.154  12.984 -0.9752 -0.4493  0.0897
 7933TIP3   OH245213   4.590   0.977   2.539  0.2106  0.2738  0.1022
 7933TIP3    H145214   4.602   0.965   2.444  1.6862 -1.8159  0.4613
 7933TIP3    H245215   4.537   0.902   2.566  0.1408  0.6357  0.9934
 7934TIP3   OH245216   2.984   1.958   4.978 -0.5949  0.5198  0.1821
 7934TIP3    H145217   2.972   1.899   4.905 -0.2765  0.2026  0.3821
 7934TIP3    H245218   2.897   1.995   4.994 -1.2093 -1.2525  1.2185
 7935TIP3   OH245219   2.616   5.811   5.238  0.5933  0.0723 -0.7065
 7935TIP3    H145220   2.709   5.790   5.242  0.1094 -2.0675  0.7112
 7935TIP3    H245221   2.601   5.870   5.311  0.8903  0.7929 -1.2132
 7936TIP3   OH245222   2.751   1.247  12.662 -0.1952 -0.3760  0.0319
 7936TIP3    H145223   2.715   1.229  12.749 -0.3446  1.0866  0.3044
 7936TIP3    H245224   2.838   1.283  12.679 -0.8459  1.4730 -0.2934
 7937TIP3   OH245225   3.360   5.467   2.869 -0.1847  0.5147 -0.3623
 7937TIP3    H145226   3.417   5.392   2.854  1.3565  1.7726 -1.0100
 7937TIP3    H245227   3.296   5.436   2.933 -0.8591 -1.9586 -2.0792
 7938TIP3   OH245228   2.915   2.837   2.814  0.2578 -0.0375 -0.1882
 7938TIP3    H145229   2.856   2.907   2.784 -0.4488 -1.1436 -1.5120
 7938TIP3    H245230   2.885   2.759   2.767  1.0131 -1.2539  1.2543
 7939TIP3   OH245231   1.348   4.396  13.775 -0.3265 -0.2636 -0.3362
 7939TIP3    H145232   1.292   4.386  13.852 -1.5644 -0.6396 -1.2586
 7939TIP3    H245233   1.426   4.343  13.795 -0.6556 -0.4112  0.6113
 7940TIP3   OH245234   3.720   0.941   4.519  0.1507  0.1625  0.2914
 7940TIP3    H145235   3.745   0.851   4.496  0.0024  0.1390  0.2238
 7940TIP3    H245236   3.656   0.966   4.453  1.7572  1.0918 -0.9837
 7941TIP3   OH245237   5.808   2.866   2.283  0.4893 -0.4857 -0.3540
 7941TIP3    H145238   5.782   2.885   2.373  1.7167  0.0389 -0.1014
 7941TIP3    H245239   5.745   2.913   2.229  0.6127  0.3735  0.2431
 7942TIP3   OH245240   2.766   3.935  15.479 -0.5150 -0.2161 -0.2663
 7942TIP3    H145241   2.860   3.944  15.463 -0.5889  1.2466 -0.0765
 7942TIP3    H245242   2.736   3.874  15.411  0.4725 -0.2378 -0.7082
 7943TIP3   OH245243   1.942   0.749  12.832 -0.3484  0.8158 -0.0411
 7943TIP3    H145244   1.872   0.812  12.849 -0.3403  1.0544 -0.8509
 7943TIP3    H245245   1.995   0.790  12.763  0.7714  0.7815  0.7647
 7944TIP3   OH245246   5.713   3.145  12.808  0.5644 -0.2809 -0.4413
 7944TIP3    H145247   5.688   3.160  12.899 -0.5742 -0.5110 -0.6999
 7944TIP3    H245248   5.756   3.226  12.781  1.5208 -0.4591  0.4916
 7945TIP3   OH245249   2.323   5.135  12.078  0.2374 -0.0199  0.1041
 7945TIP3    H145250   2.358   5.104  12.162 -0.0087 -1.8540 -0.4187
 7945TIP3    H245251   2.230   5.115  12.082 -0.2413  2.0329  0.2769
 7946TIP3   OH245252   3.325   6.188   3.221  0.6334 -0.8287  0.5936
 7946TIP3    H145253   3.284   6.102   3.213  0.9057 -0.8486 -0.9773
 7946TIP3    H245254   3.382   6.180   3.298 -0.4767 -1.5558  1.3681
 7947TIP3   OH245255   3.784   0.720   4.408 -0.4621 -0.6553  0.2661
 7947TIP3    H145256   3.725   0.645   4.404  1.3147 -2.1798  0.6660
 7947TIP3    H245257   3.839   0.711   4.331  1.3314 -1.2218  1.5303
 7948TIP3   OH245258   6.366   1.713   6.332  1.4069 -0.2918  0.7601
 7948TIP3    H145259   6.322   1.640   6.288 -0.3549  0.7624  0.7141
 7948TIP3    H245260   6.453   1.717   6.291  0.7031 -0.9092 -0.8468
 7949TIP3   OH245261   6.668   2.579   3.279 -0.2320  0.1891 -0.9093
 7949TIP3    H145262   6.579   2.603   3.253  0.1327  1.5465 -0.9294
 7949TIP3    H245263   6.671   2.484   3.268 -2.1054 -0.0666  0.4108
 7950TIP3   OH245264   2.475   6.117   5.701 -0.2969  0.0052  0.3905
 7950TIP3    H145265   2.382   6.112   5.678 -0.4687 -1.9070  1.2899
 7950TIP3    H245266   2.480   6.079   5.789  0.7254  4.3585  2.4940
 7951TIP3   OH245267   1.465   0.603   2.058  0.4640  0.1057 -0.2826
 7951TIP3    H145268   1.500   0.543   1.992 -1.8103  1.0594 -2.5341
 7951TIP3    H245269   1.523   0.679   2.056  2.1092 -1.0335  1.0442
 7952TIP3   OH245270   2.173   0.176  15.805  0.5680 -0.1691  1.0376
 7952TIP3    H145271   2.254   0.226  15.810 -1.0968  2.9617 -0.3553
 7952TIP3    H245272   2.171   0.143  15.715  0.8169 -1.3654  1.4408
 7953TIP3   OH245273   3.986   1.487  17.129 -0.0745  0.3146 -0.1262
 7953TIP3    H145274   3.894   1.507  17.147  0.5659  2.5467  0.9631
 7953TIP3    H245275   4.010   1.422  17.195 -0.5640  0.5969  0.3350
 7954TIP3   OH245276   4.759   0.074   0.575  0.1946  0.3561  0.1072
 7954TIP3    H145277   4.746   0.129   0.652  0.1962 -0.7192  0.9157
 7954TIP3    H245278   4.733   0.128   0.501 -1.5130  0.8356  1.0149
 7955TIP3   OH245279   0.439   4.829  14.825 -0.8829 -0.5694  0.4326
 7955TIP3    H145280   0.483   4.892  14.883  0.9987 -2.1666  0.8833
 7955TIP3    H245281   0.394   4.883  14.760  0.5865  1.2556  0.8258
 7956TIP3   OH245282   6.205   5.412  14.210 -0.3372  0.4181  0.1648
 7956TIP3    H145283   6.268   5.449  14.148 -1.3496  0.2706 -1.0140
 7956TIP3    H245284   6.160   5.489  14.246  0.4631  0.5199  0.9630
 7957TIP3   OH245285   5.804   2.920   3.897 -0.2931 -0.2596  0.3407
 7957TIP3    H145286   5.898   2.932   3.878 -0.0042 -2.1065  0.4264
 7957TIP3    H245287   5.790   2.970   3.978  1.2012 -1.8613  1.6624
 7958TIP3   OH245288   4.730   6.376  11.824 -0.2893 -0.0706 -0.1711
 7958TIP3    H145289   4.672   6.357  11.750 -0.0873  2.7293 -1.1515
 7958TIP3    H245290   4.684   6.445  11.873  1.0896  0.4417  0.4452
 7959TIP3   OH245291   1.930   2.292  16.251  0.0367 -0.3175 -0.1987
 7959TIP3    H145292   1.898   2.287  16.341  0.2391 -1.9695 -0.2037
 7959TIP3    H245293   2.009   2.346  16.258  1.9971 -3.1183  1.2402
 7960TIP3   OH245294   2.585   0.929   2.219 -1.2624  0.2319 -0.1047
 7960TIP3    H145295   2.641   0.940   2.296 -1.4446  1.3634 -0.1103
 7960TIP3    H245296   2.550   0.840   2.227  0.8531 -0.6855 -0.3286
 7961TIP3   OH245297   1.524   2.832   3.970  0.0312 -0.0960  0.9579
 7961TIP3    H145298   1.511   2.914   4.017  2.2246  1.1918 -0.5046
 7961TIP3    H245299   1.606   2.798   4.005  0.6642 -0.1254 -0.4784
 7962TIP3   OH245300   2.880   3.888  12.645 -0.1603  0.6541  0.3944
 7962TIP3    H145301   2.896   3.959  12.707 -0.2470  0.1325  1.0196
 7962TIP3    H245302   2.907   3.809  12.691 -0.0072  0.2831 -0.3177
 7963TIP3   OH245303   3.980   2.841   2.121 -0.9131  0.3358  0.5354
 7963TIP3    H145304   3.901   2.786   2.122 -1.1085  0.5808 -0.5423
 7963TIP3    H245305   3.984   2.876   2.032 -0.7069  1.9686  1.1583
 7964TIP3   OH245306   4.866   4.232  13.195 -0.3400  0.7021 -0.0974
 7964TIP3    H145307   4.953   4.216  13.158  0.1828 -0.9141  1.6563
 7964TIP3    H245308   4.882   4.288  13.270 -0.6744 -0.1849  0.6636
 7965TIP3   OH245309   3.533   0.068  14.879 -0.1055 -0.2138  0.1743
 7965TIP3    H145310   3.560   0.152  14.842 -0.3117 -1.1067 -2.1688
 7965TIP3    H245311   3.539   0.081  14.973 -0.6776  2.6205 -0.0688
 7966TIP3   OH245312   3.480   6.540   3.303 -0.5075 -0.7516  0.3085
 7966TIP3    H145313   3.491   6.499   3.217  0.7869  0.7065 -0.2562
 7966TIP3    H245314   3.511   6.474   3.365  0.0649 -1.2210 -0.4611
 7967TIP3   OH245315   1.552   0.185  11.547 -0.7465  0.1825 -0.0786
 7967TIP3    H145316   1.585   0.266  11.585  1.8593 -0.2235 -1.2440
 7967TIP3    H245317   1.535   0.206  11.455 -1.8735 -0.1417  0.0463
 7968TIP3   OH245318   5.341   3.284  14.883 -0.2133  0.2977 -0.3209
 7968TIP3    H145319   5.265   3.329  14.921  1.2948  2.2291  0.5672
 7968TIP3    H245320   5.357   3.210  14.942  0.9788  2.2127  1.8973
 7969TIP3   OH245321   4.146   5.104  15.083 -0.1974  0.2239  0.4595
 7969TIP3    H145322   4.204   5.170  15.045  1.7724 -1.6243  0.0438
 7969TIP3    H245323   4.204   5.047  15.133 -2.0598 -0.2811  2.1681
 7970TIP3   OH245324   5.309   6.543  12.988  0.1780 -0.1617  0.4230
 7970TIP3    H145325   5.276   6.570  13.074  1.9671  1.2306  0.7271
 7970TIP3    H245326   5.397   6.581  12.983 -0.0213  0.0934 -2.1873
 7971TIP3   OH245327   2.073   4.103  14.443  0.2822 -0.1101  0.3455
 7971TIP3    H145328   2.149   4.045  14.438  0.1118 -0.3374  0.3716
 7971TIP3    H245329   2.099   4.181  14.394  0.1575 -0.6152 -0.5652
 7972TIP3   OH245330   5.186   6.503  13.313 -0.0576 -0.3336  0.6151
 7972TIP3    H145331   5.163   6.588  13.352 -0.7408  0.3340 -1.1554
 7972TIP3    H245332   5.227   6.455  13.385  1.0473  1.7585  1.4954
 7973TIP3   OH245333   0.061   1.718  14.787 -0.3140  0.0452 -0.5189
 7973TIP3    H145334   0.034   1.764  14.867 -2.7431  0.4048 -1.4635
 7973TIP3    H245335   0.138   1.668  14.814 -0.1393  1.3237  1.6452
 7974TIP3   OH245336   1.982   0.044   2.102  0.5072 -0.6746  0.0091
 7974TIP3    H145337   2.009   0.098   2.028  1.2648  1.0842  1.4840
 7974TIP3    H245338   2.064   0.006   2.135  0.2657 -0.9379  0.3156
 7975TIP3   OH245339   2.602   2.465  12.860 -0.1368  0.3276  0.0527
 7975TIP3    H145340   2.658   2.454  12.784  0.2777  0.6601  0.3034
 7975TIP3    H245341   2.613   2.557  12.885  0.3578  0.0347  0.9861
 7976TIP3   OH245342   4.619   5.672   5.722  0.1531  0.1903  0.2031
 7976TIP3    H145343   4.536   5.686   5.678  0.7417  1.8254 -0.4799
 7976TIP3    H245344   4.654   5.760   5.735  1.3390 -0.4108  1.3449
 7977TIP3   OH245345   1.481   5.383  15.366 -0.5532 -0.4279  0.5310
 7977TIP3    H145346   1.556   5.366  15.310  0.0547 -0.4075  1.3246
 7977TIP3    H245347   1.484   5.478  15.381 -0.7364 -0.4282  0.5718
 7978TIP3   OH245348   1.615   2.381  12.413  0.5726 -0.8727 -0.5197
 7978TIP3    H145349   1.565   2.308  12.449 -1.4578  0.4976 -0.3861
 7978TIP3    H245350   1.551   2.430  12.362  1.2751  1.9544  1.1031
 7979TIP3   OH245351   1.404   0.784   5.827  0.9864  0.7376 -0.2283
 7979TIP3    H145352   1.435   0.694   5.838 -0.0033  0.3565 -0.4299
 7979TIP3    H245353   1.468   0.824   5.768  0.9849 -0.0869 -0.8114
 7980TIP3   OH245354   5.879   3.650   0.010  0.2764  0.2459 -0.6877
 7980TIP3    H145355   5.810   3.594  -0.027  0.3109 -0.2468 -0.0186
 7980TIP3    H245356   5.938   3.666  -0.064  0.6135 -1.1528 -0.7460
 7981TIP3   OH245357   0.703   5.202   2.130 -0.8990 -0.4196  0.0842
 7981TIP3    H145358   0.632   5.228   2.189  0.1581 -0.1107  1.2619
 7981TIP3    H245359   0.735   5.119   2.166 -0.0212 -0.0621  0.1470
 7982TIP3   OH245360   0.107   3.236  10.445  0.3905 -0.3668  0.3810
 7982TIP3    H145361   0.053   3.167  10.406  1.1883 -1.2439  0.8056
 7982TIP3    H245362   0.082   3.315  10.397 -0.9463 -0.8263  0.2620
 7983TIP3   OH245363   0.471   4.477  15.501 -0.4455 -0.3448  0.2783
 7983TIP3    H145364   0.381   4.479  15.466 -0.4757  0.4681  0.3786
 7983TIP3    H245365   0.461   4.502  15.593 -0.0806  0.0642  0.2071
 7984TIP3   OH245366   1.830   3.036  11.090 -0.0012  0.1510 -0.0778
 7984TIP3    H145367   1.807   3.091  11.165 -0.8337 -1.6216  1.0349
 7984TIP3    H245368   1.902   2.982  11.121 -0.7134 -0.9881 -0.3225
 7985TIP3   OH245369   3.340   3.498  10.939 -0.1115  0.3043 -0.4638
 7985TIP3    H145370   3.389   3.416  10.934 -4.3451 -2.7632  2.1020
 7985TIP3    H245371   3.394   3.555  10.995  0.7515 -2.7793  2.1295
 7986TIP3   OH245372   1.569   4.418   3.520  0.3361  0.3196  0.2912
 7986TIP3    H145373   1.658   4.403   3.552  0.9503 -0.8942 -1.8413
 7986TIP3    H245374   1.573   4.505   3.480  1.4436 -0.8693 -2.3978
 7987TIP3   OH245375   6.350   2.745  16.479 -0.2051 -0.2371  0.0320
 7987TIP3    H145376   6.380   2.834  16.498  1.2152 -0.3900 -1.3123
 7987TIP3    H245377   6.278   2.757  16.417 -0.3655 -0.0059  0.2612
 7988TIP3   OH245378   3.234   6.182  16.147  0.0590  0.1552  0.0980
 7988TIP3    H145379   3.171   6.195  16.218  1.3659  0.4993  1.2243
 7988TIP3    H245380   3.189   6.124  16.086 -2.4908  2.6412 -0.6042
 7989TIP3   OH245381   4.899   4.220   1.970  0.0594 -0.1899 -0.1979
 7989TIP3    H145382   4.986   4.259   1.977  0.2690 -0.7156  0.1602
 7989TIP3    H245383   4.908   4.133   2.010 -0.7876  0.0181  0.4876
 7990TIP3   OH245384   6.162   5.442  13.165  0.2246  0.3422  0.2108
 7990TIP3    H145385   6.225   5.397  13.221  0.5335 -0.8022 -1.0170
 7990TIP3    H245386   6.198   5.530  13.152  0.8357  0.1609  0.6782
 7991TIP3   OH245387   3.889   4.686  13.131  0.3669 -0.3039 -0.4371
 7991TIP3    H145388   3.916   4.624  13.199  1.2775 -0.4239 -0.8891
 7991TIP3    H245389   3.966   4.740  13.116  0.8003 -1.3818 -2.5642
 7992TIP3   OH245390   5.960   5.098   2.279 -0.5857  0.1530  0.0081
 7992TIP3    H145391   6.014   5.174   2.255 -0.9181  0.8417  1.3253
 7992TIP3    H245392   5.964   5.096   2.375  1.0244 -2.6836  0.0024
 7993TIP3   OH245393   6.474   6.119  14.833  0.8011  0.2383 -0.2080
 7993TIP3    H145394   6.566   6.103  14.855  0.6366 -1.4209 -0.5769
 7993TIP3    H245395   6.425   6.056  14.886  0.0934 -0.7001 -1.8854
 7994TIP3   OH245396   5.214   6.016  16.852  0.5023  0.3386  0.1085
 7994TIP3    H145397   5.259   5.949  16.800  0.0813  0.7212 -0.7647
 7994TIP3    H245398   5.150   6.054  16.792 -1.2294 -0.4047  1.4273
 7995TIP3   OH245399   4.195   4.747   2.252 -0.2380 -0.5017  0.4261
 7995TIP3    H145400   4.207   4.825   2.198  0.7821 -0.6607  0.3937
 7995TIP3    H245401   4.101   4.735   2.258 -0.3767 -0.0809 -0.7399
 7996TIP3   OH245402   3.467   1.892   2.594 -0.5300 -0.0471  0.4136
 7996TIP3    H145403   3.411   1.863   2.522  1.3074  0.8842 -1.5315
 7996TIP3    H245404   3.528   1.819   2.607 -0.1830  0.2037  0.2340
 7997TIP3   OH245405   2.383   2.414  15.749  0.0722  0.1368  0.6181
 7997TIP3    H145406   2.424   2.332  15.776 -0.3092 -0.5578 -0.8625
 7997TIP3    H245407   2.304   2.388  15.702 -0.1937  1.3595  0.3484
 7998TIP3   OH245408   1.825   4.613   2.970  0.1596  0.7048  0.9326
 7998TIP3    H145409   1.789   4.597   2.882 -0.6086 -2.3579  1.6721
 7998TIP3    H245410   1.904   4.559   2.974 -0.6037 -0.3667  2.5654
 7999TIP3   OH245411   2.389   4.933   5.068 -0.4875 -0.4218  0.4433
 7999TIP3    H145412   2.362   5.014   5.025 -0.4405 -0.6515 -0.0327
 7999TIP3    H245413   2.332   4.866   5.030 -0.5916 -0.5988  0.9040
 8000TIP3   OH245414   2.668   5.782  11.697 -0.5558 -0.2429 -0.3115
 8000TIP3    H145415   2.752   5.801  11.738 -1.4907 -0.3682  1.7755
 8000TIP3    H245416   2.632   5.868  11.675 -1.2441  0.0595  1.7598
 8001TIP3   OH245417   0.027   0.483  14.058  0.0595  0.8349 -0.1058
 8001TIP3    H145418   0.004   0.409  14.114 -0.7766 -0.2322 -1.7942
 8001TIP3    H245419   0.118   0.466  14.033  0.2306  0.9858  0.3912
 8002TIP3   OH245420   5.116   3.575   4.136  0.1957  1.3796 -0.1896
 8002TIP3    H145421   5.189   3.541   4.085  1.0817  2.4459  0.3377
 8002TIP3    H245422   5.151   3.651   4.182 -0.8582  1.0974  1.1608
 8003TIP3   OH245423   3.691   4.358  11.229 -0.5982  0.0059 -0.0394
 8003TIP3    H145424   3.650   4.272  11.215  0.8705 -1.3135  2.8086
 8003TIP3    H245425   3.735   4.349  11.313  0.4531  3.2961 -0.1237
 8004TIP3   OH245426   4.305   5.784   6.551 -0.2445 -0.2859 -0.3660
 8004TIP3    H145427   4.269   5.861   6.508 -0.1434 -0.9703 -1.7141
 8004TIP3    H245428   4.276   5.792   6.642  0.0442  1.5054 -0.3914
 8005TIP3   OH245429   0.536   0.967  16.592 -0.9276 -0.8428  0.4197
 8005TIP3    H145430   0.613   0.931  16.549 -0.7442  0.0778 -0.0642
 8005TIP3    H245431   0.473   0.895  16.595 -1.1883 -0.8020 -2.0014
 8006TIP3   OH245432   4.243   3.963   4.515  0.2863 -0.2041  0.0995
 8006TIP3    H145433   4.282   3.885   4.554 -0.0166 -1.2095 -1.5732
 8006TIP3    H245434   4.161   3.975   4.562  0.5137 -0.6565  0.6245
 8007TIP3   OH245435   0.095   1.171  13.525 -0.0519 -0.1409  0.5840
 8007TIP3    H145436   0.177   1.169  13.475  1.2676 -0.7758  2.6503
 8007TIP3    H245437   0.053   1.253  13.498  2.7977  1.8735  1.7405
 8008TIP3   OH245438   1.617   2.772   0.130  0.2796 -0.0907 -0.1621
 8008TIP3    H145439   1.659   2.838   0.184  0.5535 -1.2629  1.1217
 8008TIP3    H245440   1.639   2.796   0.040  0.1762  1.6656  0.2402
 8009TIP3   OH245441   1.287   4.867   1.095  0.4640 -0.2571 -0.6449
 8009TIP3    H145442   1.311   4.795   1.036  0.5856 -0.0230 -0.8820
 8009TIP3    H245443   1.291   4.945   1.040 -0.7728 -0.1999 -0.6754
 8010TIP3   OH245444   0.619   3.887   4.296  0.1350  0.2757 -0.2586
 8010TIP3    H145445   0.715   3.890   4.302  0.1948  0.8187 -1.2789
 8010TIP3    H245446   0.600   3.921   4.209 -1.0159  0.5246  0.0828
 8011TIP3   OH245447   2.426   0.536   5.446  0.4222  0.8039  0.2879
 8011TIP3    H145448   2.340   0.577   5.452  1.2764  2.8933 -0.7209
 8011TIP3    H245449   2.442   0.526   5.352  0.7209 -0.8849  0.4864
 8012TIP3   OH245450   1.859   1.708  13.911 -0.1356 -0.3364  0.1805
 8012TIP3    H145451   1.873   1.636  13.972 -0.3299  0.8298  1.6520
 8012TIP3    H245452   1.939   1.760  13.917  0.0014 -0.3993 -0.8738
 8013TIP3   OH245453   3.472   4.664   3.148  0.0504  0.5299  0.3965
 8013TIP3    H145454   3.402   4.602   3.129 -0.1447  1.0039 -0.4967
 8013TIP3    H245455   3.433   4.726   3.210  0.4079 -0.5051  1.7085
 8014TIP3   OH245456   2.894   4.997   1.714  0.1637  0.3745 -0.4019
 8014TIP3    H145457   2.899   4.904   1.693  0.6372  0.0868  0.9186
 8014TIP3    H245458   2.819   5.004   1.773  1.0455  0.5866  0.7135
 8015TIP3   OH245459   1.569   3.479   4.412 -0.1677  0.1831  0.3674
 8015TIP3    H145460   1.603   3.409   4.468  1.8889  2.7569  2.5535
 8015TIP3    H245461   1.572   3.442   4.324  1.9023 -2.1165  1.2821
 8016TIP3   OH245462   2.286   3.922   4.956  0.2089 -0.0796 -0.1105
 8016TIP3    H145463   2.288   3.865   5.033 -0.8538  0.0116 -0.0076
 8016TIP3    H245464   2.276   3.862   4.882 -0.3231 -0.0729 -0.0480
 8017TIP3   OH245465   2.509   1.098   5.726  0.5705  0.0701 -0.1097
 8017TIP3    H145466   2.419   1.082   5.755  0.2820 -1.2124 -1.5451
 8017TIP3    H245467   2.562   1.036   5.775  0.5104  0.0361 -0.0875
 8018TIP3   OH245468   2.850   5.428  13.459  0.4200  0.0526 -0.4032
 8018TIP3    H145469   2.920   5.389  13.406  0.9960  1.5416 -0.7808
 8018TIP3    H245470   2.797   5.353  13.486  2.3587 -1.1961  0.2232
 8019TIP3   OH245471   1.153   5.885   4.274  0.4566 -0.4099 -0.0407
 8019TIP3    H145472   1.161   5.790   4.267 -3.2064 -0.9908  1.3483
 8019TIP3    H245473   1.154   5.917   4.184 -0.9304 -2.1157 -0.7039
 8020TIP3   OH245474   2.614   4.602  16.334  0.2234 -0.0072  0.1155
 8020TIP3    H145475   2.709   4.597  16.346  0.2450  2.7011  1.7550
 8020TIP3    H245476   2.578   4.550  16.405  0.4511 -0.2684  0.0446
 8021TIP3   OH245477   2.116   4.470   0.608 -0.1377 -0.2274 -0.0096
 8021TIP3    H145478   2.140   4.562   0.593 -0.0263  0.1311  2.0754
 8021TIP3    H245479   2.199   4.424   0.615 -0.1942 -0.4981 -0.8967
 8022TIP3   OH245480   4.648   6.423  12.389 -0.5412  0.4776 -0.1503
 8022TIP3    H145481   4.563   6.411  12.432 -1.9603  1.9636 -2.3467
 8022TIP3    H245482   4.631   6.405  12.297  2.6044 -3.5533 -0.2011
 8023TIP3   OH245483   3.351   5.073   5.854 -0.0244  0.1912 -0.0913
 8023TIP3    H145484   3.350   5.109   5.943  3.3690 -2.4777  1.2681
 8023TIP3    H245485   3.294   4.997   5.858  1.4690 -0.9590  0.4424
 8024TIP3   OH245486   5.565   6.653  16.779 -0.2665 -0.1967 -0.0660
 8024TIP3    H145487   5.552   6.560  16.798  1.9427 -0.5174  0.1308
 8024TIP3    H245488   5.630   6.654  16.709  1.6159  1.1884  1.5820
 8025TIP3   OH245489   0.923   1.366  12.875 -0.3125 -0.1994  0.1708
 8025TIP3    H145490   0.863   1.441  12.871 -1.4717 -0.9250  2.4330
 8025TIP3    H245491   1.009   1.404  12.859 -0.7639  1.8336  2.0605
 8026TIP3   OH245492   2.877   5.312  16.554  0.2861  0.6807 -0.1286
 8026TIP3    H145493   2.815   5.259  16.503  0.4967  0.7204 -0.4287
 8026TIP3    H245494   2.961   5.300  16.510  0.4502  0.8009  0.1492
 8027TIP3   OH245495   5.805   4.781  14.256 -0.2159  0.1791 -0.2573
 8027TIP3    H145496   5.731   4.828  14.216 -1.8620 -1.8037  0.2649
 8027TIP3    H245497   5.872   4.778  14.188 -0.9357  1.3073 -1.0516
 8028TIP3   OH245498   2.609   3.109   3.099  0.4616  0.1205  0.2373
 8028TIP3    H145499   2.637   3.024   3.065 -0.1676  0.9533 -2.6201
 8028TIP3    H245500   2.539   3.137   3.040  1.2922  3.0422  0.4904
 8029TIP3   OH245501   2.248   3.352   5.426  0.4392 -0.0219 -0.2421
 8029TIP3    H145502   2.237   3.444   5.450  0.9310 -0.3239  1.2322
 8029TIP3    H245503   2.338   3.332   5.451  0.6875 -0.6278 -1.5514
 8030TIP3   OH245504   5.533   3.376   3.276  0.4827 -0.0012  0.1932
 8030TIP3    H145505   5.563   3.372   3.186  0.2678  0.7461  0.0804
 8030TIP3    H245506   5.573   3.456   3.311  2.1746 -1.2800  1.3596
 8031TIP3   OH245507   1.669   0.723  15.128  0.5204  0.0379  0.1371
 8031TIP3    H145508   1.655   0.818  15.124  1.3555  0.1467 -0.4576
 8031TIP3    H245509   1.581   0.687  15.141  0.1258  0.8711 -0.1243
 8032TIP3   OH245510   2.072   0.038  13.166 -0.4029 -0.1066 -0.0966
 8032TIP3    H145511   1.992   0.037  13.218 -0.7479  0.5238 -0.6013
 8032TIP3    H245512   2.048  -0.005  13.085 -0.0007 -0.6466  0.0698
 8033TIP3   OH245513   1.326   4.117  14.636  0.1271  0.3936 -0.2479
 8033TIP3    H145514   1.361   4.205  14.619  0.9064 -0.1777 -1.7600
 8033TIP3    H245515   1.400   4.068  14.671 -0.0976  0.1214 -0.1474
 8034TIP3   OH245516   3.825   4.756  14.705  0.0628 -0.8609  0.0262
 8034TIP3    H145517   3.777   4.759  14.623 -1.5161 -2.5915  0.8002
 8034TIP3    H245518   3.757   4.754  14.773  1.2874 -0.7211  1.3120
 8035TIP3   OH245519   3.820   5.122   0.826  0.0386  0.1733  0.0339
 8035TIP3    H145520   3.811   5.065   0.749 -0.8125  1.2910 -0.7193
 8035TIP3    H245521   3.914   5.122   0.844  0.3512  0.3842 -1.4117
 8036TIP3   OH245522   3.881   4.735   2.722  0.2550 -0.3570 -0.1327
 8036TIP3    H145523   3.971   4.705   2.711  1.1410  2.1559 -0.3688
 8036TIP3    H245524   3.882   4.785   2.803 -0.1144  2.2148 -1.5961
 8037TIP3   OH245525   4.895   1.187   4.889 -0.3744 -0.4944  0.2069
 8037TIP3    H145526   4.863   1.231   4.968  0.8671 -2.4164  1.8907
 8037TIP3    H245527   4.917   1.258   4.829 -0.4389  1.0784  1.9444
 8038TIP3   OH245528   0.816   0.398  11.406  0.4102  0.4087 -0.4759
 8038TIP3    H145529   0.736   0.346  11.407  1.6733 -1.7091 -1.2390
 8038TIP3    H245530   0.799   0.467  11.341 -1.4318  1.2128  0.7838
 8039TIP3   OH245531   1.858   5.410  14.138  0.0688  0.3340 -0.2234
 8039TIP3    H145532   1.869   5.505  14.142  0.8234  0.2466 -0.0437
 8039TIP3    H245533   1.943   5.375  14.164 -0.0442 -0.3895 -0.7956
 8040TIP3   OH245534   3.080   1.052  15.119 -0.0074 -0.0714 -0.1969
 8040TIP3    H145535   3.156   1.091  15.162  1.0124 -0.2602 -1.7307
 8040TIP3    H245536   3.093   1.071  15.026 -2.0213  0.1598 -0.4799
 8041TIP3   OH245537   0.834   5.566  11.909  0.1795 -0.3205  0.0626
 8041TIP3    H145538   0.779   5.627  11.957 -1.1951  1.3442 -3.3228
 8041TIP3    H245539   0.774   5.497  11.880  0.9255 -1.1787  0.5085
 8042TIP3   OH245540   2.171   4.219  13.609 -0.3889 -0.1966  0.3255
 8042TIP3    H145541   2.099   4.175  13.563 -0.2667  0.5657 -0.6258
 8042TIP3    H245542   2.143   4.223  13.700 -0.7704 -1.4895  0.2880
 8043TIP3   OH245543   1.218   3.310  16.418 -0.7681  0.0962 -0.0082
 8043TIP3    H145544   1.269   3.392  16.415  0.0029 -0.3677  0.0997
 8043TIP3    H245545   1.127   3.339  16.416 -0.5236  0.9985  0.8539
 8044TIP3   OH245546   5.390   0.627   1.952 -0.0337 -0.1278 -0.3032
 8044TIP3    H145547   5.311   0.605   1.902 -0.3708 -0.2481  0.2736
 8044TIP3    H245548   5.357   0.669   2.031  0.5730  1.9560 -1.0980
 8045TIP3   OH245549   4.939   2.412   2.594 -0.0717  0.1104 -0.0754
 8045TIP3    H145550   4.938   2.323   2.559  0.0997 -0.5114  1.4073
 8045TIP3    H245551   4.855   2.450   2.566 -1.3903 -1.4744  1.5233
 8046TIP3   OH245552   1.390   4.908   2.077 -0.2985  0.1039 -0.3974
 8046TIP3    H145553   1.391   4.820   2.040  0.2060  0.4341 -1.1977
 8046TIP3    H245554   1.474   4.946   2.050  0.0032  0.4291  0.9322
 8047TIP3   OH245555   4.577   5.957   1.163 -0.0581  0.2815  0.2960
 8047TIP3    H145556   4.672   5.971   1.159  0.1237  0.1483  2.6166
 8047TIP3    H245557   4.554   5.923   1.076  1.8131  1.3632 -0.6827
 8048TIP3   OH245558   4.390   0.009   2.587 -0.0395  0.0289 -0.3188
 8048TIP3    H145559   4.373   0.050   2.672 -2.4537 -0.5903 -0.4385
 8048TIP3    H245560   4.342   0.064   2.525  0.9504 -0.0609 -1.1843
 8049TIP3   OH245561   4.225   4.461   5.454  0.0403  0.0598  0.4594
 8049TIP3    H145562   4.237   4.530   5.518  1.7771 -0.3258  0.5856
 8049TIP3    H245563   4.143   4.483   5.409  0.1795  1.7644  1.0051
 8050TIP3   OH245564   4.460   4.869  12.142 -0.2799  0.5763  0.3841
 8050TIP3    H145565   4.436   4.926  12.069 -0.7808  0.9427  0.8319
 8050TIP3    H245566   4.485   4.929  12.213 -2.3385  0.3193  1.3976
 8051TIP3   OH245567   6.478   1.894  14.148 -0.7291 -0.6923 -0.0989
 8051TIP3    H145568   6.539   1.831  14.187 -0.6191 -0.2015  0.5280
 8051TIP3    H245569   6.436   1.845  14.077  0.7885 -0.8704 -0.9218
 8052TIP3   OH245570   3.526   0.818   2.025  0.7587 -0.2117  1.0163
 8052TIP3    H145571   3.482   0.841   1.943 -1.0284 -1.6227  1.5055
 8052TIP3    H245572   3.613   0.789   1.998  1.3143  2.1935 -0.0443
 8053TIP3   OH245573   3.643   6.353  16.754  0.2586 -0.3867  0.4097
 8053TIP3    H145574   3.635   6.330  16.662  1.1569  0.6710  0.0445
 8053TIP3    H245575   3.554   6.347  16.788 -0.3244  0.5437 -0.8624
 8054TIP3   OH245576   6.780   4.209  10.732  0.3294 -0.2409  0.4412
 8054TIP3    H145577   6.837   4.256  10.793  0.4164  0.1987  0.0315
 8054TIP3    H245578   6.834   4.139  10.697  0.4957 -0.0754  0.3617
 8055TIP3   OH245579   5.253   0.385   1.059  0.1377 -0.7301  0.1231
 8055TIP3    H145580   5.296   0.302   1.078 -1.1164 -1.4359  0.0406
 8055TIP3    H245581   5.172   0.360   1.014  0.6125  0.6422 -1.6170
 8056TIP3   OH245582   0.863   2.889  13.043 -0.0005 -0.3721  0.1258
 8056TIP3    H145583   0.838   2.800  13.020 -2.7647  0.5043 -0.7056
 8056TIP3    H245584   0.866   2.889  13.139  0.2031 -1.3799  0.1265
 8057TIP3   OH245585   2.124   4.082  12.838  0.0399 -0.0106  0.2690
 8057TIP3    H145586   2.206   4.124  12.814  0.4843 -1.9172 -1.9647
 8057TIP3    H245587   2.115   4.009  12.776 -3.0198 -0.2731  0.8315
 8058TIP3   OH245588   5.684   0.774  12.541  0.6008  0.6068  0.3831
 8058TIP3    H145589   5.730   0.786  12.625  0.0751 -1.5921  1.0385
 8058TIP3    H245590   5.595   0.803  12.559  0.8666  1.6953  0.0654
 8059TIP3   OH245591   1.952   4.537  16.380  0.3137  0.2181 -1.0539
 8059TIP3    H145592   1.863   4.510  16.403 -0.1568  0.6949 -2.2325
 8059TIP3    H245593   1.941   4.590  16.300  1.4629  1.8141 -0.2013
 8060TIP3   OH245594   0.827   1.978  13.418  0.0121  0.0132  0.1675
 8060TIP3    H145595   0.897   1.962  13.481 -0.5646 -1.7129  0.4035
 8060TIP3    H245596   0.750   2.000  13.472  0.4071  2.3413 -0.1003
 8061TIP3   OH245597   2.617   4.499  15.560  0.3296 -0.1890  0.5932
 8061TIP3    H145598   2.582   4.564  15.622 -0.7291 -0.5753  0.4274
 8061TIP3    H245599   2.618   4.544  15.476  2.4429  0.5726  0.9701
 8062TIP3   OH245600   5.024   6.166   4.162 -0.2133 -0.1698  0.0750
 8062TIP3    H145601   5.028   6.215   4.080  0.2133  0.7962  0.6589
 8062TIP3    H245602   4.930   6.154   4.178 -0.4452  2.3972  1.0273
 8063TIP3   OH245603   4.846   2.362  12.729 -0.0392  0.2527  0.1417
 8063TIP3    H145604   4.754   2.368  12.754 -0.2259  1.8761 -0.8220
 8063TIP3    H245605   4.846   2.318  12.644  0.0221  0.8021 -0.1441
 8064TIP3   OH245606   2.621   3.624  12.198 -0.5137 -0.4482  0.5363
 8064TIP3    H145607   2.655   3.636  12.109 -1.7838  0.3099  0.1181
 8064TIP3    H245608   2.627   3.530  12.213  0.2677 -0.5169 -0.1221
 8065TIP3   OH245609   0.166   2.828  13.787  0.8307  0.0643  0.4463
 8065TIP3    H145610   0.155   2.740  13.824  0.1060 -0.3685 -0.7387
 8065TIP3    H245611   0.105   2.883  13.837 -0.3349 -0.5655 -0.2345
 8066TIP3   OH245612   3.456   1.122  12.531  0.3344 -0.0926  0.2372
 8066TIP3    H145613   3.495   1.049  12.579  2.1595 -0.0648 -1.0967
 8066TIP3    H245614   3.431   1.085  12.447  1.8666  0.8842 -0.7085
 8067TIP3   OH245615   4.071   2.537  14.724  0.7524 -0.2459 -0.3888
 8067TIP3    H145616   4.040   2.492  14.803 -2.2155  0.8103 -0.8312
 8067TIP3    H245617   4.108   2.619  14.756 -1.8262  0.8940 -0.0563
 8068TIP3   OH245618   6.462   0.332   4.216 -0.1691  0.3685 -0.0314
 8068TIP3    H145619   6.540   0.345   4.163  1.7117 -0.1210  2.4220
 8068TIP3    H245620   6.485   0.259   4.274 -1.9629  1.0696  1.6587
 8069TIP3   OH245621   1.904   2.282  14.503 -0.0813 -0.1076 -0.3202
 8069TIP3    H145622   1.864   2.196  14.517  0.0862  0.0421  1.2656
 8069TIP3    H245623   1.881   2.332  14.581 -0.3541  1.3782 -1.3094
 8070TIP3   OH245624   5.447   2.841  13.255  0.2909  0.0823  0.2863
 8070TIP3    H145625   5.432   2.848  13.160  1.3778 -1.1620  0.0067
 8070TIP3    H245626   5.540   2.857  13.266  0.4273 -1.1182  0.9936
 8071TIP3   OH245627   4.469   4.790  13.529 -0.5870 -0.1758  0.3871
 8071TIP3    H145628   4.544   4.774  13.473 -0.0481 -0.7589  1.2532
 8071TIP3    H245629   4.393   4.769  13.475 -0.0936 -0.3253 -0.2512
 8072TIP3   OH245630   5.208   6.097  14.579 -0.1422  0.4819  0.1648
 8072TIP3    H145631   5.186   6.004  14.571  1.9261  0.0580 -1.6501
 8072TIP3    H245632   5.165   6.125  14.659  1.6058 -2.8075  2.5189
 8073TIP3   OH245633   3.795   3.317   4.878 -0.0385 -0.0258 -0.0664
 8073TIP3    H145634   3.725   3.262   4.842 -0.0721 -0.6978  1.0006
 8073TIP3    H245635   3.812   3.382   4.809 -2.1234  0.5287 -0.1204
 8074TIP3   OH245636   1.965   2.922   2.098  0.7852 -0.3568 -0.0510
 8074TIP3    H145637   1.981   3.013   2.121  0.6150 -0.0725 -1.0210
 8074TIP3    H245638   1.998   2.872   2.173  1.8882  0.4380  0.0109
 8075TIP3   OH245639   4.865   1.848  12.833 -0.0722  0.0812 -0.2284
 8075TIP3    H145640   4.839   1.835  12.742  0.3386 -0.7769 -0.2363
 8075TIP3    H245641   4.959   1.865  12.829 -0.0579  0.0771  0.0328
 8076TIP3   OH245642   2.961   0.704  13.429 -0.0551  1.0476  0.0897
 8076TIP3    H145643   2.966   0.637  13.497  1.7754 -0.3369 -1.3176
 8076TIP3    H245644   2.910   0.664  13.359 -0.0835  1.6390 -0.2351
 8077TIP3   OH245645   0.214   3.377  13.123  0.4093 -0.6352  0.1077
 8077TIP3    H145646   0.128   3.400  13.087  0.3617 -1.6431 -0.4587
 8077TIP3    H245647   0.251   3.461  13.150 -0.5041 -0.1128 -0.1960
 8078TIP3   OH245648   6.201   3.108  14.268  0.1004  0.0200 -0.5001
 8078TIP3    H145649   6.171   3.060  14.191 -0.6375  1.0526 -0.8716
 8078TIP3    H245650   6.159   3.194  14.262 -0.0946  0.0819  1.1285
 8079TIP3   OH245651   0.653   4.628   1.337  0.1420 -0.4077 -0.0945
 8079TIP3    H145652   0.681   4.686   1.267 -1.9081 -0.6218 -1.1708
 8079TIP3    H245653   0.639   4.543   1.295  0.5678 -1.0210  0.9355
 8080TIP3   OH245654   3.788   5.505  13.956  0.7392  0.3360  0.1471
 8080TIP3    H145655   3.715   5.562  13.929  0.4488  0.5705  1.3748
 8080TIP3    H245656   3.853   5.564  13.993  0.0782 -0.1580  2.2218
 8081TIP3   OH245657   3.850   2.597   0.496 -0.0603 -0.3318  0.0572
 8081TIP3    H145658   3.851   2.583   0.402 -0.8237  0.6456 -0.1212
 8081TIP3    H245659   3.881   2.515   0.534 -0.8452 -1.1412 -1.0032
 8082TIP3   OH245660   1.175   6.435  14.827  0.2688  0.1314 -0.0339
 8082TIP3    H145661   1.148   6.432  14.919 -0.9155  0.7758 -0.3382
 8082TIP3    H245662   1.194   6.344  14.804 -1.3198 -0.3086  0.3089
 8083TIP3   OH245663   3.623   2.682  14.881 -0.2203 -0.3607  0.4572
 8083TIP3    H145664   3.666   2.748  14.935 -2.1031 -0.2045  1.8746
 8083TIP3    H245665   3.573   2.629  14.943 -1.8615 -0.6660 -1.0517
 8084TIP3   OH245666   1.096   0.420   1.658 -0.3396  0.1289 -0.3261
 8084TIP3    H145667   1.089   0.515   1.647 -1.5783  0.0039 -0.6540
 8084TIP3    H245668   1.034   0.399   1.727 -1.9651 -0.7525 -1.9783
 8085TIP3   OH245669   2.759   2.585   2.966 -0.1889 -0.2993 -0.2536
 8085TIP3    H145670   2.756   2.604   2.873 -0.6169 -3.1006 -0.9075
 8085TIP3    H245671   2.851   2.566   2.984 -0.4519 -2.1483 -0.7084
 8086TIP3   OH245672   3.741   4.534   4.410 -0.2397  0.2659  0.2990
 8086TIP3    H145673   3.708   4.446   4.430 -0.9806  0.6207  0.7109
 8086TIP3    H245674   3.803   4.521   4.339  1.0939 -0.8294  1.5964
 8087TIP3   OH245675   6.166   5.894  14.788 -0.1768  0.0281 -0.0970
 8087TIP3    H145676   6.184   5.936  14.872  2.1775 -1.1736  0.0830
 8087TIP3    H245677   6.187   5.802  14.803 -2.3029 -0.7291 -1.3101
 8088TIP3   OH245678   5.774   5.908   6.057  0.0435 -0.0287  1.3287
 8088TIP3    H145679   5.692   5.862   6.042 -0.1633  0.9528 -1.1155
 8088TIP3    H245680   5.839   5.839   6.070 -0.8434 -0.8724  1.3450
 8089TIP3   OH245681   1.103   1.762  16.684  0.4619 -0.0925  0.1137
 8089TIP3    H145682   1.186   1.727  16.650  0.8548 -0.3922  1.3387
 8089TIP3    H245683   1.107   1.747  16.779 -2.2462 -2.8595 -0.0233
 8090TIP3   OH245684   0.797   3.042   3.998  0.3095 -0.5233  0.1981
 8090TIP3    H145685   0.858   3.087   3.939  1.8947 -0.0001  2.1558
 8090TIP3    H245686   0.730   3.108   4.017  0.3273 -0.3772 -0.2232
 8091TIP3   OH245687   4.727   2.986  12.641  0.2708 -0.3314 -0.6905
 8091TIP3    H145688   4.806   2.967  12.590 -0.6593 -1.1538 -1.8919
 8091TIP3    H245689   4.679   3.050  12.588  1.2519  2.0873  1.2092
 8092TIP3   OH245690   6.601   1.786  15.753  0.4897 -0.3194 -0.1525
 8092TIP3    H145691   6.580   1.812  15.663 -0.6587 -0.3055  0.1014
 8092TIP3    H245692   6.567   1.697  15.760 -1.6111  0.5232  0.9705
 8093TIP3   OH245693   1.223   5.561   2.813  0.5313  0.0159 -0.2238
 8093TIP3    H145694   1.215   5.598   2.725 -2.6029 -0.8049 -0.4125
 8093TIP3    H245695   1.163   5.613   2.867 -0.9294 -2.1121  0.3726
 8094TIP3   OH245696   5.047   6.102  16.033  0.0742  0.3575  0.3603
 8094TIP3    H145697   5.136   6.086  16.063  0.2231  1.5647  0.5851
 8094TIP3    H245698   5.037   6.044  15.957  0.3793 -1.2113  1.4592
 8095TIP3   OH245699   4.875   6.221  13.662  0.0319 -0.4350 -0.6059
 8095TIP3    H145700   4.798   6.164  13.665 -0.8590  0.7571  0.0920
 8095TIP3    H245701   4.848   6.301  13.708  0.8075  1.0820 -2.6357
 8096TIP3   OH245702   6.381   1.328   3.941  0.1597  0.2973  0.0982
 8096TIP3    H145703   6.352   1.264   4.006  2.0535 -0.1810  0.5513
 8096TIP3    H245704   6.399   1.407   3.992  3.5906 -0.6581  0.6588
 8097TIP3   OH245705   6.333   0.711  13.158 -0.1939 -0.7943 -0.5724
 8097TIP3    H145706   6.314   0.777  13.224 -0.4952 -0.0648 -1.3765
 8097TIP3    H245707   6.287   0.632  13.189 -1.0513 -0.2221 -0.3507
 8098TIP3   OH245708   3.593   5.924  12.393  0.6541  0.5250  0.6548
 8098TIP3    H145709   3.567   5.893  12.306  0.2607  0.0493  0.9317
 8098TIP3    H245710   3.636   6.008  12.377 -1.4618  1.5887  0.1766
 8099TIP3   OH245711   4.128   0.900  16.029 -0.0546 -0.4434  0.2247
 8099TIP3    H145712   4.187   0.835  15.991 -0.7042 -0.8752 -0.0703
 8099TIP3    H245713   4.088   0.944  15.954  0.7455  0.6460  0.4207
 8100TIP3   OH245714   2.594   3.995  10.197  0.8475  0.2380 -0.9204
 8100TIP3    H145715   2.502   3.981  10.175  0.9104 -0.3081 -0.8418
 8100TIP3    H245716   2.642   3.948  10.130  1.0498 -0.6476 -0.1810
 8101TIP3   OH245717   5.609   2.669  15.287  0.0358 -0.6509 -0.2258
 8101TIP3    H145718   5.613   2.701  15.377  0.2181 -0.6947 -0.2161
 8101TIP3    H245719   5.699   2.678  15.255 -0.0689 -0.4599 -0.4634
 8102TIP3   OH245720   2.212   1.081  11.835 -0.1145  0.0686  0.4849
 8102TIP3    H145721   2.230   1.015  11.902  0.3666  0.0787  0.3758
 8102TIP3    H245722   2.295   1.129  11.827 -0.4329  0.6285  0.5051
 8103TIP3   OH245723   0.557   5.126  12.971 -0.2878 -0.1330  0.5897
 8103TIP3    H145724   0.571   5.144  12.878  2.3769 -1.4539  0.6465
 8103TIP3    H245725   0.461   5.125  12.981 -0.6491  0.1937 -2.0913
 8104TIP3   OH245726   0.631   2.928  11.656 -0.4051 -0.8336 -0.2224
 8104TIP3    H145727   0.653   2.863  11.723  0.3037 -2.1205 -1.6586
 8104TIP3    H245728   0.708   2.985  11.652  0.0372 -1.4601 -0.7484
 8105TIP3   OH245729   0.138   3.943   4.542 -1.2608 -0.0426  0.2458
 8105TIP3    H145730   0.157   3.850   4.553 -0.4797 -0.0988 -1.3321
 8105TIP3    H245731   0.085   3.966   4.619 -0.5829 -1.5243  1.2033
 8106TIP3   OH245732   3.215   1.127  14.105 -0.1289 -0.6322  0.5210
 8106TIP3    H145733   3.186   1.037  14.090  0.3710 -0.9398  1.3598
 8106TIP3    H245734   3.283   1.142  14.039 -2.1189  0.1081 -1.4982
 8107TIP3   OH245735   1.194   5.357   4.945  0.4751  0.3983 -0.5749
 8107TIP3    H145736   1.269   5.372   5.003  2.2266 -1.0584 -2.3113
 8107TIP3    H245737   1.145   5.287   4.987  2.1098 -1.1368 -1.0922
 8108TIP3   OH245738   6.480   6.026   0.944 -0.0327  0.1326  0.3115
 8108TIP3    H145739   6.538   6.102   0.936 -0.8889  0.7809  0.1016
 8108TIP3    H245740   6.539   5.952   0.960  0.8785  0.6958 -0.3628
 8109TIP3   OH245741   2.695   4.683  12.650  0.0703  0.0681  0.1134
 8109TIP3    H145742   2.674   4.764  12.696 -0.2776 -0.9792  1.8581
 8109TIP3    H245743   2.768   4.707  12.592  1.3018  1.1787  2.0278
 8110TIP3   OH245744   6.014   2.135   2.658  0.1859 -0.0476 -0.4354
 8110TIP3    H145745   5.956   2.195   2.611 -1.6945 -0.8551  0.7457
 8110TIP3    H245746   6.096   2.183   2.666 -0.9274  1.9732 -0.4131
 8111TIP3   OH245747   3.913   0.089  16.714 -0.6810  0.3104  0.2411
 8111TIP3    H145748   3.930   0.125  16.800  0.3568 -1.8288  0.9932
 8111TIP3    H245749   3.983   0.123  16.659 -0.0167 -0.1305  0.8077
 8112TIP3   OH245750   1.896   4.967  11.533  0.2684  0.4407 -0.0700
 8112TIP3    H145751   1.920   4.887  11.580  1.1965  0.8320  0.1452
 8112TIP3    H245752   1.842   5.017  11.595  0.5170  0.4285  0.1565
 8113TIP3   OH245753   3.356   6.756  12.349 -0.2573 -0.2835  0.3019
 8113TIP3    H145754   3.360   6.789  12.259 -1.1761 -0.0640  0.3291
 8113TIP3    H245755   3.433   6.700  12.358  0.0319 -0.0246 -0.5088
 8114TIP3   OH245756   1.132   4.673   1.406  0.2416 -0.3515 -0.1363
 8114TIP3    H145757   1.171   4.656   1.320 -0.1481 -0.2117 -0.3376
 8114TIP3    H245758   1.045   4.633   1.401 -1.2944  2.8325 -1.1030
 8115TIP3   OH245759   2.384   5.076   1.657 -0.3028  0.2149 -0.3792
 8115TIP3    H145760   2.389   5.070   1.752  0.8826  0.1892 -0.4192
 8115TIP3    H245761   2.375   5.169   1.639 -0.2639  0.2448 -0.2452
 8116TIP3   OH245762   4.520   4.298  14.683 -0.0671 -0.6459  0.5099
 8116TIP3    H145763   4.571   4.367  14.726  1.9477 -2.1628  0.7276
 8116TIP3    H245764   4.462   4.266  14.751  0.7442 -0.7943  1.1526
 8117TIP3   OH245765   2.570   5.368   3.658  0.7166 -0.3366 -0.0758
 8117TIP3    H145766   2.538   5.391   3.571  1.1810 -0.3946 -0.2656
 8117TIP3    H245767   2.657   5.331   3.642  0.6881 -0.6056  0.3854
 8118TIP3   OH245768   0.479   0.775  11.890 -0.4128  0.5474  0.1991
 8118TIP3    H145769   0.498   0.692  11.933 -0.4560 -0.0473 -0.9096
 8118TIP3    H245770   0.383   0.781  11.891 -0.4184  0.4730  0.0641
 8119TIP3   OH245771   6.103   2.915   5.547 -0.7181 -0.0599  0.2415
 8119TIP3    H145772   6.101   2.841   5.486  0.1967  0.3203 -0.2905
 8119TIP3    H245773   6.162   2.978   5.504  0.2838  0.0494  1.7164
 8120TIP3   OH245774   3.565   0.338   5.781 -0.6220  0.3650  0.0704
 8120TIP3    H145775   3.589   0.424   5.745 -1.0384  0.4944  0.0971
 8120TIP3    H245776   3.470   0.342   5.792 -0.7634 -0.4251 -0.7686
 8121TIP3   OH245777   2.545   2.710   1.221  0.1397 -0.0293  0.1831
 8121TIP3    H145778   2.576   2.634   1.171 -1.0573 -2.5129  2.9158
 8121TIP3    H245779   2.621   2.737   1.273 -0.1442 -1.3285  1.3534
 8122TIP3   OH245780   0.534   0.928  15.134 -0.3054  0.2294  0.3070
 8122TIP3    H145781   0.442   0.921  15.106 -0.6350 -0.5378  1.5369
 8122TIP3    H245782   0.578   0.858  15.087 -0.1807  1.0209 -0.8200
 8123TIP3   OH245783   3.010   4.062  15.927  0.1856  0.2196  0.3669
 8123TIP3    H145784   3.032   3.970  15.908 -1.5845  0.2718 -2.4715
 8123TIP3    H245785   3.095   4.107  15.927  0.9805 -1.2134  0.5832
 8124TIP3   OH245786   0.917   0.838   0.137  0.3633  0.3001  0.2873
 8124TIP3    H145787   0.967   0.782   0.078 -1.2999 -0.6645 -0.2745
 8124TIP3    H245788   0.880   0.905   0.080  0.9547  0.9863  0.6922
 8125TIP3   OH245789   5.820   6.592   3.156 -0.3909  0.2540 -0.6303
 8125TIP3    H145790   5.801   6.647   3.232  0.4972  1.5519 -1.3057
 8125TIP3    H245791   5.758   6.621   3.089 -0.1593  0.1758 -0.8794
 8126TIP3   OH245792   4.277   4.030   5.053  0.0938  0.0774  0.1003
 8126TIP3    H145793   4.233   3.983   5.124  0.2242 -1.3575 -0.7247
 8126TIP3    H245794   4.213   4.094   5.023 -0.3605 -0.0461  0.7864
 8127TIP3   OH245795   2.498   2.305  10.806 -0.2101  0.6690  0.2997
 8127TIP3    H145796   2.569   2.361  10.776  1.4143 -1.6047 -0.4127
 8127TIP3    H245797   2.425   2.325  10.749  0.4355  1.7904 -0.1579
 8128TIP3   OH245798   1.556   5.927  15.468  0.3940  0.7700  0.0668
 8128TIP3    H145799   1.648   5.904  15.480 -0.1370 -0.2201  2.8310
 8128TIP3    H245800   1.551   6.020  15.492  0.5747  0.6448  0.6018
 8129TIP3   OH245801   5.815   2.705  16.240  0.4260 -0.4999  0.2057
 8129TIP3    H145802   5.798   2.740  16.153  0.3488  2.4009  1.2678
 8129TIP3    H245803   5.728   2.686  16.276  0.2535  0.8194  0.5448
 8130TIP3   OH245804   4.182   1.988   4.865 -0.3138 -0.3998  0.5162
 8130TIP3    H145805   4.237   2.045   4.811 -0.8431 -1.4228 -1.1734
 8130TIP3    H245806   4.130   2.048   4.918  0.0839  0.6516 -0.2549
 8131TIP3   OH245807   5.950   2.150  11.277 -0.1958  0.4137 -0.1286
 8131TIP3    H145808   5.865   2.157  11.233 -0.8147 -0.4275  0.8762
 8131TIP3    H245809   5.930   2.164  11.370  0.9933  1.5833 -0.0129
 8132TIP3   OH245810   3.144   4.221   2.975  0.1654  0.0025  0.4423
 8132TIP3    H145811   3.102   4.139   3.002 -1.6877  1.2376  1.4805
 8132TIP3    H245812   3.222   4.226   3.030  0.4297 -1.1405  0.2114
 8133TIP3   OH245813   1.316   4.723   4.872  0.3612  0.1916 -0.3486
 8133TIP3    H145814   1.349   4.637   4.847 -0.9811  0.0750 -1.9192
 8133TIP3    H245815   1.378   4.785   4.833  1.1033 -0.0581  0.4323
 8134TIP3   OH245816   0.038   0.467  12.215 -0.3362  0.2719 -0.1776
 8134TIP3    H145817   0.117   0.423  12.245  0.3602  1.3979 -0.2989
 8134TIP3    H245818   0.011   0.520  12.290 -1.8651 -1.2354  0.4032
 8135TIP3   OH245819   3.799   2.335  15.557  0.1786 -0.2875  0.4874
 8135TIP3    H145820   3.823   2.243  15.548  1.5498 -0.2896  3.0807
 8135TIP3    H245821   3.703   2.334  15.563 -0.0892 -1.1273 -2.5821
 8136TIP3   OH245822   5.516   6.614   0.519  0.1828 -0.1593 -0.7886
 8136TIP3    H145823   5.552   6.642   0.435 -2.2422 -0.2566 -1.9601
 8136TIP3    H245824   5.426   6.647   0.518 -0.2158 -1.0389  1.3584
 8137TIP3   OH245825   3.695   2.976  12.763 -0.0887 -0.5623 -0.7324
 8137TIP3    H145826   3.612   2.949  12.804 -0.0624  2.3352  1.6219
 8137TIP3    H245827   3.759   2.914  12.796 -0.6296 -0.1575  1.2376
 8138TIP3   OH245828   3.715   4.507  13.964  0.6510  0.2846  0.1305
 8138TIP3    H145829   3.792   4.452  13.976  1.1937  1.1608  0.7798
 8138TIP3    H245830   3.740   4.591  14.002 -0.9264  0.3277  1.1300
 8139TIP3   OH245831   6.221   5.725  13.338  0.7511 -0.2826 -0.0635
 8139TIP3    H145832   6.159   5.752  13.270  0.0779  0.4657  0.8215
 8139TIP3    H245833   6.265   5.805  13.364  1.4364 -0.6617 -0.0269
 8140TIP3   OH245834   3.881   3.624   4.148 -0.3422  0.1481  0.2169
 8140TIP3    H145835   3.842   3.625   4.235  0.3885  2.7235  0.5761
 8140TIP3    H245836   3.947   3.554   4.152 -2.5134 -2.0374  0.6055
 8141TIP3   OH245837   5.773   4.394  15.246  0.9964  0.5783 -0.1909
 8141TIP3    H145838   5.763   4.452  15.170  1.6231 -0.6835 -1.2713
 8141TIP3    H245839   5.695   4.410  15.299  0.4037  1.2815 -1.2402
 8142TIP3   OH245840   3.137   5.772   5.005 -0.5428 -0.0369 -0.0046
 8142TIP3    H145841   3.122   5.853   5.053 -0.2014 -1.3065  2.4377
 8142TIP3    H245842   3.054   5.725   5.011  0.0395 -0.9924  1.0491
 8143TIP3   OH245843   6.582   5.860  15.508  0.4410 -0.3535 -0.1151
 8143TIP3    H145844   6.505   5.820  15.548  0.2455 -1.0209 -1.1214
 8143TIP3    H245845   6.596   5.941  15.558 -0.6539 -0.4285  0.3385
 8144TIP3   OH245846   4.738   3.281  12.476 -0.3800  0.0420 -0.4674
 8144TIP3    H145847   4.703   3.363  12.440  1.5901  0.9642 -0.4414
 8144TIP3    H245848   4.687   3.212  12.434 -0.5070  1.2073 -2.3677
 8145TIP3   OH245849   2.090   3.999   0.089 -0.0447  0.8527 -0.1485
 8145TIP3    H145850   2.117   4.008   0.180 -1.1143  3.1268  0.0288
 8145TIP3    H245851   1.997   3.975   0.093 -0.1115  1.0090 -0.6263
 8146TIP3   OH245852   0.768   3.923   1.547  0.1543 -0.8268  0.2250
 8146TIP3    H145853   0.718   3.977   1.609  0.6923 -0.6120  0.4823
 8146TIP3    H245854   0.784   3.980   1.472  0.2303 -0.8121  0.2520
 8147TIP3   OH245855   3.673   6.611   2.144  0.2798  0.3591 -0.0566
 8147TIP3    H145856   3.709   6.548   2.082 -1.3776 -1.2290  0.4985
 8147TIP3    H245857   3.592   6.571   2.174 -1.8612  3.6023 -1.0311
 8148TIP3   OH245858   1.279   0.401  14.099  0.4042  0.6515  0.2886
 8148TIP3    H145859   1.216   0.464  14.134  2.0940  2.7993 -0.3427
 8148TIP3    H245860   1.230   0.354  14.031 -0.4553  2.5506 -0.4791
 8149TIP3   OH245861   4.716   2.054  11.936  0.6856 -0.4473  0.4339
 8149TIP3    H145862   4.730   2.142  11.903 -0.2479 -1.1564 -2.1017
 8149TIP3    H245863   4.798   2.008  11.920  0.4857 -0.5823 -0.2243
 8150TIP3   OH245864   4.669   1.443   4.900  0.3755 -0.3810  0.0030
 8150TIP3    H145865   4.621   1.384   4.841  1.1700 -0.1759 -0.8864
 8150TIP3    H245866   4.604   1.508   4.928  0.3293  0.4918 -1.9759
 8151TIP3   OH245867   1.758   0.944   3.245  0.4676  0.2836  0.2148
 8151TIP3    H145868   1.677   0.915   3.287  0.7996  0.6511  1.1293
 8151TIP3    H245869   1.820   0.872   3.260 -0.1769 -0.8578 -2.1175
 8152TIP3   OH245870   3.558   6.128  13.268 -0.4496 -0.1144  0.6034
 8152TIP3    H145871   3.511   6.106  13.348 -0.6006 -1.1518  0.2445
 8152TIP3    H245872   3.632   6.067  13.265 -0.3862 -0.0235  0.0111
 8153TIP3   OH245873   4.941   0.981  11.409  0.1762 -0.1847 -0.5286
 8153TIP3    H145874   4.879   1.019  11.471  0.0181 -0.1198 -0.7278
 8153TIP3    H245875   4.927   1.029  11.328  1.3668  0.7255 -0.2305
 8154TIP3   OH245876   0.180   3.654   2.599  0.0913  0.4308 -0.2290
 8154TIP3    H145877   0.216   3.705   2.526  0.8084  0.6295  0.2517
 8154TIP3    H245878   0.113   3.599   2.559  0.9662  0.0118 -1.1651
 8155TIP3   OH245879   1.588   6.445   0.397 -0.0046 -0.1498  0.2768
 8155TIP3    H145880   1.512   6.391   0.374 -0.2090 -0.1598  0.9364
 8155TIP3    H245881   1.554   6.535   0.397  0.1147 -0.1064  0.0417
 8156TIP3   OH245882   2.481   3.651  14.238  0.6046 -0.5715 -0.4091
 8156TIP3    H145883   2.477   3.557  14.219 -0.0728 -0.5595 -0.3566
 8156TIP3    H245884   2.466   3.656  14.332  1.1887 -0.4405 -0.3169
 8157TIP3   OH245885   6.627   1.132   0.993 -0.1174  0.5120  0.1991
 8157TIP3    H145886   6.709   1.138   0.944  0.1444 -0.0080  0.5664
 8157TIP3    H245887   6.570   1.198   0.952  1.0772  2.1911  1.1219
 8158TIP3   OH245888   5.755   2.127  14.975  0.2322 -0.0186  0.2278
 8158TIP3    H145889   5.821   2.196  14.979  0.2262 -0.0043  0.0677
 8158TIP3    H245890   5.688   2.154  15.038 -0.4334  0.8095 -0.7969
 8159TIP3   OH245891   5.870   4.277  17.105 -0.0408 -0.1897  0.0494
 8159TIP3    H145892   5.915   4.345  17.155  1.2842 -0.0942 -1.2041
 8159TIP3    H245893   5.796   4.322  17.064 -0.4866 -0.0285  1.0056
 8160TIP3   OH245894   0.357   3.676  16.002  0.3057  0.6384  0.1586
 8160TIP3    H145895   0.345   3.594  16.050 -2.0736 -0.4806 -2.0861
 8160TIP3    H245896   0.451   3.682  15.987  0.5349 -1.7564  0.2999
 8161TIP3   OH245897   6.380   0.933  11.963  0.0344 -0.6541  0.0482
 8161TIP3    H145898   6.415   0.949  12.050  2.2849 -0.5144 -0.8077
 8161TIP3    H245899   6.376   0.837  11.956 -1.6093 -0.6608  0.8115
 8162TIP3   OH245900   4.178   3.515  16.401  0.1407  0.1596  0.1418
 8162TIP3    H145901   4.228   3.544  16.477  0.2978 -1.6812  0.7882
 8162TIP3    H245902   4.115   3.585  16.385  0.0904  0.5810  1.9870
 8163TIP3   OH245903   5.764   3.747  13.620 -0.2298  0.2066 -0.0913
 8163TIP3    H145904   5.835   3.684  13.631 -0.7001 -0.1724  0.8963
 8163TIP3    H245905   5.711   3.738  13.699 -0.5376  1.5565 -0.1112
 8164TIP3   OH245906   4.150   6.356   4.554  0.0195  0.1481 -0.8884
 8164TIP3    H145907   4.223   6.312   4.597 -0.3046 -0.4160 -0.8969
 8164TIP3    H245908   4.161   6.449   4.576  0.9329  0.1254 -1.1896
 8165TIP3   OH245909   2.493   1.450  12.900  0.0531  0.0893 -0.3276
 8165TIP3    H145910   2.564   1.388  12.890  1.4409  1.3514  1.2143
 8165TIP3    H245911   2.414   1.396  12.909  0.9180 -1.3479 -1.1336
 8166TIP3   OH245912   0.904   5.345  10.795  0.2344 -0.9422  0.2861
 8166TIP3    H145913   0.815   5.358  10.762 -0.1910 -0.0931  1.6533
 8166TIP3    H245914   0.959   5.397  10.736 -0.1826 -1.3405 -0.4698
 8167TIP3   OH245915   0.768   4.468  13.268 -0.2765  0.2335 -0.3454
 8167TIP3    H145916   0.863   4.479  13.275 -0.4533  1.3191  0.6144
 8167TIP3    H245917   0.741   4.527  13.198 -0.3818  0.8417  0.1990
 8168TIP3   OH245918   4.343   6.337  11.667 -0.2280  0.1511  0.0157
 8168TIP3    H145919   4.398   6.315  11.742  1.2827 -0.1056 -1.1080
 8168TIP3    H245920   4.355   6.263  11.607  0.0768  1.1777 -1.2403
 8169TIP3   OH245921   1.593   1.556  17.010 -0.0987  0.3761 -0.0980
 8169TIP3    H145922   1.659   1.572  17.077 -0.6643 -4.4808  2.0576
 8169TIP3    H245923   1.510   1.554  17.058 -1.2155  1.5361 -1.8731
 8170TIP3   OH245924   4.841   0.110   1.008 -0.8007 -0.3780 -0.8288
 8170TIP3    H145925   4.754   0.135   0.978 -0.6394 -1.2333 -2.0966
 8170TIP3    H245926   4.834   0.017   1.029 -0.0567 -0.6182 -1.5759
 8171TIP3   OH245927   1.492   6.710  13.583  0.0978  0.5950 -0.3328
 8171TIP3    H145928   1.549   6.639  13.553  0.7662  1.8213 -2.1422
 8171TIP3    H245929   1.481   6.694  13.677 -0.6236 -2.4508 -0.8357
 8172TIP3   OH245930   3.298   6.662  12.082 -0.0553  0.2206 -0.2799
 8172TIP3    H145931   3.370   6.601  12.065 -0.0562  0.2486 -0.3839
 8172TIP3    H245932   3.228   6.634  12.024 -0.6187 -0.6382  0.7858
 8173TIP3   OH245933   1.846   2.632   0.388 -0.0365 -0.8542 -0.1596
 8173TIP3    H145934   1.815   2.722   0.373 -0.4199 -0.6896  1.3821
 8173TIP3    H245935   1.922   2.643   0.446 -1.5153 -1.5734  2.0599
 8174TIP3   OH245936   0.452   6.703  11.396 -0.1163  0.3733 -0.1389
 8174TIP3    H145937   0.422   6.613  11.408  0.8099 -0.0774 -1.0607
 8174TIP3    H245938   0.374   6.750  11.366 -0.2277 -0.4802 -1.2225
 8175TIP3   OH245939   0.330   4.363   1.457  0.1976  0.2915  0.1494
 8175TIP3    H145940   0.386   4.402   1.524  0.2047  0.3244  0.1247
 8175TIP3    H245941   0.298   4.282   1.496 -1.7883  1.4940  1.1844
 8176TIP3   OH245942   5.296   1.702  12.508 -0.1861 -0.1755 -0.0802
 8176TIP3    H145943   5.267   1.630  12.563 -2.3034  2.6569  2.8721
 8176TIP3    H245944   5.226   1.714  12.444 -0.1285 -0.3524 -0.1756
 8177TIP3   OH245945   1.955   2.113  13.909  0.3391  0.2189  0.2604
 8177TIP3    H145946   2.017   2.184  13.927  0.5496 -0.0608  0.6493
 8177TIP3    H245947   1.946   2.113  13.814 -1.3964  2.2375  0.3559
 8178TIP3   OH245948   3.899   2.075  11.605  0.0659 -0.3676 -0.0673
 8178TIP3    H145949   3.858   2.044  11.686 -0.0267  0.2802  0.1419
 8178TIP3    H245950   3.970   2.014  11.589  1.4469  0.6756  1.6684
 8179TIP3   OH245951   5.774   1.931   4.479  0.3831 -0.0316 -0.3834
 8179TIP3    H145952   5.701   1.914   4.418  0.3998  0.1250 -0.4471
 8179TIP3    H245953   5.758   2.019   4.512 -0.5733 -0.7359  1.1618
 8180TIP3   OH245954   3.429   6.406  12.209  0.1863  0.2147  0.0739
 8180TIP3    H145955   3.466   6.406  12.121 -0.5339  2.6434 -0.3106
 8180TIP3    H245956   3.494   6.452  12.263 -0.0123  0.0087  0.4996
 8181TIP3   OH245957   3.400   1.438  11.971  0.1203 -0.4155 -0.0108
 8181TIP3    H145958   3.350   1.401  11.898 -1.2160  0.1639  0.5768
 8181TIP3    H245959   3.488   1.400  11.962 -0.6110 -2.0371 -0.6523
 8182TIP3   OH245960   2.595   6.321  10.554  0.3362 -0.0421 -0.2016
 8182TIP3    H145961   2.632   6.406  10.529  1.1001 -0.3115 -0.0138
 8182TIP3    H245962   2.652   6.257  10.512 -0.8115 -0.4662 -1.1536
 8183TIP3   OH245963   2.566   6.173  13.722  0.2148 -0.1033  0.4999
 8183TIP3    H145964   2.633   6.230  13.683  0.2192 -0.6793 -0.3571
 8183TIP3    H245965   2.565   6.096  13.665 -3.0099  0.9532 -1.1242
 8184TIP3   OH245966   0.700   0.833  13.178  0.2257 -0.7425  0.0622
 8184TIP3    H145967   0.748   0.866  13.253 -0.4781  0.9457 -0.1766
 8184TIP3    H245968   0.652   0.909  13.145  0.0276 -1.5848 -1.7170
 8185TIP3   OH245969   5.240   3.515  12.365  0.1337  0.0522  0.1077
 8185TIP3    H145970   5.145   3.523  12.365  0.0587 -0.7201  0.3144
 8185TIP3    H245971   5.271   3.592  12.412 -0.5630 -1.2323  2.8770
 8186TIP3   OH245972   1.826   5.724  14.268 -0.4016 -0.4801  0.2497
 8186TIP3    H145973   1.786   5.745  14.352 -0.6284  0.6012 -0.0996
 8186TIP3    H245974   1.917   5.705  14.289 -0.5963 -0.8193  0.8084
 8187TIP3   OH245975   2.055   6.604  12.218  0.3362  0.1969 -0.6777
 8187TIP3    H145976   2.053   6.676  12.156 -1.2361  1.3488  0.6261
 8187TIP3    H245977   2.063   6.645  12.304 -0.6592 -1.1504  0.1097
 8188TIP3   OH245978   1.329   0.244   1.515  0.0707  0.0211 -0.1830
 8188TIP3    H145979   1.273   0.180   1.470 -0.4054 -0.1284  0.6096
 8188TIP3    H245980   1.373   0.194   1.583 -0.3827  0.5510  0.5095
 8189TIP3   OH245981   1.741   4.040  14.250  0.1425  0.6400  0.2377
 8189TIP3    H145982   1.773   3.950  14.261  0.2820  0.5653 -0.6372
 8189TIP3    H245983   1.705   4.064  14.335 -1.6549 -0.9294 -0.0073
 8190TIP3   OH245984   6.169   0.752  14.564  0.4483 -0.4354 -0.0278
 8190TIP3    H145985   6.182   0.766  14.658  0.7111 -0.0833 -0.1112
 8190TIP3    H245986   6.258   0.754  14.528  0.2451  1.3487 -0.5348
 8191TIP3   OH245987   0.176   5.419  16.651  0.4994 -0.5724 -0.4586
 8191TIP3    H145988   0.108   5.470  16.693  1.5016  1.1773 -0.8646
 8191TIP3    H245989   0.257   5.447  16.693  1.1787 -1.1377 -1.3544
 8192TIP3   OH245990   6.286   2.213   2.719 -0.0168 -0.1441 -0.3558
 8192TIP3    H145991   6.276   2.306   2.736 -0.1189 -0.2883  0.3827
 8192TIP3    H245992   6.340   2.209   2.640  0.4273  0.5281 -0.0910
 8193TIP3   OH245993   6.728   0.861  13.167  0.0040  0.3694  0.4248
 8193TIP3    H145994   6.810   0.858  13.217  0.1141  1.5194  0.3536
 8193TIP3    H245995   6.704   0.954  13.167 -0.7618  0.1845 -0.4357
 8194TIP3   OH245996   1.971   3.312   0.124 -0.2996 -1.0434  0.0681
 8194TIP3    H145997   1.935   3.234   0.083 -1.1179  0.4548 -2.1988
 8194TIP3    H245998   2.035   3.345   0.061 -0.4800  0.5203  0.6703
 8195TIP3   OH245999   2.242   6.444   3.261 -0.2766  0.4489  0.1225
 8195TIP3    H146000   2.215   6.510   3.325  0.9138  0.8157  0.2750
 8195TIP3    H246001   2.173   6.378   3.263  0.1106  0.0201  2.4275
 8196TIP3   OH246002   0.849   6.381   2.335 -1.1592 -0.3333  0.0567
 8196TIP3    H146003   0.909   6.371   2.261 -0.3155 -0.7144  0.7721
 8196TIP3    H246004   0.870   6.308   2.393  0.2210  1.4950  2.0486
 8197TIP3   OH246005   3.665   0.884   5.558  0.3356 -0.2471 -0.2410
 8197TIP3    H146006   3.649   0.929   5.641  1.6780  0.9244 -0.5619
 8197TIP3    H246007   3.757   0.858   5.563  0.0665 -1.3504 -0.8299
 8198TIP3   OH246008   2.098   0.111   0.360 -0.1273 -0.2485  0.0491
 8198TIP3    H146009   2.047   0.188   0.333 -0.2217 -0.5165 -0.5502
 8198TIP3    H246010   2.107   0.121   0.454  0.6849  0.9948 -0.1420
 8199TIP3   OH246011   6.217   6.102   1.358 -0.3251  0.2300  0.1808
 8199TIP3    H146012   6.227   6.164   1.431  0.0210  0.7768 -0.3253
 8199TIP3    H246013   6.293   6.118   1.302 -0.5370 -0.2587 -0.2554
 8200TIP3   OH246014   1.926   5.996   1.339  1.1001 -0.2243 -0.1035
 8200TIP3    H146015   1.837   5.972   1.366  0.4668  1.1325 -0.8421
 8200TIP3    H246016   1.983   5.948   1.398 -0.1593  0.1296  1.4742
 8201TIP3   OH246017   3.719   2.769   3.966 -0.2276  0.1561  0.1360
 8201TIP3    H146018   3.772   2.717   4.026  1.2271 -0.0505 -1.2689
 8201TIP3    H246019   3.632   2.727   3.969 -0.0749 -0.1033  1.7283
 8202TIP3   OH246020   3.563   4.510   4.060 -0.4525  0.3460  0.6591
 8202TIP3    H146021   3.619   4.433   4.063 -1.0631 -0.6324 -4.4585
 8202TIP3    H246022   3.616   4.577   4.017 -1.3953  1.2661  0.8852
 8203TIP3   OH246023   0.301   0.311   3.198  0.1545 -0.1723 -0.4866
 8203TIP3    H146024   0.377   0.265   3.233  0.5729 -0.2964 -1.5176
 8203TIP3    H246025   0.226   0.261   3.230  0.4527  0.3052  1.0624
 8204TIP3   OH246026   5.455   3.665  14.883 -0.6741  0.0944 -0.1026
 8204TIP3    H146027   5.513   3.728  14.840  0.7934 -0.7295  0.5914
 8204TIP3    H246028   5.486   3.579  14.854 -2.6240 -0.3668 -1.0070
 8205TIP3   OH246029   2.062   1.175  16.691  0.6184 -0.0211  0.1561
 8205TIP3    H146030   2.149   1.134  16.693  0.4258 -0.5110 -0.7775
 8205TIP3    H246031   2.001   1.102  16.703  0.2882  0.0269 -1.0779
 8206TIP3   OH246032   3.937   6.105   3.266  0.2226  0.5141 -0.8395
 8206TIP3    H146033   4.013   6.163   3.273 -1.4252  2.7333 -0.1526
 8206TIP3    H246034   3.863   6.164   3.251 -1.3182 -1.5977 -2.1582
 8207TIP3   OH246035   2.698   0.312   1.921  0.7794 -0.5761 -0.6961
 8207TIP3    H146036   2.692   0.328   1.827  1.9689  0.5072 -0.6306
 8207TIP3    H246037   2.791   0.293   1.936  0.9160  0.8157  0.4533
 8208TIP3   OH246038   3.967   6.422  15.961 -0.3152  0.6895  0.2973
 8208TIP3    H146039   4.014   6.343  15.935 -2.2923 -0.2462 -0.6510
 8208TIP3    H246040   4.030   6.471  16.015  1.2957 -1.0235  0.0769
 8209TIP3   OH246041   6.243   5.963  12.458  0.0812  0.2585 -0.2299
 8209TIP3    H146042   6.154   5.927  12.463  0.3443 -0.6796 -1.7806
 8209TIP3    H246043   6.242   6.018  12.381  1.1283 -0.6331 -0.9129
 8210TIP3   OH246044   4.500   5.214   6.471  0.1552  0.2489 -0.7084
 8210TIP3    H146045   4.472   5.235   6.382 -0.5724 -1.2422 -0.8641
 8210TIP3    H246046   4.594   5.198   6.464  0.7710  3.2942 -0.5641
 8211TIP3   OH246047   5.666   3.391  13.585  0.4672 -0.4070  0.2829
 8211TIP3    H146048   5.718   3.317  13.552  1.1133  0.3710 -0.4981
 8211TIP3    H246049   5.620   3.424  13.508 -0.2131 -0.2996  0.7259
 8212TIP3   OH246050   0.938   5.676   0.319  0.1289 -0.2802  0.2687
 8212TIP3    H146051   0.984   5.749   0.359  0.5881 -0.6615  0.4507
 8212TIP3    H246052   0.993   5.600   0.338 -1.0529 -0.9168  1.3425
 8213TIP3   OH246053   5.366   4.713   1.292  0.8919 -0.4639  0.1573
 8213TIP3    H146054   5.296   4.740   1.233  0.2294 -1.8917  0.2515
 8213TIP3    H246055   5.433   4.781   1.283  0.5572 -0.3368 -1.7933
 8214TIP3   OH246056   4.818   2.288   3.952  0.0719 -0.4622  0.1362
 8214TIP3    H146057   4.810   2.230   4.027  0.2418 -1.6087 -0.7093
 8214TIP3    H246058   4.845   2.231   3.880  1.4319  0.8626 -0.4529
 8215TIP3   OH246059   5.443   6.296   4.197  0.1000  0.1721 -0.0204
 8215TIP3    H146060   5.537   6.300   4.178 -0.0302 -0.2096 -0.8344
 8215TIP3    H246061   5.410   6.229   4.136 -0.7666  0.6000 -0.0371
 8216TIP3   OH246062   4.419   1.442  13.812 -0.1952  0.3381  0.4711
 8216TIP3    H146063   4.327   1.466  13.802  0.3959  1.8560 -2.6647
 8216TIP3    H246064   4.424   1.351  13.784 -0.4343  1.0783 -2.2682
 8217TIP3   OH246065   3.091   2.071  13.684 -0.1341 -0.1808  0.3693
 8217TIP3    H146066   3.047   1.992  13.714 -0.6684  0.6827  1.9804
 8217TIP3    H246067   3.031   2.109  13.619 -1.1095  0.2171  1.4720
 8218TIP3   OH246068   1.745   0.792   4.762  0.1704 -0.1671 -0.4466
 8218TIP3    H146069   1.756   0.697   4.771 -0.5419 -0.1890  0.3455
 8218TIP3    H246070   1.810   0.829   4.821 -0.6913 -0.2056  0.5491
 8219TIP3   OH246071   3.350   5.700  16.697  0.1889  0.0566 -0.3350
 8219TIP3    H146072   3.300   5.742  16.627 -1.6377 -0.5774  0.5238
 8219TIP3    H246073   3.298   5.715  16.776  1.2038 -0.9011  0.5496
 8220TIP3   OH246074   1.232   6.234   4.353  0.5148  0.1301 -0.3881
 8220TIP3    H146075   1.198   6.175   4.420 -0.5165  1.3867  0.2213
 8220TIP3    H246076   1.300   6.284   4.398 -0.1740  0.9704 -0.2611
 8221TIP3   OH246077   1.166   1.645   2.251 -0.2452 -0.2244  0.0409
 8221TIP3    H146078   1.111   1.659   2.174 -1.3285 -1.7953  0.5077
 8221TIP3    H246079   1.204   1.732   2.268 -2.5984  0.9419 -0.2543
 8222TIP3   OH246080   5.278   0.255  10.931 -0.2685 -0.5181  0.0644
 8222TIP3    H146081   5.335   0.306  10.874 -0.6438  2.0795  1.8611
 8222TIP3    H246082   5.190   0.279  10.905 -0.4450  0.5001  1.4786
 8223TIP3   OH246083   5.302   2.288  14.909  0.3485  0.0076  0.4916
 8223TIP3    H146084   5.319   2.287  14.815  1.5690 -0.7377  0.6921
 8223TIP3    H246085   5.219   2.242  14.919  1.5957 -2.4758 -0.0118
 8224TIP3   OH246086   6.067   6.049  16.984  0.3813 -0.0109 -0.0631
 8224TIP3    H146087   5.992   6.043  17.043  1.4111 -1.2159  1.2067
 8224TIP3    H246088   6.043   6.115  16.920 -0.8101  1.3384  1.6984
 8225TIP3   OH246089   4.051   1.416   5.014 -0.4927 -0.9918  0.2769
 8225TIP3    H146090   4.074   1.381   5.100  3.4693  2.3873  0.8954
 8225TIP3    H246091   3.999   1.494   5.033  0.1300 -0.4040 -0.4016
 8226TIP3   OH246092   6.263   0.751   3.683  0.1837 -0.6081 -0.2580
 8226TIP3    H146093   6.266   0.659   3.709  2.2017 -0.3808  0.4198
 8226TIP3    H246094   6.179   0.783   3.717 -0.3622 -2.0804 -0.1612
 8227TIP3   OH246095   5.716   2.474  12.485  0.1860 -0.0413 -0.1227
 8227TIP3    H146096   5.796   2.492  12.534 -0.3437 -1.7234  1.4402
 8227TIP3    H246097   5.688   2.387  12.514 -3.5507  1.4068  1.2715
 8228TIP3   OH246098   5.423   2.609   2.318 -0.2230  0.2391  0.1737
 8228TIP3    H146099   5.396   2.574   2.403 -0.6643  1.5267  0.5828
 8228TIP3    H246100   5.508   2.650   2.334 -0.4938  0.8418  0.0992
 8229TIP3   OH246101   6.738   3.760   5.656 -0.8512  0.9549  0.6395
 8229TIP3    H146102   6.796   3.688   5.681  0.5473  1.6761 -0.3684
 8229TIP3    H246103   6.700   3.791   5.738 -0.3071  0.0544  1.2455
 8230TIP3   OH246104   2.113   0.956   6.098  0.3657  0.4958  0.0324
 8230TIP3    H146105   2.109   0.890   6.167 -0.5384 -2.6143 -2.6924
 8230TIP3    H246106   2.207   0.973   6.087  0.5559  0.5318  1.5234
 8231TIP3   OH246107   2.429   2.249  12.814 -0.4764  0.0348 -1.1229
 8231TIP3    H146108   2.436   2.242  12.719 -1.8033  0.6824 -1.2862
 8231TIP3    H246109   2.495   2.314  12.838  0.6632 -0.9623 -1.4425
 8232TIP3   OH246110   5.285   5.009  16.456  0.2251  0.0247  0.0494
 8232TIP3    H146111   5.235   4.937  16.418 -0.1958  0.2977  0.0783
 8232TIP3    H246112   5.356   4.967  16.505  0.5471 -0.3434 -0.7156
 8233TIP3   OH246113   4.151   1.140  13.255  0.2445 -0.3020  0.2185
 8233TIP3    H146114   4.139   1.048  13.230 -1.2788 -0.0680 -0.0154
 8233TIP3    H246115   4.062   1.176  13.257  0.7380  0.9329  1.2443
 8234TIP3   OH246116   3.426   5.497  13.770 -0.0399  0.1185  0.4558
 8234TIP3    H146117   3.465   5.580  13.795  0.4799  0.2944 -0.8398
 8234TIP3    H246118   3.382   5.515  13.687 -0.8298 -0.6495  0.6950
 8235TIP3   OH246119   5.346   3.621  13.525 -0.4607  0.1225 -0.2897
 8235TIP3    H146120   5.384   3.549  13.475 -0.6144 -0.8355  0.9008
 8235TIP3    H246121   5.355   3.593  13.617 -0.3146  1.7335  0.2183
 8236TIP3   OH246122   1.298   2.039  10.338  0.1288  0.6737 -0.1427
 8236TIP3    H146123   1.385   2.033  10.379 -0.0694 -0.2570  0.1740
 8236TIP3    H246124   1.251   2.102  10.392 -0.4431 -1.2398  1.7293
 8237TIP3   OH246125   3.175   5.002  13.858 -0.0595  0.1674  0.1890
 8237TIP3    H146126   3.204   5.093  13.858  0.7844 -0.0899 -0.5951
 8237TIP3    H246127   3.096   5.002  13.912  1.3312  0.9130  2.3888
 8238TIP3   OH246128   6.347   0.477  16.140  0.0045 -0.0716 -0.1134
 8238TIP3    H146129   6.420   0.462  16.080  0.3909 -0.8537  0.5366
 8238TIP3    H246130   6.369   0.560  16.184  0.7712 -0.5589  0.4451
 8239TIP3   OH246131   4.213   1.570  12.901  0.3237  0.2609  0.1244
 8239TIP3    H146132   4.264   1.558  12.821  0.7755  2.1239  0.0684
 8239TIP3    H246133   4.206   1.483  12.939  2.8526 -0.2121 -0.3081
 8240TIP3   OH246134   2.940   0.185   2.542  0.0452 -0.2550  0.1234
 8240TIP3    H146135   2.883   0.239   2.596 -0.3169  0.1611 -0.6470
 8240TIP3    H246136   2.951   0.236   2.461  0.8063 -0.7240 -0.0789
 8241TIP3   OH246137   4.340   5.921   0.985 -0.0898  0.1000 -0.0411
 8241TIP3    H146138   4.251   5.891   1.005 -0.4399  0.1929 -1.3304
 8241TIP3    H246139   4.333   6.016   0.980  0.1443  0.1273  0.1585
 8242TIP3   OH246140   3.644   6.161   1.394  0.3205 -0.1023 -0.3835
 8242TIP3    H146141   3.637   6.080   1.344  1.9356 -0.6243  0.1897
 8242TIP3    H246142   3.556   6.174   1.430  0.8661 -4.0018  3.1056
 8243TIP3   OH246143   2.305   5.394  16.890 -0.5365  0.1483 -0.1471
 8243TIP3    H146144   2.348   5.478  16.907  0.3356 -0.2944 -0.0633
 8243TIP3    H246145   2.214   5.416  16.871 -0.2153  1.1458 -0.5870
 8244TIP3   OH246146   1.207   0.109  11.833  0.2581  0.5085 -0.3189
 8244TIP3    H146147   1.154   0.188  11.826  2.0401  1.7304 -0.9047
 8244TIP3    H246148   1.238   0.092  11.744  1.3057  0.1876  0.0836
 8245TIP3   OH246149   3.329   1.795  16.020 -0.1413 -0.0649 -0.5942
 8245TIP3    H146150   3.351   1.788  15.927  0.0166 -0.0277 -0.5595
 8245TIP3    H246151   3.347   1.886  16.043 -0.0408 -0.1101 -0.4912
 8246TIP3   OH246152   5.793   1.373  15.639  0.0899  0.0475  0.0479
 8246TIP3    H146153   5.742   1.411  15.568  3.0145  2.1318 -1.0898
 8246TIP3    H246154   5.772   1.279  15.635 -2.5600  0.5743 -1.1314
 8247TIP3   OH246155   3.830   2.764  11.820 -0.1758  0.3668 -0.4712
 8247TIP3    H146156   3.906   2.758  11.878  0.4285  1.1458 -1.1617
 8247TIP3    H246157   3.867   2.765  11.732 -1.0390 -0.0745 -0.8458
 8248TIP3   OH246158   2.938   4.174   1.049  0.0370 -0.5937 -0.0076
 8248TIP3    H146159   2.861   4.119   1.037 -0.2375 -0.5450  1.3541
 8248TIP3    H246160   3.008   4.113   1.071 -0.0934 -0.4724  0.7608
 8249TIP3   OH246161   5.016   4.872   2.989  0.5329  0.2033  0.2137
 8249TIP3    H146162   5.081   4.926   3.035  3.0125 -0.1501 -2.5879
 8249TIP3    H246163   4.986   4.927   2.917 -0.0346 -0.6852 -0.2425
 8250TIP3   OH246164   4.369   2.783  15.002 -0.2702  0.4106 -0.0540
 8250TIP3    H146165   4.433   2.729  15.047  0.6695 -0.0033 -1.7733
 8250TIP3    H246166   4.401   2.872  15.012  0.7132  0.1897 -1.0415
 8251TIP3   OH246167   5.993   4.105  16.269 -0.6816  0.3786 -0.1117
 8251TIP3    H146168   6.023   4.150  16.190  2.0379 -0.6960  0.2222
 8251TIP3    H246169   5.994   4.173  16.336  1.3752  0.3713 -0.0698
 8252TIP3   OH246170   3.077   2.793  12.359  0.2011  0.4660 -0.0091
 8252TIP3    H146171   3.140   2.744  12.411 -0.6151 -1.1261 -0.4566
 8252TIP3    H246172   2.998   2.796  12.413 -0.6225 -1.1169 -1.0398
 8253TIP3   OH246173   5.100   1.793   1.056  0.3529  0.5622  0.1810
 8253TIP3    H146174   5.015   1.766   1.092  1.1864 -0.1803  1.7045
 8253TIP3    H246175   5.078   1.846   0.980 -1.4482 -1.3829 -0.7481
 8254TIP3   OH246176   1.535   5.508   1.393  0.4538 -0.0576 -0.1747
 8254TIP3    H146177   1.481   5.577   1.430 -1.8587 -1.4440 -0.7571
 8254TIP3    H246178   1.551   5.448   1.466 -0.6268 -0.6956 -0.4308
 8255TIP3   OH246179   2.663   4.827   5.854 -0.1404 -0.0325 -0.3903
 8255TIP3    H146180   2.632   4.786   5.935 -0.0547  1.4472  0.4176
 8255TIP3    H246181   2.708   4.756   5.808 -0.1119 -0.8880  0.8936
 8256TIP3   OH246182   4.068   1.519   1.585 -0.2811 -0.4765  0.4474
 8256TIP3    H146183   4.134   1.540   1.652 -0.4433  1.9942 -0.0509
 8256TIP3    H246184   4.077   1.589   1.521 -2.7991 -0.5716 -0.0983
 8257TIP3   OH246185   1.709   0.164   2.071  0.9344 -0.4675  0.4656
 8257TIP3    H146186   1.718   0.259   2.081 -1.7871 -0.1937  1.1824
 8257TIP3    H246187   1.789   0.129   2.108  2.0522  1.5362  0.1232
 8258TIP3   OH246188   6.395   4.719  14.189  0.1736 -0.2431 -0.1426
 8258TIP3    H146189   6.362   4.670  14.264  0.5030 -1.6424 -0.8827
 8258TIP3    H246190   6.339   4.694  14.116  2.5543 -2.4794 -1.3716
 8259TIP3   OH246191   3.053   3.424  12.531 -0.1741 -0.7351  0.2083
 8259TIP3    H146192   3.058   3.493  12.598 -1.7110 -0.6169  0.2424
 8259TIP3    H246193   3.128   3.368  12.550  2.3678  1.9575 -1.0696
 8260TIP3   OH246194   6.108   4.650   6.091 -0.2347  0.0507 -0.2801
 8260TIP3    H146195   6.039   4.636   6.026  0.3548 -0.1827 -0.8662
 8260TIP3    H246196   6.152   4.731   6.062 -1.5785  1.3964  1.2728
 8261TIP3   OH246197   0.310   2.822   4.830  0.3129  0.1008 -0.1328
 8261TIP3    H146198   0.301   2.738   4.785 -0.1203 -0.8314  1.6084
 8261TIP3    H246199   0.221   2.858   4.830  0.7710  1.4905 -2.4407
 8262TIP3   OH246200   1.742   4.411   0.107 -0.0586  0.1061  0.1533
 8262TIP3    H146201   1.750   4.494   0.061 -0.2015  0.3543  0.5746
 8262TIP3    H246202   1.652   4.383   0.090  0.5029 -0.8605 -1.4875
 8263TIP3   OH246203   1.204   0.394   6.295 -0.3976 -0.0281 -0.2332
 8263TIP3    H146204   1.212   0.300   6.314 -1.6546 -0.2645 -0.7700
 8263TIP3    H246205   1.254   0.436   6.364 -0.1817 -1.0832  0.2835
 8264TIP3   OH246206   6.379   0.545   3.990  0.5499 -0.0752 -0.2434
 8264TIP3    H146207   6.427   0.512   4.066 -2.1301  1.3180  2.2340
 8264TIP3    H246208   6.310   0.481   3.976 -0.2060  0.7089 -0.1684
 8265TIP3   OH246209   2.180   3.565   5.999  0.3539 -0.3400 -0.9858
 8265TIP3    H146210   2.227   3.628   6.053 -0.6699  0.0226 -0.4711
 8265TIP3    H246211   2.244   3.497   5.979  1.3418  0.6205 -1.1437
 8266TIP3   OH246212   2.761   1.706   0.351 -0.3678  0.9059 -0.2163
 8266TIP3    H146213   2.851   1.676   0.368 -1.2475 -2.9387 -1.4938
 8266TIP3    H246214   2.768   1.802   0.351  3.0569  0.9037  2.9394
 8267TIP3   OH246215   2.298   0.423   2.754  0.1199  0.0315  1.0294
 8267TIP3    H146216   2.238   0.360   2.794  1.4445 -2.2745 -0.3800
 8267TIP3    H246217   2.247   0.464   2.684 -0.2091 -0.9514  0.6777
 8268TIP3   OH246218   1.859   6.054  13.932  0.0035 -0.5051 -0.0040
 8268TIP3    H146219   1.799   5.998  13.982  1.6059 -1.2550  1.1828
 8268TIP3    H246220   1.941   6.051  13.981  0.5812  1.7656 -0.7026
 8269TIP3   OH246221   0.784   4.178  12.127 -0.3422  0.1575  0.0298
 8269TIP3    H146222   0.698   4.219  12.127  0.2172  1.4242  1.1659
 8269TIP3    H246223   0.825   4.209  12.208  1.2229 -0.2922 -0.5531
 8270TIP3   OH246224   3.097   6.395   4.198 -0.3155 -0.2679  0.2407
 8270TIP3    H146225   3.153   6.330   4.157  1.4199  0.5332  1.2269
 8270TIP3    H246226   3.112   6.384   4.292 -1.7163  0.0704  0.5275
 8271TIP3   OH246227   0.753   1.138  12.822 -0.5028 -0.1913  0.1145
 8271TIP3    H146228   0.811   1.076  12.866  0.5998  0.5354 -0.2740
 8271TIP3    H246229   0.797   1.223  12.830  0.3379 -0.1509 -3.2324
 8272TIP3   OH246230   1.319   4.827   2.342 -0.3741 -0.0582  0.0603
 8272TIP3    H146231   1.300   4.822   2.248 -1.0811 -0.2399  0.2088
 8272TIP3    H246232   1.404   4.869   2.346 -0.4855  0.2637 -0.6561
 8273TIP3   OH246233   5.485   4.737   3.211 -0.1133 -0.3722  0.5727
 8273TIP3    H146234   5.568   4.763   3.250 -0.0142  0.8922 -0.3918
 8273TIP3    H246235   5.508   4.668   3.149  0.0185 -0.9182  1.2175
 8274TIP3   OH246236   3.524   2.257   0.201  0.1985 -0.5153  0.0736
 8274TIP3    H146237   3.565   2.318   0.262 -0.4766 -0.0461  0.0819
 8274TIP3    H246238   3.430   2.272   0.212 -0.0222 -2.1333  0.6476
 8275TIP3   OH246239   3.006   2.536   0.500 -0.2970 -0.6995  0.3573
 8275TIP3    H146240   3.041   2.574   0.580  0.0512 -1.4822  0.5787
 8275TIP3    H246241   3.035   2.445   0.500 -1.5508 -1.1321  0.0939
 8276TIP3   OH246242   5.816   3.052   4.128 -0.3898 -0.5558  0.8146
 8276TIP3    H146243   5.782   3.007   4.205  0.0275  0.1469  1.4278
 8276TIP3    H246244   5.872   3.121   4.164 -0.3677 -0.0769 -0.1172
 8277TIP3   OH246245   4.628   1.714   3.364 -0.1052 -0.3432  0.6239
 8277TIP3    H146246   4.573   1.790   3.381 -0.3057 -0.8245  2.3643
 8277TIP3    H246247   4.713   1.738   3.401  1.0562  0.5134 -2.2958
 8278TIP3   OH246248   6.720   4.895   4.828 -0.4619 -0.4206 -0.8323
 8278TIP3    H146249   6.729   4.977   4.780 -2.6290  0.6746  0.4871
 8278TIP3    H246250   6.777   4.904   4.904  0.1093 -0.6124 -1.2272
 8279TIP3   OH246251   6.173   6.219  14.901 -0.2719  0.1811 -0.1939
 8279TIP3    H146252   6.184   6.261  14.987 -2.1478  1.1072 -0.3597
 8279TIP3    H246253   6.222   6.275  14.841  1.3542 -0.6679  0.2635
 8280TIP3   OH246254   6.739   2.314  10.775  0.0336 -0.1160  0.2858
 8280TIP3    H146255   6.757   2.398  10.733 -0.6296  1.0457  2.1872
 8280TIP3    H246256   6.657   2.284  10.735 -0.6130  0.9774  0.7680
 8281TIP3   OH246257   2.248   4.061  16.925  0.2490  0.2113 -0.0395
 8281TIP3    H146258   2.328   4.008  16.921  0.0763  0.0055 -1.5965
 8281TIP3    H246259   2.271   4.135  16.981  1.1090 -0.5186  0.5970
 8282TIP3   OH246260   4.039   3.818   6.065 -0.1764 -0.3888 -0.1554
 8282TIP3    H146261   4.131   3.840   6.075  0.4751 -2.6033 -0.7533
 8282TIP3    H246262   4.011   3.790   6.152 -0.3797  0.5798  0.0952
 8283TIP3   OH246263   3.285   6.116   0.716 -0.0929 -0.9077  0.1445
 8283TIP3    H146264   3.222   6.111   0.788  0.6995 -1.2362  0.8180
 8283TIP3    H246265   3.245   6.179   0.655 -1.0835 -1.1266  0.5439
 8284TIP3   OH246266   5.713   2.671   0.196  0.1684 -0.2588 -0.3492
 8284TIP3    H146267   5.807   2.670   0.179  0.3513  0.3125  0.5448
 8284TIP3    H246268   5.688   2.763   0.192  0.2510 -0.0220  2.3086
 8285TIP3   OH246269   2.876   3.393   1.248  0.1301 -0.7528  0.5578
 8285TIP3    H146270   2.890   3.486   1.267  0.7024 -0.4237 -1.2877
 8285TIP3    H246271   2.782   3.386   1.231  0.4029 -0.0055 -1.5507
 8286TIP3   OH246272   5.103   0.600   3.978  0.3327  0.2615  0.3876
 8286TIP3    H146273   5.116   0.517   3.933  0.5666  0.1126  0.7229
 8286TIP3    H246274   5.188   0.643   3.975  0.1558  0.5931  0.0149
 8287TIP3   OH246275   5.404   3.520   2.891 -0.1298  0.1916 -0.1601
 8287TIP3    H146276   5.474   3.471   2.932  0.4993 -0.5829 -2.0390
 8287TIP3    H246277   5.435   3.536   2.802 -2.0967  0.3221 -0.8716
 8288TIP3   OH246278   0.729   0.831  16.444 -0.3878  0.0553 -0.2181
 8288TIP3    H146279   0.729   0.886  16.366 -1.7210 -0.9659 -0.9895
 8288TIP3    H246280   0.821   0.824  16.469  0.3590 -1.1459 -2.8597
 8289TIP3   OH246281   2.586   6.576  17.168 -0.0879  0.0311 -0.5691
 8289TIP3    H146282   2.507   6.630  17.175  1.8010  2.8742  1.1157
 8289TIP3    H246283   2.594   6.535  17.254 -0.6691 -1.8057 -1.3465
 8290TIP3   OH246284   4.397   1.627   3.778 -0.2439  0.1764  0.2326
 8290TIP3    H146285   4.331   1.653   3.843 -0.4776  0.5575 -0.1568
 8290TIP3    H246286   4.438   1.549   3.816 -0.8967 -0.0451  0.4959
 8291TIP3   OH246287   1.061   1.863  12.995 -0.3839 -0.0746 -0.6326
 8291TIP3    H146288   1.146   1.827  12.973 -0.1226 -0.0835  0.3192
 8291TIP3    H246289   1.079   1.954  13.021 -0.3849 -0.5366  1.1644
 8292TIP3   OH246290   3.823   6.150   3.551 -0.3165 -0.2079  0.2623
 8292TIP3    H146291   3.822   6.199   3.469 -1.1430 -0.8951 -0.1577
 8292TIP3    H246292   3.916   6.139   3.570 -0.1097  1.2855  0.2462
 8293TIP3   OH246293   1.176   3.202  10.151 -0.7173 -0.9129 -0.3115
 8293TIP3    H146294   1.142   3.290  10.135  1.0154 -0.2730 -0.6122
 8293TIP3    H246295   1.143   3.150  10.077  0.5319  0.1484 -1.6578
 8294TIP3   OH246296   4.606   6.510   5.041 -0.3040 -0.0718  0.1170
 8294TIP3    H146297   4.546   6.535   5.111  0.6501  0.0173  0.9277
 8294TIP3    H246298   4.667   6.449   5.083 -0.2514 -0.7190 -0.8664
 8295TIP3   OH246299   0.289   4.475  13.550  0.2796 -0.2330  0.2781
 8295TIP3    H146300   0.287   4.569  13.532  0.0218 -0.2428  0.2503
 8295TIP3    H246301   0.305   4.435  13.465  0.1161 -0.2271  0.2438
 8296TIP3   OH246302   4.863   4.581   5.543 -0.3490 -0.2482 -0.2642
 8296TIP3    H146303   4.771   4.604   5.551 -0.3078 -0.5198  1.2154
 8296TIP3    H246304   4.905   4.622   5.619  0.5159 -1.2240 -0.1864
 8297TIP3   OH246305   5.223   0.981  14.467 -0.1344 -0.2940 -0.7723
 8297TIP3    H146306   5.255   1.069  14.447 -1.1809 -0.0504 -1.4681
 8297TIP3    H246307   5.239   0.930  14.388  0.6173 -0.7817 -0.3143
 8298TIP3   OH246308   5.520   6.633  16.110 -0.7083 -0.3453 -0.1820
 8298TIP3    H146309   5.554   6.720  16.090  0.3370 -0.9509 -1.1924
 8298TIP3    H246310   5.494   6.637  16.202  0.1153  0.7818  0.0166
 8299TIP3   OH246311   1.894   6.281   1.865  0.1923 -0.3690 -0.4055
 8299TIP3    H146312   1.882   6.223   1.940 -0.8332 -0.0227 -0.2819
 8299TIP3    H246313   1.820   6.262   1.807 -0.1893  0.8285 -0.3372
 8300TIP3   OH246314   1.445   2.059  12.752 -0.2570 -0.2940  0.2295
 8300TIP3    H146315   1.538   2.058  12.772 -0.0074  0.2588 -0.8805
 8300TIP3    H246316   1.403   2.089  12.833  0.7718  2.4937 -0.1698
 8301TIP3   OH246317   4.466   6.079   5.731  0.0803 -0.3999  0.2520
 8301TIP3    H146318   4.375   6.097   5.754  0.1573 -0.7608  0.8735
 8301TIP3    H246319   4.463   5.995   5.685  0.0870 -0.3536  0.1661
 8302TIP3   OH246320   2.922   5.379   2.875  0.1927  0.0371  0.7253
 8302TIP3    H146321   2.990   5.337   2.929 -0.6053 -0.8455  1.0852
 8302TIP3    H246322   2.953   5.469   2.863  0.2774  0.3469  2.8799
 8303TIP3   OH246323   3.863   5.520   2.735  0.0409 -0.3291 -0.1424
 8303TIP3    H146324   3.948   5.482   2.712  1.3594  0.9046  2.2941
 8303TIP3    H246325   3.879   5.614   2.739 -1.7763  0.0539 -0.7515
 8304TIP3   OH246326   1.437   4.035  12.866  0.0234 -0.1739  0.4207
 8304TIP3    H146327   1.412   4.113  12.816 -0.9888  0.5102  1.9143
 8304TIP3    H246328   1.453   3.968  12.800 -0.4107  0.9290 -0.8432
 8305TIP3   OH246329   2.789   6.455  14.797  0.1903 -0.1161 -0.6977
 8305TIP3    H146330   2.814   6.545  14.774  1.8141 -0.0432  1.0805
 8305TIP3    H246331   2.694   6.454  14.790  0.1643  1.6451 -1.0918
 8306TIP3   OH246332   0.480   6.213  10.748 -0.0697 -0.0410  0.2045
 8306TIP3    H146333   0.483   6.308  10.740  1.8550 -0.1689 -1.4365
 8306TIP3    H246334   0.548   6.192  10.812 -1.6051 -0.2752  1.8365
 8307TIP3   OH246335   2.185   1.479  15.888  0.0593 -0.2603  0.6187
 8307TIP3    H146336   2.204   1.571  15.903 -0.7973  0.0295  0.0075
 8307TIP3    H246337   2.136   1.451  15.966 -3.0203  0.8348 -0.7618
 8308TIP3   OH246338   1.027   2.572   0.551  0.1196 -0.3119  0.5904
 8308TIP3    H146339   1.089   2.545   0.484  0.0503 -0.4637  0.5869
 8308TIP3    H246340   1.009   2.492   0.601 -1.6561 -0.7661 -0.6705
 8309TIP3   OH246341   3.995   0.591   3.395 -0.5737  0.1419 -0.2142
 8309TIP3    H146342   4.087   0.570   3.410 -0.9997 -3.9408 -1.9428
 8309TIP3    H246343   3.997   0.660   3.328  1.1697  1.0274  0.6982
 8310TIP3   OH246344   6.012   0.582  11.195  0.0948  0.5153  0.3366
 8310TIP3    H146345   6.102   0.564  11.168 -0.5430  0.0163 -1.6522
 8310TIP3    H246346   5.960   0.563  11.117 -1.4589  3.6830  0.4466
 8311TIP3   OH246347   0.966   0.913   2.459 -0.5599  0.2989 -0.1716
 8311TIP3    H146348   1.010   0.998   2.461 -0.5754  0.3299 -0.7556
 8311TIP3    H246349   1.003   0.865   2.533  1.9509 -0.3967 -1.7391
 8312TIP3   OH246350   4.282   4.515  17.083  0.1067  0.5911  0.1309
 8312TIP3    H146351   4.295   4.469  17.166 -1.7226 -1.5130 -0.6569
 8312TIP3    H246352   4.187   4.519  17.072  0.3156  0.5106 -2.0146
 8313TIP3   OH246353   4.457   0.686  15.036 -0.3294 -0.4335  0.0123
 8313TIP3    H146354   4.416   0.759  15.082 -1.9538 -2.2432  1.6291
 8313TIP3    H246355   4.385   0.642  14.991  0.6806 -0.8153 -1.3018
 8314TIP3   OH246356   4.976   3.483  14.411 -0.0612 -0.4432 -0.1626
 8314TIP3    H146357   5.061   3.527  14.406 -0.4313  0.2460 -0.6025
 8314TIP3    H246358   4.945   3.481  14.321 -0.4291 -0.8530 -0.0277
 8315TIP3   OH246359   0.696   1.185  15.996  0.6864  0.1144 -0.1704
 8315TIP3    H146360   0.674   1.143  15.913 -1.2347 -2.5015  1.5336
 8315TIP3    H246361   0.791   1.196  15.993  0.7584 -0.7131 -2.3442
 8316TIP3   OH246362   3.826   4.121  11.906 -0.6105  0.5592 -0.4798
 8316TIP3    H146363   3.809   4.031  11.932 -0.8256  0.9114  0.6850
 8316TIP3    H246364   3.910   4.142  11.945 -1.1422  1.2435  0.3396
 8317TIP3   OH246365   2.000   0.720  12.319 -0.6275 -0.2910  0.3260
 8317TIP3    H146366   2.058   0.696  12.247 -1.0593 -1.5286  0.3523
 8317TIP3    H246367   1.936   0.648  12.322 -1.1433  0.1948  1.3657
 8318TIP3   OH246368   0.758   4.640  14.389  0.4610 -0.4483  0.2612
 8318TIP3    H146369   0.699   4.612  14.319  0.2555 -0.3783  0.4032
 8318TIP3    H246370   0.699   4.665  14.460  0.6669 -0.4443  0.4293
 8319TIP3   OH246371   5.145   0.116  12.854  0.1032 -0.3216 -0.2793
 8319TIP3    H146372   5.179   0.205  12.859  1.3106 -0.8110  0.7917
 8319TIP3    H246373   5.186   0.071  12.927 -3.0835 -0.9065  1.3334
 8320TIP3   OH246374   4.915   3.646  11.369  0.4065 -0.4369  0.2762
 8320TIP3    H146375   4.873   3.627  11.453  1.1724 -1.6868  0.4076
 8320TIP3    H246376   4.846   3.634  11.304 -0.3872  1.2640  0.7543
 8321TIP3   OH246377   3.719   0.126   1.436 -0.3695  0.2455 -0.2855
 8321TIP3    H146378   3.753   0.052   1.486  1.2532  1.1300 -0.0174
 8321TIP3    H246379   3.627   0.131   1.461 -0.5699 -1.7405 -0.4192
 8322TIP3   OH246380   1.518   4.536   4.889  0.2689 -0.6125 -0.9598
 8322TIP3    H146381   1.532   4.448   4.925  0.7850 -0.1673 -0.0593
 8322TIP3    H246382   1.571   4.594   4.943 -0.4251  0.3248 -1.2530
 8323TIP3   OH246383   5.201   3.799   0.269 -0.2110 -0.1664  0.4682
 8323TIP3    H146384   5.179   3.883   0.227  1.1999 -0.0209 -0.0148
 8323TIP3    H246385   5.265   3.759   0.211  1.2784 -0.2854  2.1229
 8324TIP3   OH246386   0.733   4.042   3.104  0.0343  0.4692  0.1129
 8324TIP3    H146387   0.758   3.956   3.071 -0.5485  0.4263 -0.2231
 8324TIP3    H246388   0.784   4.052   3.185 -0.2399 -0.3873  0.4033
 8325TIP3   OH246389   3.983   2.176   0.292  0.3359 -0.3680 -0.0598
 8325TIP3    H146390   4.059   2.225   0.261 -0.7598  0.9858 -0.7433
 8325TIP3    H246391   3.973   2.104   0.231  0.9415 -0.4244 -0.0923
 8326TIP3   OH246392   4.912   6.650  14.560  0.0275  0.5145 -0.0308
 8326TIP3    H146393   4.844   6.691  14.506  2.4730  1.2475 -2.7819
 8326TIP3    H246394   4.939   6.719  14.621  0.4911  1.2996 -1.1052
 8327TIP3   OH246395   4.210   6.090   5.602 -0.3249  0.1986 -0.0796
 8327TIP3    H146396   4.220   6.171   5.553  0.2288 -0.0517 -0.3934
 8327TIP3    H246397   4.187   6.024   5.536  0.9148 -0.2419 -0.0954
 8328TIP3   OH246398   3.868   4.580   2.245  0.0540 -0.0943  0.1602
 8328TIP3    H146399   3.937   4.581   2.179  0.9693 -0.0351  1.0857
 8328TIP3    H246400   3.793   4.540   2.201  0.7534 -0.4058 -0.7866
 8329TIP3   OH246401   2.788   0.771   2.843 -0.0706  0.0441  0.2082
 8329TIP3    H146402   2.774   0.711   2.770  3.7598 -1.1361  0.2249
 8329TIP3    H246403   2.742   0.731   2.917  1.4713 -2.4162 -0.0539
 8330TIP3   OH246404   0.437   1.743  10.602 -0.3962 -0.2584  0.0341
 8330TIP3    H146405   0.499   1.672  10.583 -1.6820 -0.7961 -2.6955
 8330TIP3    H246406   0.357   1.698  10.629 -0.3034  0.3204  1.3069
 8331TIP3   OH246407   1.825   5.819  15.490  0.3288 -0.4039 -0.3416
 8331TIP3    H146408   1.859   5.850  15.574 -1.8920  1.4866 -0.0813
 8331TIP3    H246409   1.802   5.727  15.506 -1.6627  0.3724  1.6949
 8332TIP3   OH246410   4.463   3.974  15.388 -0.0321  0.2412  0.4335
 8332TIP3    H146411   4.467   3.890  15.433 -1.6704  0.0792  0.3382
 8332TIP3    H246412   4.515   4.033  15.443 -0.4332 -0.3924  1.5279
 8333TIP3   OH246413   2.129   0.098  16.679 -0.1534  0.7097 -0.3068
 8333TIP3    H146414   2.184   0.170  16.648  2.5306 -0.4954  1.2576
 8333TIP3    H246415   2.101   0.053  16.600  1.9164  0.8908 -1.2032
 8334TIP3   OH246416   4.483   2.759  17.053 -0.5567  0.0545 -0.4449
 8334TIP3    H146417   4.486   2.805  16.969  0.4200 -1.1229 -1.0869
 8334TIP3    H246418   4.474   2.829  17.118 -0.5480  1.0438 -1.4728
 8335TIP3   OH246419   1.210   3.697   1.483  0.2657 -0.0977 -0.2479
 8335TIP3    H146420   1.166   3.717   1.400 -2.7987 -0.1489  1.2311
 8335TIP3    H246421   1.187   3.606   1.501  0.7631 -0.0348  0.7609
 8336TIP3   OH246422   6.121   0.698   2.442 -0.1218  0.2061 -0.6710
 8336TIP3    H146423   6.092   0.610   2.465 -0.8849  0.4413 -0.7057
 8336TIP3    H246424   6.077   0.716   2.359  1.2438  0.0343 -1.4664
 8337TIP3   OH246425   0.963   2.671  12.745 -0.1484 -0.1414  0.0943
 8337TIP3    H146426   0.932   2.761  12.749  1.6321  0.5068  0.4743
 8337TIP3    H246427   0.992   2.659  12.654  0.5916  0.0347  0.3023
 8338TIP3   OH246428   5.664   2.822  12.484  0.0439  0.1299 -0.7951
 8338TIP3    H146429   5.581   2.776  12.498  0.7048 -0.9534 -0.3042
 8338TIP3    H246430   5.695   2.843  12.572 -0.0386  1.1663 -1.0022
 8339TIP3   OH246431   3.874   5.883   5.037 -0.0026 -0.0405 -0.3894
 8339TIP3    H146432   3.850   5.859   4.947  1.1951  0.3006 -0.8174
 8339TIP3    H246433   3.792   5.913   5.077 -0.0166  2.9472 -2.3751
 8340TIP3   OH246434   6.173   6.723  12.601  0.1003  0.2831 -0.0837
 8340TIP3    H146435   6.152   6.725  12.507  0.0255  0.6514 -0.0605
 8340TIP3    H246436   6.268   6.735  12.604  0.1528 -0.1342 -0.1320
 8341TIP3   OH246437   2.961   0.675   4.937  0.0389  0.3928  0.0897
 8341TIP3    H146438   2.997   0.755   4.974  0.2086  0.6348 -0.5880
 8341TIP3    H246439   3.020   0.606   4.966 -0.8363  0.2934  1.8024
 8342TIP3   OH246440   0.891   5.743  13.323 -0.0585 -0.0420 -0.0314
 8342TIP3    H146441   0.974   5.705  13.294  0.3790  0.0981  1.0070
 8342TIP3    H246442   0.847   5.768  13.242  0.1957 -1.5907 -0.6835
 8343TIP3   OH246443   0.745   3.609   4.564 -0.3389  0.5186  0.0656
 8343TIP3    H146444   0.770   3.538   4.622 -1.3075  0.4614  0.4432
 8343TIP3    H246445   0.816   3.673   4.572  1.2095 -0.9597 -1.3132
 8344TIP3   OH246446   3.226   2.427   4.005  0.1793  0.0116 -0.4484
 8344TIP3    H146447   3.205   2.353   3.948 -0.1722 -0.7546  0.6508
 8344TIP3    H246448   3.314   2.408   4.037  1.5263  1.7690 -2.7539
 8345TIP3   OH246449   3.046   6.322  11.639 -0.4003 -0.0788  0.3319
 8345TIP3    H146450   3.004   6.408  11.630 -0.6456 -0.1497  0.7789
 8345TIP3    H246451   3.114   6.322  11.572  1.0591  1.3213  1.7256
 8346TIP3   OH246452   4.437   2.098   0.293 -0.0575  0.1812  0.6509
 8346TIP3    H146453   4.524   2.058   0.301  0.6902  1.0085 -2.1122
 8346TIP3    H246454   4.396   2.052   0.220 -0.4839  2.1429 -0.4295
 8347TIP3   OH246455   2.293   2.696  11.747 -0.0512  0.0136 -0.4406
 8347TIP3    H146456   2.223   2.742  11.699 -0.1213  0.7433  0.3369
 8347TIP3    H246457   2.338   2.645  11.680 -1.3071 -0.4421 -0.9636
 8348TIP3   OH246458   2.229   5.267  14.417  0.0130 -0.2790 -0.2898
 8348TIP3    H146459   2.322   5.256  14.439  0.6557  0.8297 -2.2309
 8348TIP3    H246460   2.183   5.220  14.487  2.0658 -2.5286 -0.3015
 8349TIP3   OH246461   3.168   6.374  12.172 -0.3236 -0.0510 -0.4853
 8349TIP3    H146462   3.179   6.342  12.083  0.6015 -2.6467  0.4778
 8349TIP3    H246463   3.257   6.383  12.206 -0.6464 -1.5347  0.9119
 8350TIP3   OH246464   6.273   0.989  16.079  0.1208  0.0496  0.2439
 8350TIP3    H146465   6.243   1.020  15.994 -0.2982 -0.9470  0.0069
 8350TIP3    H246466   6.203   1.012  16.140 -1.9441 -3.4617 -0.5306
 8351TIP3   OH246467   6.330   3.717   3.852 -0.2764  0.8061  0.0510
 8351TIP3    H146468   6.273   3.681   3.784  0.2560 -0.7456  0.3884
 8351TIP3    H246469   6.310   3.664   3.930  0.8166  0.9958  0.4690
 8352TIP3   OH246470   4.915   5.906   2.455  0.1197 -0.2663 -0.0305
 8352TIP3    H146471   4.894   5.819   2.491 -1.6975  0.4596  0.7875
 8352TIP3    H246472   4.869   5.967   2.512 -2.1074  1.0349 -2.9463
 8353TIP3   OH246473   3.331   0.484   4.872  0.0817  0.5652  0.1037
 8353TIP3    H146474   3.415   0.450   4.901  0.7796  0.0373 -2.3074
 8353TIP3    H246475   3.344   0.503   4.779 -1.9201  2.2712  0.1194
 8354TIP3   OH246476   3.169   5.717  13.039 -0.0317  0.5522 -0.4671
 8354TIP3    H146477   3.132   5.640  12.996  1.7501 -0.4201 -0.3456
 8354TIP3    H246478   3.137   5.791  12.986 -0.5848 -0.3731 -1.4670
 8355TIP3   OH246479   3.269   5.476   1.486 -0.4684  0.0590  0.1098
 8355TIP3    H146480   3.290   5.554   1.434 -1.0742  0.2468  0.1379
 8355TIP3    H246481   3.294   5.402   1.430  2.0761  0.2254  0.8654
 8356TIP3   OH246482   0.406   2.328  16.520  0.2707  0.2027  0.4609
 8356TIP3    H146483   0.431   2.343  16.611 -3.4040 -0.5804  1.7731
 8356TIP3    H246484   0.455   2.250  16.494  1.4158  0.4570  1.7271
 8357TIP3   OH246485   2.381   6.504   4.102  0.5041 -0.5492  0.0240
 8357TIP3    H146486   2.377   6.522   4.008 -0.0982 -2.7794 -0.4475
 8357TIP3    H246487   2.473   6.483   4.118  0.4758 -0.8859 -0.2353
 8358TIP3   OH246488   0.636   0.672   5.340 -0.2450  0.3839  0.7948
 8358TIP3    H146489   0.699   0.646   5.272  0.5190  0.5974  1.4058
 8358TIP3    H246490   0.551   0.650   5.303  0.1471  0.6769 -0.3177
 8359TIP3   OH246491   3.136   4.222  15.625  0.2406 -0.0495 -0.4065
 8359TIP3    H146492   3.044   4.249  15.621 -0.5841 -2.7048 -1.6984
 8359TIP3    H246493   3.132   4.128  15.643  2.7290 -0.2081 -0.4133
 8360TIP3   OH246494   0.951   6.399   5.460  0.6417 -0.0019  0.2056
 8360TIP3    H146495   0.921   6.308   5.456 -0.0685  0.2407 -0.2786
 8360TIP3    H246496   0.870   6.450   5.471  1.2031  0.4511  2.6955
 8361TIP3   OH246497   5.797   1.550  10.970 -0.0895  0.2332  0.2874
 8361TIP3    H146498   5.867   1.605  10.936  0.9839 -1.3838 -0.2234
 8361TIP3    H246499   5.786   1.482  10.904 -1.7266  0.0791  0.6661
 8362TIP3   OH246500   4.227   5.131   5.018 -0.5039  0.1943  0.0135
 8362TIP3    H146501   4.211   5.225   5.028  1.3904  0.6665 -0.8095
 8362TIP3    H246502   4.303   5.126   4.960  0.9808 -1.7561  1.9343
 8363TIP3   OH246503   3.643   6.357  15.467 -0.6737 -0.0369 -0.6070
 8363TIP3    H146504   3.730   6.374  15.431  1.2016  0.0249  3.3249
 8363TIP3    H246505   3.584   6.411  15.415  2.0015  1.8185 -1.9818
 8364TIP3   OH246506   0.785   0.734  14.311 -0.1875  0.2153  0.3574
 8364TIP3    H146507   0.808   0.670  14.244 -0.4922 -0.2138  0.6599
 8364TIP3    H246508   0.858   0.796  14.312 -0.0948  0.1126 -0.2322
 8365TIP3   OH246509   4.442   6.716  12.744  0.2711 -0.5054  0.0168
 8365TIP3    H146510   4.387   6.773  12.798 -1.4040 -0.4638 -1.6713
 8365TIP3    H246511   4.502   6.776  12.700  0.2426 -0.3306  0.2111
 8366TIP3   OH246512   0.823   5.769   3.540  0.4877 -0.1142  0.4333
 8366TIP3    H146513   0.886   5.835   3.566  0.4750  0.1284 -0.1513
 8366TIP3    H246514   0.875   5.692   3.520  0.5636 -0.0419  0.3546
 8367TIP3   OH246515   5.550   4.847  14.125 -0.1725 -0.0919  0.1195
 8367TIP3    H146516   5.512   4.762  14.145 -0.7325  0.1981  0.3220
 8367TIP3    H246517   5.563   4.846  14.030  0.3945 -0.6306  0.2024
 8368TIP3   OH246518   0.437   4.846  13.915 -0.3244 -0.3503  0.1840
 8368TIP3    H146519   0.373   4.805  13.973  1.3884 -0.2356  2.2680
 8368TIP3    H246520   0.445   4.785  13.842  0.1584 -2.4755  1.8955
 8369TIP3   OH246521   3.814   3.686  16.767  0.4410 -0.2372  0.5009
 8369TIP3    H146522   3.821   3.729  16.682  1.7048 -2.6029 -0.6925
 8369TIP3    H246523   3.723   3.699  16.793 -0.5754 -1.0992 -2.2138
 8370TIP3   OH246524   4.471   4.133  12.160 -0.3407  0.1883 -0.4739
 8370TIP3    H146525   4.555   4.107  12.122 -0.1770  2.4276 -1.8096
 8370TIP3    H246526   4.492   4.209  12.215 -1.6320  1.6623 -1.9406
 8371TIP3   OH246527   3.163   5.537  15.440  0.5123  0.8604  0.7764
 8371TIP3    H146528   3.185   5.621  15.401  0.2145  1.6910  2.3240
 8371TIP3    H246529   3.194   5.543  15.530  0.1649 -0.5580  1.0175
 8372TIP3   OH246530   0.191   4.644  16.361  0.0998 -0.4700 -0.6859
 8372TIP3    H146531   0.276   4.624  16.399  0.9654  0.1513 -2.2216
 8372TIP3    H246532   0.158   4.559  16.330  0.6842 -0.5513 -1.1000
 8373TIP3   OH246533   5.126   3.007   2.180 -0.3725  0.6254 -0.0420
 8373TIP3    H146534   5.179   2.952   2.122 -1.5802  0.7795 -1.3634
 8373TIP3    H246535   5.056   2.949   2.209 -0.4835  0.8987  0.2382
 8374TIP3   OH246536   5.554   6.770  15.343  0.3029 -0.4668 -0.2305
 8374TIP3    H146537   5.600   6.744  15.423 -2.6690 -0.7920  1.5343
 8374TIP3    H246538   5.519   6.688  15.308 -0.6113 -0.0417 -0.3457
 8375TIP3   OH246539   3.533   0.864  16.439 -0.3539 -0.5156 -1.0118
 8375TIP3    H146540   3.492   0.906  16.515  0.2046 -1.0419 -0.4151
 8375TIP3    H246541   3.459   0.842  16.382 -0.7168  0.6773 -1.0439
 8376TIP3   OH246542   2.050   1.602  14.725  0.0010  0.1137 -0.4543
 8376TIP3    H146543   2.054   1.508  14.704 -1.4693 -0.0209 -0.2925
 8376TIP3    H246544   2.141   1.627  14.740  0.3525 -1.5374  0.5093
 8377TIP3   OH246545   4.421   0.819   5.782  0.6492 -0.2239  0.0712
 8377TIP3    H146546   4.352   0.840   5.845  1.1559 -1.4003  1.0779
 8377TIP3    H246547   4.412   0.725   5.768 -1.1164  0.3144 -3.7151
 8378TIP3   OH246548   2.115   4.288  10.926 -0.0647 -0.5890  0.5385
 8378TIP3    H146549   2.202   4.325  10.914 -0.4210  0.2229  0.3493
 8378TIP3    H246550   2.124   4.195  10.904  0.5007 -0.2720 -0.6013
 8379TIP3   OH246551   5.728   5.132   3.552  0.3797  0.2287 -0.0796
 8379TIP3    H146552   5.715   5.038   3.538 -0.5145  0.2880  0.2573
 8379TIP3    H246553   5.733   5.169   3.464 -0.6957  0.0403 -0.2303
 8380TIP3   OH246554   5.354   4.434  13.259  0.0504  0.1157 -0.2792
 8380TIP3    H146555   5.395   4.433  13.173 -1.4905  0.5257 -1.0664
 8380TIP3    H246556   5.371   4.523  13.292 -1.7774  0.9880 -1.4686
 8381TIP3   OH246557   3.038   5.430   5.016 -0.2521  0.2191 -0.1164
 8381TIP3    H146558   3.001   5.518   5.012  1.9972  1.1889 -0.7873
 8381TIP3    H246559   2.997   5.383   4.943 -1.4993  0.6750  0.2738
 8382TIP3   OH246560   4.261   2.958  12.544 -0.4846  0.1205  0.4072
 8382TIP3    H146561   4.285   3.045  12.578  0.7843 -0.2805  0.5673
 8382TIP3    H246562   4.295   2.897  12.609 -0.9711 -0.5216  0.0594
 8383TIP3   OH246563   2.191   6.031   3.002 -0.0414  0.1843  0.0863
 8383TIP3    H146564   2.225   5.970   2.937  0.4052  0.4996  0.0170
 8383TIP3    H246565   2.158   5.975   3.073 -0.8435 -0.1686 -0.5566
 8384TIP3   OH246566   5.979   2.746  10.931 -0.4159 -0.1499 -0.6482
 8384TIP3    H146567   6.029   2.688  10.874 -0.8267  0.0627 -1.2445
 8384TIP3    H246568   5.888   2.726  10.912 -0.5661  0.6883 -0.8784
 8385TIP3   OH246569   2.957   4.934  14.451 -0.3741 -0.5384  0.3820
 8385TIP3    H146570   2.936   4.918  14.543 -1.2789  0.6135  0.3940
 8385TIP3    H246571   2.953   5.029  14.442 -1.8016 -0.7049 -1.1915
 8386TIP3   OH246572   3.440   1.269  16.526 -0.0853  0.3344 -0.8208
 8386TIP3    H146573   3.410   1.332  16.461 -0.6511 -0.3208 -1.2201
 8386TIP3    H246574   3.533   1.289  16.538 -0.0657  0.7161 -1.5451
 8387TIP3   OH246575   1.978   3.608  14.783 -0.0143 -0.1174 -0.2613
 8387TIP3    H146576   1.905   3.624  14.843  0.1614  0.2883 -0.1476
 8387TIP3    H246577   1.990   3.514  14.784 -1.4777 -0.3494 -1.3972
 8388TIP3   OH246578   1.567   3.775   3.980  0.4102 -0.6094 -0.0217
 8388TIP3    H146579   1.519   3.791   4.061  0.3178 -3.1311  0.5286
 8388TIP3    H246580   1.563   3.857   3.932 -1.2345  0.3593  1.6621
 8389TIP3   OH246581   1.337   3.856   0.337 -0.7866 -0.1752  0.1028
 8389TIP3    H146582   1.300   3.785   0.284 -0.4761 -0.1798 -0.1131
 8389TIP3    H246583   1.405   3.813   0.389 -0.2444  0.0516 -0.4051
 8390TIP3   OH246584   6.556   1.983  12.685 -0.1757 -0.2442  0.2806
 8390TIP3    H146585   6.535   2.021  12.770 -0.5891  0.9984 -0.3618
 8390TIP3    H246586   6.530   1.891  12.693 -2.0040  0.2964  0.8765
 8391TIP3   OH246587   3.468   3.485   5.093  0.1778  0.0936  0.1005
 8391TIP3    H146588   3.420   3.454   5.016  1.2693 -0.0894 -0.5352
 8391TIP3    H246589   3.400   3.510   5.156 -0.7763  1.6383 -1.4621
 8392TIP3   OH246590   1.019   1.182   5.015 -0.0523  0.2864 -0.4266
 8392TIP3    H146591   1.102   1.142   4.992  1.3418  3.0048 -0.5312
 8392TIP3    H246592   0.953   1.118   4.989  1.9470 -1.6086 -1.0945
 8393TIP3   OH246593   3.947   2.406   2.650  0.3490 -0.1034 -0.3609
 8393TIP3    H146594   3.962   2.379   2.741  1.1677 -1.4663 -0.8638
 8393TIP3    H246595   3.956   2.502   2.651 -2.7541  0.2755  1.5257
 8394TIP3   OH246596   0.793   3.226  14.647  0.1553 -0.3351 -0.1270
 8394TIP3    H146597   0.816   3.134  14.635  1.1086 -0.0868 -0.2889
 8394TIP3    H246598   0.753   3.230  14.734  0.3983 -0.8479  0.0094
 8395TIP3   OH246599   0.352   0.258   5.147 -0.3932  0.0677  0.3621
 8395TIP3    H146600   0.346   0.274   5.053 -0.2548 -0.2842  0.2918
 8395TIP3    H246601   0.439   0.290   5.172  0.3599 -1.6188  0.0043
 8396TIP3   OH246602   5.569   0.267  16.421 -0.3467 -0.4106 -0.3393
 8396TIP3    H146603   5.539   0.223  16.500  0.6727  1.4519  1.1422
 8396TIP3    H246604   5.663   0.279  16.434  0.0053 -0.7581 -2.2116
 8397TIP3   OH246605   4.726   4.445   5.076 -0.0554 -0.0877  0.1399
 8397TIP3    H146606   4.804   4.485   5.115  0.4491 -1.6132  0.7733
 8397TIP3    H246607   4.755   4.359   5.045 -0.2030  1.2849 -4.5357
 8398TIP3   OH246608   2.834   2.766   0.465  0.0809  0.1615 -0.8277
 8398TIP3    H146609   2.900   2.832   0.489  1.1900 -1.7481  1.8219
 8398TIP3    H246610   2.883   2.684   0.462 -2.0646 -1.2605  0.7784
 8399TIP3   OH246611   0.416   3.951  16.499  0.7858  0.3024 -0.8480
 8399TIP3    H146612   0.449   4.033  16.461  1.4404  0.3225 -0.2477
 8399TIP3    H246613   0.440   3.884  16.436  1.0915  0.4522 -0.8921
 8400TIP3   OH246614   2.631   4.220   1.445  0.4563  0.1751 -0.3784
 8400TIP3    H146615   2.693   4.169   1.497  1.3842  0.4985 -1.1347
 8400TIP3    H246616   2.547   4.211   1.491  1.0733 -0.2143  0.7011
 8401TIP3   OH246617   2.334   1.032   4.186 -0.2566  0.4449  0.3456
 8401TIP3    H146618   2.293   1.012   4.270  0.4731  0.8076  0.7974
 8401TIP3    H246619   2.280   1.102   4.149 -1.1624 -0.3919  0.0446
 8402TIP3   OH246620   4.976   5.055   0.276  0.3134 -0.3336 -0.0692
 8402TIP3    H146621   5.048   5.093   0.327  0.8937 -1.1268 -0.2769
 8402TIP3    H246622   4.925   5.131   0.246  1.1120  0.2461  0.0072
 8403TIP3   OH246623   1.078   2.593  15.793  0.0267 -0.0713 -0.6958
 8403TIP3    H146624   1.154   2.535  15.803 -0.5650 -1.0586 -1.7033
 8403TIP3    H246625   1.101   2.651  15.721  0.8346  1.3488  0.6551
 8404TIP3   OH246626   3.429   1.056   2.546  0.3674  0.1685 -0.0134
 8404TIP3    H146627   3.433   0.987   2.612  1.5962  1.0021  0.8459
 8404TIP3    H246628   3.506   1.110   2.564 -0.0594  1.2361 -1.2411
 8405TIP3   OH246629   5.454   4.384   0.078 -0.2554  0.1215  0.3579
 8405TIP3    H146630   5.446   4.443   0.153 -0.6318 -0.3876  0.7229
 8405TIP3    H246631   5.540   4.343   0.089 -1.5484 -2.2711  2.2438
 8406TIP3   OH246632   3.462   5.453  12.885 -0.2047  0.2591  0.3008
 8406TIP3    H146633   3.403   5.474  12.958  0.0877 -0.8589  0.8816
 8406TIP3    H246634   3.512   5.533  12.871 -2.2147  1.4292 -0.5824
 8407TIP3   OH246635   0.113   3.503  15.768 -0.4689 -0.1478 -0.2998
 8407TIP3    H146636   0.097   3.569  15.701 -0.2640  0.3069  0.0928
 8407TIP3    H246637   0.047   3.521  15.835  0.2505  0.3258  0.2922
 8408TIP3   OH246638   5.480   3.062  11.193  0.2653  0.5396 -0.8557
 8408TIP3    H146639   5.448   3.082  11.105 -0.4848  2.2690 -0.2459
 8408TIP3    H246640   5.440   2.978  11.215 -0.4914  0.6622 -1.7146
 8409TIP3   OH246641   1.235   2.358   3.656 -0.5643  1.1152 -0.0344
 8409TIP3    H146642   1.204   2.362   3.747 -2.1866  0.1056 -0.4990
 8409TIP3    H246643   1.229   2.448   3.625 -2.0447  1.1312  0.2438
 8410TIP3   OH246644   0.181   6.304   2.753  0.1692 -0.0249  0.2546
 8410TIP3    H146645   0.248   6.261   2.701 -0.6452 -0.6814 -0.2759
 8410TIP3    H246646   0.155   6.380   2.700  1.8366  1.3756  1.3361
 8411TIP3   OH246647   4.009   2.641  16.054  0.5429  0.0873  0.2718
 8411TIP3    H146648   4.074   2.616  15.988  0.8568 -0.1550  0.6614
 8411TIP3    H246649   3.951   2.565  16.060  1.8694 -0.8740  1.9130
 8412TIP3   OH246650   3.156   6.338   5.504 -0.1442  0.1882  0.5741
 8412TIP3    H146651   3.078   6.385   5.476  1.8065  2.4125 -1.6368
 8412TIP3    H246652   3.206   6.402   5.555  0.7812 -0.7902  0.9478
 8413TIP3   OH246653   0.095   4.085   5.914 -0.0424 -0.2722  0.3273
 8413TIP3    H146654   0.190   4.087   5.925  0.0639 -1.2566 -0.2448
 8413TIP3    H246655   0.074   3.992   5.900 -1.1063 -0.0912  0.5741
 8414TIP3   OH246656   2.929   5.933  12.044  0.3977 -0.6638 -0.3220
 8414TIP3    H146657   2.877   6.011  12.026  0.0166 -0.8864 -0.1956
 8414TIP3    H246658   2.888   5.893  12.121  2.0170  0.2852  1.1027
 8415TIP3   OH246659   5.687   1.103  14.501  0.0092 -0.3141 -0.1269
 8415TIP3    H146660   5.778   1.072  14.505 -0.0415 -0.3085  1.5957
 8415TIP3    H246661   5.635   1.031  14.536 -0.7909 -0.6598 -1.8814
 8416TIP3   OH246662   1.528   3.996   3.858 -0.0083  0.3238  0.1621
 8416TIP3    H146663   1.518   4.091   3.857 -0.0860  0.3228  0.6218
 8416TIP3    H246664   1.502   3.968   3.770 -1.0853  0.6196  0.3710
 8417TIP3   OH246665   0.617   5.378   3.146  0.3125  0.4298 -0.0993
 8417TIP3    H146666   0.672   5.311   3.187  0.3490  1.2276  1.2146
 8417TIP3    H246667   0.589   5.433   3.219 -0.2887  1.4309 -1.0659
 8418TIP3   OH246668   6.287   5.791  11.311 -0.0959 -0.3424 -0.0458
 8418TIP3    H146669   6.311   5.829  11.227  0.9407 -2.0851 -0.5867
 8418TIP3    H246670   6.283   5.866  11.371 -0.1441  0.8388 -1.4733
 8419TIP3   OH246671   2.566   3.964   2.053  0.5200  0.2756  0.3109
 8419TIP3    H146672   2.491   4.011   2.091  1.0770  0.4956  1.1501
 8419TIP3    H246673   2.642   4.001   2.097  1.0518 -0.6523  0.1942
 8420TIP3   OH246674   2.442   0.513  11.483 -0.4561  0.0149  0.2192
 8420TIP3    H146675   2.499   0.482  11.553 -0.9094 -1.3119  0.0314
 8420TIP3    H246676   2.502   0.547  11.417 -0.0581  2.5198  1.7356
 8421TIP3   OH246677   3.363   6.417   6.766 -0.0912  0.0928 -0.0760
 8421TIP3    H146678   3.306   6.354   6.723 -0.0303  0.1176 -0.1946
 8421TIP3    H246679   3.441   6.366   6.789  0.5651  0.4329 -1.4431
 8422TIP3   OH246680   5.569   0.701   4.486  0.0326 -0.4123  0.6042
 8422TIP3    H146681   5.626   0.777   4.493 -0.6598  0.4297 -1.7446
 8422TIP3    H246682   5.491   0.724   4.538 -0.1661  0.5097 -0.0780
 8423TIP3   OH246683   0.237   3.557   2.883 -0.4350  0.4053  0.6964
 8423TIP3    H146684   0.195   3.575   2.799 -0.4097 -1.8697  0.1115
 8423TIP3    H246685   0.202   3.472   2.909  0.5029  0.4941  2.3839
 8424TIP3   OH246686   6.386   2.085   2.930  0.6670  0.5393  0.5063
 8424TIP3    H146687   6.316   2.041   2.978  1.9428 -1.7509  0.4333
 8424TIP3    H246688   6.341   2.150   2.876 -1.3060 -0.2922  1.0418
 8425TIP3   OH246689   3.568   5.339  14.340 -0.3193 -1.0052 -0.1875
 8425TIP3    H146690   3.497   5.322  14.280 -1.4518 -0.3645  0.9248
 8425TIP3    H246691   3.548   5.285  14.417 -0.0672 -0.1971  0.4648
 8426TIP3   OH246692   0.187   6.463  16.859 -0.5647 -0.2332  0.0579
 8426TIP3    H146693   0.259   6.403  16.881 -1.5940 -0.9847  1.5659
 8426TIP3    H246694   0.184   6.462  16.763 -0.0103 -1.9807  0.0087
 8427TIP3   OH246695   0.202   3.351  15.221  0.0638  0.2037 -0.2923
 8427TIP3    H146696   0.215   3.257  15.213 -0.2549  0.2107 -0.9840
 8427TIP3    H246697   0.228   3.372  15.310 -1.4908 -0.8182  0.4394
 8428TIP3   OH246698   0.488   4.637   3.196 -0.6712  0.2044 -0.6509
 8428TIP3    H146699   0.573   4.604   3.227 -0.2024  0.1323 -1.9389
 8428TIP3    H246700   0.504   4.729   3.176 -0.8072  0.1216 -1.1624
 8429TIP3   OH246701   0.185   0.512  14.800 -0.4036 -0.2464  0.0618
 8429TIP3    H146702   0.198   0.427  14.841 -0.8471  0.3275  1.4654
 8429TIP3    H246703   0.136   0.563  14.865  0.9120  1.4743 -0.2274
 8430TIP3   OH246704   2.783   5.169  10.932  0.6865 -0.7042  0.5360
 8430TIP3    H146705   2.867   5.127  10.915  1.9720  2.2977 -1.3407
 8430TIP3    H246706   2.746   5.184  10.845 -1.6333 -1.4967  1.3159
 8431TIP3   OH246707   4.143   5.960  13.605 -0.2960 -0.5970 -0.1538
 8431TIP3    H146708   4.149   5.864  13.606  0.8278 -0.5397 -0.4882
 8431TIP3    H246709   4.161   5.986  13.696  2.0863 -0.5917 -0.5623
 8432TIP3   OH246710   3.862   6.333  12.033 -0.3637 -0.4162 -0.3528
 8432TIP3    H146711   3.862   6.376  11.947 -0.2574 -1.5042 -0.9266
 8432TIP3    H246712   3.855   6.240  12.012  0.1715 -0.7354  0.8112
 8433TIP3   OH246713   2.933   3.219  14.693  0.4840 -0.5642 -0.3934
 8433TIP3    H146714   2.960   3.135  14.655  1.6435 -0.5965  0.4410
 8433TIP3    H246715   3.015   3.267  14.705 -0.0531  0.2059  0.2741
 8434TIP3   OH246716   1.545   2.205  14.090 -0.1868  0.1082  0.4967
 8434TIP3    H146717   1.610   2.267  14.056 -1.0018  0.2141 -1.0006
 8434TIP3    H246718   1.549   2.131  14.030 -0.2077 -0.6725  1.4452
 8435TIP3   OH246719   2.533   3.094   5.979  0.4404  0.3435  0.1637
 8435TIP3    H146720   2.505   3.143   6.057  0.8121 -1.5728  1.5772
 8435TIP3    H246721   2.524   3.002   6.004 -2.5329 -0.4938 -3.2012
 8436TIP3   OH246722   2.341   0.345   1.082  0.5073  0.2902 -0.1113
 8436TIP3    H146723   2.319   0.382   1.168 -0.4244 -1.3674  0.4144
 8436TIP3    H246724   2.435   0.327   1.088  0.0190 -2.1518  1.5779
 8437TIP3   OH246725   2.251   1.374   1.449  0.3302  0.5695  0.3206
 8437TIP3    H146726   2.221   1.399   1.536 -1.4797  0.2281 -0.1624
 8437TIP3    H246727   2.274   1.282   1.456 -0.8663  0.2508  0.2008
 8438TIP3   OH246728   2.401   4.683  12.599  0.1266 -0.0570  0.2849
 8438TIP3    H146729   2.495   4.693  12.614  0.3662  1.0455 -1.6969
 8438TIP3    H246730   2.387   4.588  12.600  1.0602 -0.2103  1.5396
 8439TIP3   OH246731   3.272   3.198   0.944 -0.7906  0.0399  0.4820
 8439TIP3    H146732   3.349   3.254   0.941 -0.3111 -0.6372 -0.1327
 8439TIP3    H246733   3.302   3.118   0.988 -0.8984 -0.5773 -0.5401
 8440TIP3   OH246734   3.173   3.333   3.015  0.0861 -0.3752  0.1761
 8440TIP3    H146735   3.178   3.424   3.044 -1.9472 -0.8040  2.0890
 8440TIP3    H246736   3.263   3.301   3.023  0.6127  1.1112  0.6152
 8441TIP3   OH246737   5.672   6.306  12.362  0.0471 -0.1451  0.1191
 8441TIP3    H146738   5.690   6.359  12.284  1.1964  0.7244  0.9380
 8441TIP3    H246739   5.579   6.285  12.355  0.2109 -0.4742 -1.7052
 8442TIP3   OH246740   4.748   6.517  16.891  0.0808 -0.3139  0.3121
 8442TIP3    H146741   4.774   6.583  16.826 -0.5637 -1.0665 -0.7392
 8442TIP3    H246742   4.815   6.450  16.884  0.9189  0.3503  1.6163
 8443TIP3   OH246743   2.981   1.525   2.245  0.2216 -0.7336 -0.1399
 8443TIP3    H146744   3.047   1.521   2.314  0.2925  0.5364 -0.1122
 8443TIP3    H246745   2.919   1.591   2.276  0.7373  0.5285 -1.6823
 8444TIP3   OH246746   5.671   2.594  15.566  0.1376 -0.6425 -0.1909
 8444TIP3    H146747   5.751   2.552  15.534 -0.0201 -0.1114 -1.3282
 8444TIP3    H246748   5.622   2.523  15.606  0.4260 -1.3173 -0.9900
 8445TIP3   OH246749   0.354   2.847  11.562  0.1076 -0.2330  0.6658
 8445TIP3    H146750   0.319   2.794  11.633  1.9574 -1.5498  0.6768
 8445TIP3    H246751   0.433   2.887  11.599 -0.7900  1.9420  0.3972
 8446TIP3   OH246752   2.582   0.860   3.252 -0.2611  0.0533 -0.3586
 8446TIP3    H146753   2.580   0.937   3.308  1.1273 -1.9568  2.7204
 8446TIP3    H246754   2.491   0.843   3.230 -0.8732  0.8550  1.4309
 8447TIP3   OH246755   2.187   4.412  16.475 -0.0963  0.1896 -0.1076
 8447TIP3    H146756   2.254   4.432  16.409  0.5654 -1.7248 -0.0777
 8447TIP3    H246757   2.107   4.451  16.440  0.8564  1.9501 -0.4697
 8448TIP3   OH246758   0.631   5.628   0.681  0.6067  0.2333 -0.3777
 8448TIP3    H146759   0.652   5.587   0.598 -0.2220  0.3040 -0.6330
 8448TIP3    H246760   0.716   5.649   0.720  1.1955 -3.3625  0.6274
 8449TIP3   OH246761   1.204   6.270   5.756 -0.7558 -0.3763 -0.7038
 8449TIP3    H146762   1.115   6.261   5.791 -0.6540  3.2241  0.9169
 8449TIP3    H246763   1.261   6.260   5.832  0.4197 -3.3612 -1.8372
 8450TIP3   OH246764   1.850   3.092   2.381 -0.1628  0.3238 -0.9301
 8450TIP3    H146765   1.785   3.062   2.318 -0.5149 -0.8126 -0.0480
 8450TIP3    H246766   1.845   3.029   2.453 -1.0472  2.5511  1.1003
 8451TIP3   OH246767   1.658   6.239   2.285 -0.5216 -0.0605  0.1088
 8451TIP3    H146768   1.691   6.219   2.373 -1.7849  0.7324  0.7953
 8451TIP3    H246769   1.586   6.300   2.300 -0.0010  1.0414 -1.5655
 8452TIP3   OH246770   4.781   5.144   4.829 -0.3906 -1.0833 -0.3653
 8452TIP3    H146771   4.857   5.105   4.873 -1.0441  0.7316  2.6591
 8452TIP3    H246772   4.728   5.069   4.802  1.5794 -2.3442 -0.9560
 8453TIP3   OH246773   6.013   5.940   1.174  0.7498  0.2412 -0.2821
 8453TIP3    H146774   6.077   6.005   1.202  1.3163 -0.3204 -0.2620
 8453TIP3    H246775   6.061   5.858   1.171 -0.1040 -0.2985  0.3031
 8454TIP3   OH246776   6.096   6.549  15.856  0.3282 -0.7257 -0.0656
 8454TIP3    H146777   6.145   6.583  15.931 -0.0013 -0.5413  0.0705
 8454TIP3    H246778   6.082   6.457  15.877 -0.7676 -0.4172  0.6632
 8455TIP3   OH246779   5.657   4.920   0.540  0.2264 -0.7616  0.5731
 8455TIP3    H146780   5.693   4.856   0.601  0.0182 -1.1840  0.2597
 8455TIP3    H246781   5.563   4.908   0.545  0.0912  0.5522  1.6187
 8456TIP3   OH246782   6.030   5.202   1.834 -0.2874 -0.1162  0.4625
 8456TIP3    H146783   5.975   5.264   1.785 -0.8555 -0.6533  0.4022
 8456TIP3    H246784   6.060   5.139   1.768  0.0059 -0.1063  0.5837
 8457TIP3   OH246785   4.212   2.979  13.221  0.2162  0.1447 -0.3671
 8457TIP3    H146786   4.191   2.927  13.298 -0.3118  0.6835 -0.1408
 8457TIP3    H246787   4.306   2.994  13.227  0.2956 -0.3945 -0.1985
 8458TIP3   OH246788   0.536   1.088   1.521  0.2337 -0.6240 -0.9698
 8458TIP3    H146789   0.538   1.179   1.550  0.4794 -0.5187 -1.2986
 8458TIP3    H246790   0.455   1.052   1.556 -0.4077  0.0356 -1.7439
 8459TIP3   OH246791   5.079   5.493   6.059  0.1732  0.0433  0.0861
 8459TIP3    H146792   5.017   5.530   6.122  0.1469 -0.6224  0.4614
 8459TIP3    H246793   5.036   5.413   6.028  0.1664  0.3928 -0.8159
 8460TIP3   OH246794   3.428   3.857   1.095 -0.0949  0.7651 -0.0269
 8460TIP3    H146795   3.368   3.835   1.165  0.0840  1.2618  0.2847
 8460TIP3    H246796   3.387   3.823   1.016 -1.2855  1.9912  0.0310
 8461TIP3   OH246797   5.324   0.396   2.801 -0.2490  0.1328 -0.4361
 8461TIP3    H146798   5.252   0.458   2.789  0.0692  0.8838  1.1355
 8461TIP3    H246799   5.402   0.447   2.779 -0.0908 -0.2103 -0.6711
 8462TIP3   OH246800   3.229   6.523  16.439  0.5161  0.5189 -0.0340
 8462TIP3    H146801   3.160   6.588  16.452  2.6284  2.6107  1.5090
 8462TIP3    H246802   3.185   6.438  16.448 -1.2890  1.6573  5.1615
 8463TIP3   OH246803   2.174   4.258  12.596 -0.7153 -0.1447  0.3954
 8463TIP3    H146804   2.251   4.303  12.630 -0.1781 -1.0312  0.3742
 8463TIP3    H246805   2.125   4.326  12.549  1.0003  0.0727 -1.2286
 8464TIP3   OH246806   5.088   6.736   2.973  0.0164 -0.5397 -0.0829
 8464TIP3    H146807   5.100   6.828   2.997  0.6889 -1.1465  2.0751
 8464TIP3    H246808   4.993   6.726   2.966 -0.0220  0.5941 -1.6351
 8465TIP3   OH246809   0.277   0.053   5.751 -0.4422 -0.7759 -0.1964
 8465TIP3    H146810   0.244   0.139   5.777 -0.9227 -0.1726 -2.5152
 8465TIP3    H246811   0.364   0.047   5.792  0.0761  1.3219 -0.8342
 8466TIP3   OH246812   0.421   5.703   6.572  0.4563  0.1114  0.0713
 8466TIP3    H146813   0.501   5.692   6.623 -0.8530 -0.4298  2.1670
 8466TIP3    H246814   0.367   5.627   6.596 -0.7833  0.5708 -1.0990
 8467TIP3   OH246815   0.185   6.548  15.459 -0.4120 -0.0618 -0.3495
 8467TIP3    H146816   0.166   6.497  15.380  0.0550  0.3142 -0.7086
 8467TIP3    H246817   0.238   6.489  15.512  0.4922  0.1862 -0.9550
 8468TIP3   OH246818   3.694   5.353  11.411  0.4191  0.0809  0.2384
 8468TIP3    H146819   3.780   5.395  11.406  1.5320 -1.7285  2.2259
 8468TIP3    H246820   3.697   5.284  11.346  0.1533  0.5004 -0.2249
 8469TIP3   OH246821   5.025   1.591   1.661  1.0118  0.2077  0.3259
 8469TIP3    H146822   5.101   1.642   1.689 -0.2722  1.5344  1.5680
 8469TIP3    H246823   5.013   1.527   1.731  0.4740  0.5699  0.5664
 8470TIP3   OH246824   5.481   1.709  11.688 -0.6816 -0.1730  0.0129
 8470TIP3    H146825   5.548   1.700  11.756  0.0510 -1.2622 -0.8193
 8470TIP3    H246826   5.505   1.789  11.641 -1.5106  0.9007  1.3342
 8471TIP3   OH246827   4.705   3.210  14.527 -0.3317 -0.0525 -0.1622
 8471TIP3    H146828   4.755   3.152  14.470 -0.2291  0.5262 -0.6646
 8471TIP3    H246829   4.771   3.266  14.569 -0.1928 -1.7277  2.0282
 8472TIP3   OH246830   4.674   0.439  14.032 -0.1617 -0.0044 -0.5052
 8472TIP3    H146831   4.766   0.433  14.055 -0.2561 -1.2654 -0.3509
 8472TIP3    H246832   4.648   0.348  14.016 -1.2149  0.3958 -1.1775
 8473TIP3   OH246833   6.761   0.057  10.713 -0.0024  0.3910 -0.5151
 8473TIP3    H146834   6.692   0.023  10.656  1.2981  0.1371 -2.0280
 8473TIP3    H246835   6.801  -0.021  10.751 -1.0651  0.5732  1.0544
 8474TIP3   OH246836   4.336   1.511   1.798  0.0087  0.0886  0.5001
 8474TIP3    H146837   4.404   1.520   1.732  0.0708 -0.9770  0.4056
 8474TIP3    H246838   4.363   1.436   1.851  0.1010  1.0622  1.9140
 8475TIP3   OH246839   6.387   4.747   0.891  0.0681  0.1213 -0.1131
 8475TIP3    H146840   6.428   4.757   0.977 -0.7340  0.8473  0.1965
 8475TIP3    H246841   6.424   4.817   0.838  0.1594 -0.0003 -0.2137
 8476TIP3   OH246842   4.122   2.491   0.294 -0.5361  0.1094  0.8643
 8476TIP3    H146843   4.032   2.501   0.263 -0.0061  0.3805 -0.6639
 8476TIP3    H246844   4.159   2.422   0.239  0.5232  0.7862  0.6834
 8477TIP3   OH246845   2.858   6.366  16.052  0.0040 -0.1822  0.4915
 8477TIP3    H146846   2.865   6.442  16.110 -0.9940  0.9960 -0.8446
 8477TIP3    H246847   2.936   6.370  15.998  0.7799 -1.1014  1.5085
 8478TIP3   OH246848   2.972   6.689   1.047 -0.2007 -0.0888 -0.6365
 8478TIP3    H146849   3.018   6.731   1.120 -0.4751  0.8686 -1.0032
 8478TIP3    H246850   2.879   6.699   1.068 -0.2742 -0.4461 -0.7774
 8479TIP3   OH246851   5.297   3.443  14.564 -0.1571  0.2182  0.0773
 8479TIP3    H146852   5.274   3.499  14.638 -1.1298 -0.9359  0.6915
 8479TIP3    H246853   5.277   3.495  14.487  0.6714  1.3643  0.6097
 8480TIP3   OH246854   3.956   0.824   4.746 -0.2472 -0.4449  0.5152
 8480TIP3    H146855   3.879   0.779   4.711  0.1728 -0.9479  0.2391
 8480TIP3    H246856   3.925   0.861   4.829 -0.9966  0.0076  0.0529
 8481TIP3   OH246857   4.604   0.160  14.015  0.0466  0.1477  0.7842
 8481TIP3    H146858   4.579   0.122  13.931  1.0471 -0.7895  0.8816
 8481TIP3    H246859   4.536   0.132  14.076  0.7777 -1.6238  0.8671
 8482TIP3   OH246860   3.180   5.100   2.848 -0.2098  0.2834 -0.0405
 8482TIP3    H146861   3.207   5.014   2.816  0.7016 -0.4821  2.5792
 8482TIP3    H246862   3.085   5.102   2.833  0.1445  0.1401 -2.8824
 8483TIP3   OH246863   5.137   3.420  15.485  0.1723 -0.1071 -0.1338
 8483TIP3    H146864   5.081   3.498  15.488  0.3476  0.0174 -0.1155
 8483TIP3    H246865   5.075   3.347  15.483 -0.0598 -0.1004  2.5957
 8484TIP3   OH246866   0.118   2.105  11.668 -0.0166 -0.0993 -0.1382
 8484TIP3    H146867   0.082   2.019  11.687  0.3235 -0.0612  0.7209
 8484TIP3    H246868   0.176   2.091  11.593 -0.0853 -0.5802 -0.1034
 8485TIP3   OH246869   6.459   3.814   2.382 -0.0508  0.0074  0.1514
 8485TIP3    H146870   6.448   3.766   2.463 -0.1705  2.8001  1.9264
 8485TIP3    H246871   6.553   3.834   2.378 -0.1091  0.2335 -0.1750
 8486TIP3   OH246872   2.867   6.073  15.780 -0.1478 -0.1573  0.4084
 8486TIP3    H146873   2.775   6.090  15.803  0.2583  1.7450  0.8052
 8486TIP3    H246874   2.891   6.146  15.723  0.7001 -1.4565 -0.9677
 8487TIP3   OH246875   2.558   5.545   5.514 -0.3995 -0.0863 -0.6083
 8487TIP3    H146876   2.523   5.571   5.428  0.4722 -0.1784 -1.0058
 8487TIP3    H246877   2.526   5.611   5.574 -1.7060 -0.4746 -0.8558
 8488TIP3   OH246878   1.845   2.276  12.533  0.1147  0.1618  0.8325
 8488TIP3    H146879   1.863   2.183  12.525 -3.4176 -0.7353  1.3981
 8488TIP3    H246880   1.771   2.291  12.473  1.7109  3.0622 -0.6333
 8489TIP3   OH246881   6.658   1.109   4.996 -0.5446  0.5071 -0.4576
 8489TIP3    H146882   6.591   1.044   5.017  0.9251 -0.9745 -0.1150
 8489TIP3    H246883   6.716   1.108   5.072 -0.5809  2.3905 -0.3736
 8490TIP3   OH246884   4.894   4.873  14.926 -0.2760 -0.3066  0.4176
 8490TIP3    H146885   4.823   4.923  14.886  0.4441 -1.4113 -2.4356
 8490TIP3    H246886   4.963   4.938  14.942 -0.5037  0.1287 -0.3361
 8491TIP3   OH246887   1.502   5.486  12.747 -0.1700  0.1949 -0.1324
 8491TIP3    H146888   1.411   5.511  12.729 -0.4283 -1.0657 -0.6464
 8491TIP3    H246889   1.510   5.397  12.713  1.6903  0.8294 -1.5096
 8492TIP3   OH246890   3.840   2.213  14.726  0.0535  0.5958 -0.0922
 8492TIP3    H146891   3.912   2.184  14.782 -0.9599  0.5323  1.2298
 8492TIP3    H246892   3.762   2.207  14.782 -0.8519  1.5199 -1.2021
 8493TIP3   OH246893   0.853   0.954  16.759 -0.3571 -0.9755 -0.1025
 8493TIP3    H146894   0.947   0.959  16.743 -0.4696 -0.2568 -0.5802
 8493TIP3    H246895   0.844   0.884  16.824  0.4928 -1.1120 -0.1122
 8494TIP3   OH246896   1.025   3.424   0.043  0.8318 -0.2952 -0.3112
 8494TIP3    H146897   1.005   3.435  -0.050  0.3798 -2.5728 -0.5492
 8494TIP3    H246898   0.957   3.473   0.089  0.4289 -0.0367 -1.1752
 8495TIP3   OH246899   4.310   5.404   4.032  0.3694 -0.1180 -0.3391
 8495TIP3    H146900   4.272   5.329   4.077 -0.5450  0.6630  0.2299
 8495TIP3    H246901   4.253   5.419   3.957 -0.1848  0.7581  0.2423
 8496TIP3   OH246902   2.115   2.518   4.632  0.2496 -0.3200  0.4337
 8496TIP3    H146903   2.079   2.438   4.592 -0.8660  0.1384  0.4758
 8496TIP3    H246904   2.110   2.501   4.726  1.9613 -1.0106  0.4239
 8497TIP3   OH246905   1.877   6.525   2.732 -0.6054  0.3563  0.0090
 8497TIP3    H146906   1.795   6.541   2.686 -0.1832  0.6884 -0.6450
 8497TIP3    H246907   1.921   6.458   2.681  0.0182  0.9675 -0.2763
 8498TIP3   OH246908   4.766   3.940   2.580  0.2674 -0.0516 -0.4169
 8498TIP3    H146909   4.856   3.942   2.549  0.8941 -1.8586  1.0704
 8498TIP3    H246910   4.773   3.952   2.675 -1.3200  2.4965 -0.5173
 8499TIP3   OH246911   4.121   0.482   1.793 -0.0258 -0.6718  0.1049
 8499TIP3    H146912   4.128   0.562   1.844  1.2209 -0.9688  0.4381
 8499TIP3    H246913   4.203   0.478   1.743  0.1464 -1.9743  0.4562
 8500TIP3   OH246914   4.283   5.044  16.236  0.5622  0.2955 -0.1974
 8500TIP3    H146915   4.286   5.045  16.141  0.1573 -2.7451 -0.3275
 8500TIP3    H246916   4.354   4.986  16.262 -0.1888 -0.0266  1.2720
 8501TIP3   OH246917   3.280   5.757  12.711 -0.4260  0.0569  0.5802
 8501TIP3    H146918   3.350   5.749  12.647 -0.8209  1.4270 -0.0566
 8501TIP3    H246919   3.323   5.743  12.795  0.4877  0.2629  0.1628
 8502TIP3   OH246920   0.354   2.676   3.864  0.9367  0.4046 -0.3425
 8502TIP3    H146921   0.387   2.644   3.781  0.4497  2.1783 -1.2536
 8502TIP3    H246922   0.320   2.763   3.845 -0.0262  0.4884  1.5188
 8503TIP3   OH246923   6.264   3.353   2.003 -0.1058  0.5220 -0.0408
 8503TIP3    H146924   6.194   3.414   2.025 -0.2001  0.4847 -0.2394
 8503TIP3    H246925   6.257   3.340   1.909 -2.3922 -2.5996  0.3837
 8504TIP3   OH246926   3.995   5.972  13.379  0.2347 -0.5736 -0.4038
 8504TIP3    H146927   4.021   5.903  13.318  0.4736 -0.6214 -0.2511
 8504TIP3    H246928   4.054   5.961  13.454  1.1002  0.5593 -0.8877
 8505TIP3   OH246929   1.513   4.271   3.851 -0.0119  0.2034  0.0577
 8505TIP3    H146930   1.506   4.347   3.909  0.0728  0.5919 -0.4363
 8505TIP3    H246931   1.491   4.305   3.764  1.6155  0.0326 -0.4454
 8506TIP3   OH246932   2.955   5.286   4.506  0.3566  0.3040 -0.4556
 8506TIP3    H146933   2.913   5.372   4.513 -0.4791 -0.0862 -0.5277
 8506TIP3    H246934   2.892   5.226   4.547  0.6619 -0.3580 -0.9457
 8507TIP3   OH246935   4.193   3.907   2.753  0.2564 -0.2364 -0.2276
 8507TIP3    H146936   4.226   3.995   2.737  1.2605 -0.5910 -0.1567
 8507TIP3    H246937   4.155   3.881   2.669 -0.7482  0.5465 -0.0316
 8508TIP3   OH246938   0.247   3.580  14.332  0.3449  0.0926  0.1142
 8508TIP3    H146939   0.187   3.650  14.303 -0.0615 -0.7480 -1.1887
 8508TIP3    H246940   0.189   3.513  14.368  0.6701  0.0952  0.6446
 8509TIP3   OH246941   2.567   0.768   1.185  0.0164 -0.1372  0.1808
 8509TIP3    H146942   2.550   0.842   1.126 -0.6732 -1.4210 -1.2768
 8509TIP3    H246943   2.645   0.726   1.149  0.0600 -0.4753  0.6575
 8510TIP3   OH246944   0.357   1.677  16.108  0.3533  0.0523  0.1191
 8510TIP3    H146945   0.308   1.624  16.171 -0.0584  0.5971  0.2697
 8510TIP3    H246946   0.436   1.627  16.090 -0.4413 -1.0409 -0.4290
 8511TIP3   OH246947   6.301   3.079  16.257 -0.5608 -0.6183 -0.4460
 8511TIP3    H146948   6.358   3.005  16.233 -1.1029 -1.6395  1.2122
 8511TIP3    H246949   6.311   3.087  16.352 -1.8553  0.3000 -0.3560
 8512TIP3   OH246950   5.156   1.476  13.812 -0.6979 -0.2821  0.1248
 8512TIP3    H146951   5.107   1.554  13.786 -0.4105 -0.4856 -1.1311
 8512TIP3    H246952   5.243   1.509  13.834 -0.3106 -0.3070 -1.2482
 8513TIP3   OH246953   1.442   0.687  16.698  0.5698  0.5776 -0.2329
 8513TIP3    H146954   1.460   0.774  16.735  1.0506 -0.0576  1.0885
 8513TIP3    H246955   1.420   0.633  16.773  2.7732 -1.0633 -0.6734
 8514TIP3   OH246956   0.709   3.367  10.954 -0.2368 -0.3881 -0.2260
 8514TIP3    H146957   0.758   3.339  10.876  3.2215  1.7202  0.9639
 8514TIP3    H246958   0.699   3.462  10.944  0.2477 -0.0708  1.8121
 8515TIP3   OH246959   4.157   1.999  15.983 -0.0646  0.5418 -0.2696
 8515TIP3    H146960   4.198   1.917  15.956 -0.4264  0.3277 -0.1718
 8515TIP3    H246961   4.065   1.977  15.997  0.1355  0.5890  1.3142
 8516TIP3   OH246962   0.923   6.705   0.913 -0.4343 -0.4333  0.4136
 8516TIP3    H146963   0.833   6.718   0.885 -0.6315 -1.3520  0.6223
 8516TIP3    H246964   0.921   6.714   1.009  0.0721  1.6868  0.2843
 8517TIP3   OH246965   4.517   4.015   4.228  0.4778  0.0877  0.2387
 8517TIP3    H146966   4.476   3.989   4.146  1.8539 -1.8206  0.0854
 8517TIP3    H246967   4.447   4.058   4.277 -1.5953 -2.5703 -0.1898
 8518TIP3   OH246968   0.686   2.951  13.952 -0.2327  0.0590 -0.6998
 8518TIP3    H146969   0.726   2.932  13.868 -1.0737 -2.1271 -0.6609
 8518TIP3    H246970   0.596   2.921  13.944 -0.4913  0.3332  0.7880
 8519TIP3   OH246971   4.255   2.035  12.131  0.2274 -0.1265  0.1554
 8519TIP3    H146972   4.253   2.003  12.041 -1.2236 -1.0585  0.4743
 8519TIP3    H246973   4.166   2.020  12.163  0.2659  1.7102  1.2405
 8520TIP3   OH246974   0.587   5.494   2.724 -0.2667  0.0726  0.2867
 8520TIP3    H146975   0.650   5.468   2.657 -0.4137 -0.3278  0.3060
 8520TIP3    H246976   0.537   5.565   2.684 -1.3319 -1.1260 -0.5688
 8521TIP3   OH246977   0.893   3.227  15.374  0.1012  0.4555 -0.4000
 8521TIP3    H146978   0.952   3.285  15.326 -0.2204  0.7708 -0.4205
 8521TIP3    H246979   0.835   3.192  15.306 -0.1945  0.7076 -0.2785
 8522TIP3   OH246980   2.593   1.920   4.863 -0.2142 -0.5037 -0.4767
 8522TIP3    H146981   2.640   1.989   4.911  0.8837 -0.6327 -1.3450
 8522TIP3    H246982   2.532   1.884   4.928 -0.6364  1.0963  0.0723
 8523TIP3   OH246983   5.785   4.613  11.116 -0.5572  0.5548 -0.1344
 8523TIP3    H146984   5.709   4.612  11.058 -1.6044 -1.4942  1.1413
 8523TIP3    H246985   5.831   4.532  11.097 -0.3999  0.3098  1.2039
 8524TIP3   OH246986   2.874   3.386  16.788  0.2272  0.1630 -0.1765
 8524TIP3    H146987   2.952   3.403  16.735  1.4012 -1.2838  1.0122
 8524TIP3    H246988   2.852   3.294  16.770  0.0855 -0.0750  1.1049
 8525TIP3   OH246989   4.644   4.195  15.394  0.0725  0.3914 -0.0257
 8525TIP3    H146990   4.627   4.208  15.301  4.5894 -1.9847 -1.5370
 8525TIP3    H246991   4.716   4.255  15.414  0.4927 -0.5075  1.3271
 8526TIP3   OH246992   5.596   5.157   4.821  0.5412  0.5083 -0.0244
 8526TIP3    H146993   5.690   5.161   4.805  0.7982  2.6081  1.5473
 8526TIP3    H246994   5.557   5.210   4.752  0.6444  0.7630  0.1125
 8527TIP3   OH246995   2.225   4.721   0.536 -0.4011 -0.1889  0.1498
 8527TIP3    H146996   2.270   4.739   0.454 -1.8493  1.3423 -0.3769
 8527TIP3    H246997   2.291   4.735   0.604  0.3459  0.3786 -0.6712
 8528TIP3   OH246998   1.859   4.760  14.458 -0.3682 -0.2133  0.3638
 8528TIP3    H146999   1.827   4.833  14.405  0.1456 -0.7400 -0.7185
 8528TIP3    H247000   1.841   4.786  14.548 -2.7310  0.0225 -0.1083
 8529TIP3   OH247001   1.509   0.720  12.089  0.1099 -0.2254  0.1166
 8529TIP3    H147002   1.591   0.742  12.135  0.0986 -0.0151  0.0340
 8529TIP3    H247003   1.537   0.695  12.001  0.1248 -0.5648  0.2137
 8530TIP3   OH247004   1.555   3.574   1.284 -0.9218  0.6725 -0.6806
 8530TIP3    H147005   1.460   3.574   1.289 -1.0336  0.0725 -2.2190
 8530TIP3    H247006   1.575   3.595   1.192  0.4078  0.4376 -0.4711
 8531TIP3   OH247007   4.204   2.908   0.056 -0.1847  0.4843 -0.2776
 8531TIP3    H147008   4.219   2.921   0.149 -0.5398 -0.9730  0.0042
 8531TIP3    H247009   4.286   2.936   0.014  0.6808 -0.5888  0.6352
 8532TIP3   OH247010   4.411   2.349  11.686 -0.5871 -0.4470 -0.0597
 8532TIP3    H147011   4.461   2.330  11.765 -0.3342  2.2628  0.5233
 8532TIP3    H247012   4.472   2.396  11.629 -1.5362  0.0518 -0.7069
 8533TIP3   OH247013   4.390   0.977  15.752 -0.2893  0.1306 -0.1104
 8533TIP3    H147014   4.319   1.042  15.752 -0.4353  0.0366  1.7457
 8533TIP3    H247015   4.364   0.912  15.688 -1.4562  0.5419 -0.0717
 8534TIP3   OH247016   2.631   3.642  13.297  0.0200  0.0698  0.3434
 8534TIP3    H147017   2.611   3.622  13.389 -1.0043  3.1814  0.9159
 8534TIP3    H247018   2.694   3.713  13.301  1.6479 -1.1961 -1.4568
 8535TIP3   OH247019   2.144   0.585   0.889  0.2024 -0.6740  0.5605
 8535TIP3    H147020   2.109   0.643   0.957  1.8408 -0.0861  0.9652
 8535TIP3    H247021   2.183   0.513   0.938  0.5793 -0.7182  0.2015
 8536TIP3   OH247022   2.968   1.954  12.890  0.1901 -0.3273  0.4771
 8536TIP3    H147023   3.030   2.010  12.938  0.1132 -0.2187  0.4481
 8536TIP3    H247024   2.918   2.014  12.835 -0.1226 -0.3866  0.6960
 8537TIP3   OH247025   0.927   4.959   1.381  0.5285 -0.5574  1.0091
 8537TIP3    H147026   0.836   4.970   1.409 -0.7000 -0.9684 -2.3067
 8537TIP3    H247027   0.970   5.041   1.405 -0.8275 -0.1621  2.2159
 8538TIP3   OH247028   4.853   4.591   0.475 -0.4626  0.0517  0.1724
 8538TIP3    H147029   4.858   4.593   0.380  0.5250 -0.5759  0.1856
 8538TIP3    H247030   4.914   4.521   0.500  1.6510  2.1735  1.3897
 8539TIP3   OH247031   1.828   0.804  14.371  0.3748 -0.0445 -0.7834
 8539TIP3    H147032   1.863   0.880  14.324  1.7212 -0.5221 -0.6200
 8539TIP3    H247033   1.733   0.810  14.360  0.5280  1.0192 -1.7467
 8540TIP3   OH247034   2.914   0.799  14.164 -0.5137  0.5169 -0.3555
 8540TIP3    H147035   2.850   0.801  14.093  0.5401  0.9443 -1.3221
 8540TIP3    H247036   2.861   0.797  14.244 -1.7246 -0.8780 -1.1497
 8541TIP3   OH247037   2.836   2.334  14.019  0.4539  0.4248 -0.4805
 8541TIP3    H147038   2.901   2.303  14.082 -0.7463  0.0230  0.5968
 8541TIP3    H247039   2.815   2.257  13.967 -1.3049 -0.2320  1.1130
 8542TIP3   OH247040   0.095   6.159   4.203  0.3404  0.0582  0.2456
 8542TIP3    H147041   0.129   6.247   4.219  1.3361  0.2932 -2.5319
 8542TIP3    H247042   0.033   6.170   4.131 -2.0955 -1.1046  2.0430
 8543TIP3   OH247043   1.612   4.239  12.292 -0.3640  0.7171  0.7357
 8543TIP3    H147044   1.604   4.146  12.315 -0.0276  0.5753  0.3157
 8543TIP3    H247045   1.531   4.279  12.322 -0.5945  0.2479  0.7466
 8544TIP3   OH247046   0.341   0.081  13.150 -0.0430 -0.3426  0.6907
 8544TIP3    H147047   0.335   0.080  13.054  1.1178 -0.5988  0.6019
 8544TIP3    H247048   0.427   0.118  13.168  1.0483 -3.0445  1.5137
 8545TIP3   OH247049   5.697   2.234   5.281 -0.6241 -0.2600 -0.0167
 8545TIP3    H147050   5.679   2.155   5.228  0.6203 -0.4527 -0.1826
 8545TIP3    H247051   5.662   2.213   5.367 -0.3438 -0.9851 -0.0716
 8546TIP3   OH247052   1.285   5.103   0.921  0.1368  0.1200 -0.3408
 8546TIP3    H147053   1.358   5.144   0.968  0.0187 -0.8897  0.7656
 8546TIP3    H247054   1.248   5.174   0.868  0.0366  1.4168  1.3877
 8547TIP3   OH247055   6.029   2.571  14.233 -0.2813 -0.3278 -0.5778
 8547TIP3    H147056   6.105   2.530  14.274 -0.4042 -0.6477 -0.6675
 8547TIP3    H247057   6.034   2.663  14.260  1.2879  0.1371 -2.2068
 8548TIP3   OH247058   5.163   1.214   2.520  0.2236 -0.3154 -0.1378
 8548TIP3    H147059   5.167   1.119   2.513  0.3801 -0.2065 -2.1720
 8548TIP3    H247060   5.150   1.244   2.430 -1.0738  1.5423  0.6113
 8549TIP3   OH247061   5.695   2.655   5.853  0.1390 -0.1575  0.1812
 8549TIP3    H147062   5.788   2.671   5.835  0.4012 -0.9557  0.7255
 8549TIP3    H247063   5.650   2.731   5.817  0.8503 -0.4585 -1.4324
 8550TIP3   OH247064   3.287   2.132  10.961 -0.1665  0.1543  0.1150
 8550TIP3    H147065   3.319   2.099  11.045 -0.0701 -0.1682 -0.0446
 8550TIP3    H247066   3.199   2.163  10.978  0.8648  2.8650  1.0207
 8551TIP3   OH247067   0.721   1.479   0.625 -0.0430  0.2597  0.0041
 8551TIP3    H147068   0.787   1.429   0.674 -0.3650  0.5927  0.7922
 8551TIP3    H247069   0.656   1.502   0.690 -0.5433  0.6186 -0.6173
 8552TIP3   OH247070   6.603   1.599  12.326 -0.1053  0.1665 -0.1686
 8552TIP3    H147071   6.535   1.630  12.267 -0.3274 -1.6720 -0.9460
 8552TIP3    H247072   6.685   1.629  12.288 -0.3311  0.0978 -0.7120
 8553TIP3   OH247073   5.733   4.049  15.183  0.5209  0.0680  0.3240
 8553TIP3    H147074   5.665   3.987  15.159 -0.3018  1.7210 -1.9392
 8553TIP3    H247075   5.764   4.085  15.100 -0.2002  3.8590  1.5012
 8554TIP3   OH247076   1.258   1.243  17.109 -0.0242  0.2964 -0.7113
 8554TIP3    H147077   1.295   1.331  17.112  1.5648 -0.3452  2.4099
 8554TIP3    H247078   1.305   1.200  17.038 -0.0972  1.6233 -1.6071
 8555TIP3   OH247079   6.772   2.905  13.526 -0.5782 -0.6790 -0.4230
 8555TIP3    H147080   6.839   2.956  13.571 -1.4244 -0.0754  0.1868
 8555TIP3    H247081   6.752   2.955  13.447 -2.5218  0.8270  0.9319
 8556TIP3   OH247082   6.758   5.090   0.768  0.0770  0.2335  0.1500
 8556TIP3    H147083   6.802   5.015   0.729 -0.0802 -0.1464  0.6875
 8556TIP3    H247084   6.790   5.166   0.718  0.7232 -0.1197  0.0133
 8557TIP3   OH247085   6.422   1.046   2.612  0.2276 -0.4560  0.3556
 8557TIP3    H147086   6.509   1.082   2.600 -0.0445  0.7419  1.7251
 8557TIP3    H247087   6.390   1.086   2.693 -0.6750 -2.6844  1.1900
 8558TIP3   OH247088   2.382   6.361   0.366 -0.2371 -0.0824  0.0801
 8558TIP3    H147089   2.333   6.362   0.284 -0.9611  0.4411  0.5006
 8558TIP3    H247090   2.332   6.418   0.424 -1.4919 -2.8226  1.8943
 8559TIP3   OH247091   1.679   5.974   5.869  0.1194  0.0510  0.0905
 8559TIP3    H147092   1.612   5.994   5.934 -0.3772 -2.5447  0.4919
 8559TIP3    H247093   1.761   5.979   5.917 -0.0365  0.4415  0.3220
 8560TIP3   OH247094   5.965   2.990  15.630 -0.4976 -0.3907 -0.6779
 8560TIP3    H147095   5.878   2.994  15.669 -0.0577  2.2067  0.2609
 8560TIP3    H247096   5.952   3.013  15.538 -0.6510  2.3333 -0.0593
 8561TIP3   OH247097   2.217   6.283   3.954 -0.2825 -0.9221 -0.2105
 8561TIP3    H147098   2.269   6.203   3.943 -0.3066 -1.1298  1.0257
 8561TIP3    H247099   2.272   6.340   4.008 -0.8393 -0.6649  0.0954
 8562TIP3   OH247100   4.254   4.841   1.086  0.4775 -0.5068  0.4902
 8562TIP3    H147101   4.254   4.934   1.063 -0.5279 -0.5469  0.2880
 8562TIP3    H247102   4.190   4.833   1.156 -0.0130 -1.1545 -0.0137
 8563TIP3   OH247103   5.344   2.913   5.651 -0.7654  0.1123 -0.3928
 8563TIP3    H147104   5.428   2.930   5.695 -0.7341 -1.2795  0.1257
 8563TIP3    H247105   5.353   2.824   5.616 -1.4314  0.5582 -1.7599
 8564TIP3   OH247106   1.499   4.367   3.205  0.2379  1.1877  0.3523
 8564TIP3    H147107   1.578   4.405   3.243  0.5297  1.2954 -0.3396
 8564TIP3    H247108   1.496   4.402   3.116  1.4359 -1.6729 -0.9368
 8565TIP3   OH247109   5.154   3.041   5.824  0.3193 -0.6509  0.0578
 8565TIP3    H147110   5.202   3.076   5.899 -0.2131 -0.6658  0.4150
 8565TIP3    H247111   5.215   3.048   5.751  1.6848 -2.7485  0.9055
 8566TIP3   OH247112   2.483   4.056   5.089 -0.3871 -0.2713 -0.2459
 8566TIP3    H147113   2.460   4.052   5.182 -0.2054 -1.5698 -0.2439
 8566TIP3    H247114   2.404   4.031   5.043 -0.4832  0.3938 -0.4577
 8567TIP3   OH247115   0.828   4.854  12.225 -0.0153 -0.4802 -0.2101
 8567TIP3    H147116   0.893   4.848  12.155 -1.7497 -1.9010 -1.8001
 8567TIP3    H247117   0.848   4.780  12.283 -0.7162 -1.4861 -1.2058
 8568TIP3   OH247118   4.013   0.026  12.805 -0.4657 -0.4138  0.6456
 8568TIP3    H147119   3.982   0.055  12.891 -1.0657 -1.4394  0.7831
 8568TIP3    H247120   3.945  -0.034  12.774 -0.3265  0.0580 -0.6149
 8569TIP3   OH247121   0.940   2.800  13.699  0.1295  0.0847  0.0937
 8569TIP3    H147122   0.977   2.876  13.744  0.3402 -0.4050  0.7557
 8569TIP3    H247123   1.016   2.750  13.670  0.0082  0.5554 -1.1177
 8570TIP3   OH247124   1.487   4.628   1.597 -0.6458 -0.2642 -0.1010
 8570TIP3    H147125   1.496   4.569   1.672  1.9901  1.5036  1.1587
 8570TIP3    H247126   1.461   4.712   1.637  0.7257  0.6862 -1.1456
 8571TIP3   OH247127   1.512   0.528  13.973 -0.5241 -0.0145 -0.0838
 8571TIP3    H147128   1.521   0.600  14.036 -0.3882  0.1051 -0.2389
 8571TIP3    H247129   1.459   0.463  14.019  0.7057 -0.5280  0.6635
 8572TIP3   OH247130   1.413   4.689   0.925 -0.2586 -0.5234 -0.0326
 8572TIP3    H147131   1.470   4.721   0.854 -0.2647 -0.1123  0.1475
 8572TIP3    H247132   1.379   4.605   0.892 -1.0944  0.1606 -0.9702
 8573TIP3   OH247133   3.587   3.527   3.007 -0.4782  0.2276 -0.1754
 8573TIP3    H147134   3.661   3.544   2.948  0.1879 -0.9773  0.2629
 8573TIP3    H247135   3.511   3.522   2.950 -0.0262  0.2442 -0.7910
 8574TIP3   OH247136   2.637   4.197  11.156  0.4672 -0.3050 -0.3128
 8574TIP3    H147137   2.590   4.114  11.161 -0.5688  0.3155  0.6549
 8574TIP3    H247138   2.570   4.262  11.135  1.2908  0.2849 -1.2090
 8575TIP3   OH247139   3.676   5.869   4.360 -0.5459  0.2184  0.0441
 8575TIP3    H147140   3.766   5.896   4.345 -0.0123 -0.3747  1.9074
 8575TIP3    H247141   3.679   5.773   4.355 -1.4585  0.2304 -1.6281
 8576TIP3   OH247142   1.739   3.544  14.070  0.0718 -0.1256 -0.4985
 8576TIP3    H147143   1.741   3.507  14.158  0.5663 -0.4512 -0.6447
 8576TIP3    H247144   1.716   3.636  14.084 -0.9902 -0.4308 -0.1249
 8577TIP3   OH247145   2.602   0.636  17.133  0.1711 -0.6302 -0.1330
 8577TIP3    H147146   2.514   0.604  17.118 -0.4191  0.8086  0.0546
 8577TIP3    H247147   2.633   0.661  17.046 -0.3937  0.7263  0.0305
 8578TIP3   OH247148   2.546   1.107  12.362  0.1244  0.3282 -0.0951
 8578TIP3    H147149   2.474   1.091  12.423 -0.5456 -1.1726 -1.2089
 8578TIP3    H247150   2.532   1.197  12.332 -0.4506  0.5423  0.7520
 8579TIP3   OH247151   1.766   3.050  14.163  0.1578 -0.1837  0.4198
 8579TIP3    H147152   1.797   3.113  14.098  0.2526 -0.5020  0.1519
 8579TIP3    H247153   1.685   3.089  14.198 -0.6936 -0.6617 -0.9262
 8580TIP3   OH247154   1.231   4.643   3.873  0.0000  0.3094  0.0394
 8580TIP3    H147155   1.298   4.672   3.935 -1.1776  0.4138  1.3208
 8580TIP3    H247156   1.274   4.577   3.820  0.8894 -0.2688  1.4203
 8581TIP3   OH247157   5.562   5.454  15.819 -0.2136 -0.1145  0.1106
 8581TIP3    H147158   5.543   5.548  15.823  0.5875  0.0996 -0.9113
 8581TIP3    H247159   5.602   5.435  15.904  1.9676  1.0237 -0.5931
 8582TIP3   OH247160   6.733   5.365  11.088  0.0976  0.5582  0.1632
 8582TIP3    H147161   6.734   5.303  11.016 -1.7996 -0.2961  0.8071
 8582TIP3    H247162   6.759   5.448  11.049 -3.8203  0.8425 -2.2711
 8583TIP3   OH247163   4.244   3.885  13.310  0.1158 -0.3292 -0.5364
 8583TIP3    H147164   4.231   3.929  13.394  1.6933  1.8550 -1.3298
 8583TIP3    H247165   4.339   3.874  13.303 -0.1398 -2.6086 -1.0567
 8584TIP3   OH247166   0.743   0.614  14.695 -0.0965  0.3831  0.3808
 8584TIP3    H147167   0.712   0.526  14.674  0.9999 -0.3554  1.7288
 8584TIP3    H247168   0.696   0.671  14.633 -0.1257 -1.2192 -1.1419
 8585TIP3   OH247169   0.173   2.349   1.749 -0.0681  0.1185  0.2711
 8585TIP3    H147170   0.262   2.344   1.713  0.8509  0.8258  2.3042
 8585TIP3    H247171   0.182   2.316   1.838 -2.3385 -2.0273 -0.1888
 8586TIP3   OH247172   3.312   2.989  12.670  0.1409  0.4022  0.0483
 8586TIP3    H147173   3.363   2.911  12.647  1.5220  0.7353  1.7674
 8586TIP3    H247174   3.270   3.015  12.588  0.5086 -1.5258 -0.7916
 8587TIP3   OH247175   5.971   2.757   2.082 -0.6794  0.3078  0.2544
 8587TIP3    H147176   5.921   2.796   2.154 -1.3588 -1.5905  0.8794
 8587TIP3    H247177   6.061   2.788   2.096 -1.2101  1.7844  0.5595
 8588TIP3   OH247178   4.616   6.395  14.045  0.1246  0.4885  0.0961
 8588TIP3    H147179   4.594   6.419  14.134  1.0220  0.4638  0.3368
 8588TIP3    H247180   4.697   6.344  14.053 -0.1739 -0.1287 -0.6616
 8589TIP3   OH247181   6.222   5.855  16.371  0.5232  0.1527  0.2289
 8589TIP3    H147182   6.286   5.867  16.301  0.9939  0.9046  0.7700
 8589TIP3    H247183   6.147   5.908  16.345  0.8838  0.8128  0.5110
 8590TIP3   OH247184   3.087   4.701   3.970  0.1469 -0.1645 -0.3239
 8590TIP3    H147185   3.163   4.664   4.015  0.3237  0.2425 -0.2835
 8590TIP3    H247186   3.071   4.784   4.014 -1.1088 -0.8165  0.5090
 8591TIP3   OH247187   5.517   1.193  16.312 -0.4778 -0.0322  0.3634
 8591TIP3    H147188   5.471   1.260  16.362 -2.1727 -1.8723  1.4508
 8591TIP3    H247189   5.466   1.183  16.232  0.7102  1.0566 -0.5692
 8592TIP3   OH247190   0.009   6.131  12.523  0.1996  0.8260  0.4190
 8592TIP3    H147191   0.090   6.182  12.528 -0.0047  1.3137 -1.0258
 8592TIP3    H247192  -0.009   6.107  12.614  1.2327  1.8629  0.9223
 8593TIP3   OH247193   5.829   6.347  16.493  0.3507  0.0834 -0.1690
 8593TIP3    H147194   5.810   6.306  16.409 -1.6304  3.1456 -1.3536
 8593TIP3    H247195   5.918   6.382  16.484 -0.2222  1.2859 -1.4416
 8594TIP3   OH247196   5.477   2.525   4.014  0.4910 -0.4940 -0.3401
 8594TIP3    H147197   5.551   2.585   4.008  0.6259 -0.6051  0.1429
 8594TIP3    H247198   5.456   2.503   3.923  0.5960  0.0870 -0.5070
 8595TIP3   OH247199   1.267   5.234  15.256 -0.2419 -0.6989 -0.0003
 8595TIP3    H147200   1.314   5.173  15.199  0.4013  1.8387 -2.4375
 8595TIP3    H247201   1.335   5.282  15.302 -0.3674  1.3895 -1.7916
 8596TIP3   OH247202   0.523   2.687  17.006 -0.4679 -0.1404 -0.0904
 8596TIP3    H147203   0.489   2.615  17.060 -0.9067 -0.7372 -1.1323
 8596TIP3    H247204   0.604   2.652  16.968 -0.0880  0.3273  0.2749
 8597TIP3   OH247205   6.297   1.856   4.868 -0.2722  0.1901 -0.0437
 8597TIP3    H147206   6.331   1.933   4.822  1.0856 -0.6473 -0.5367
 8597TIP3    H247207   6.202   1.867   4.868 -0.2661  0.7463 -2.1601
 8598TIP3   OH247208   0.581   2.234  17.189  0.0715  0.1515 -0.3233
 8598TIP3    H147209   0.666   2.232  17.145  0.4112 -0.8690  0.3662
 8598TIP3    H247210   0.559   2.142  17.204 -1.2157  0.3999 -0.6060
 8599TIP3   OH247211   3.577   4.452   1.771  0.0302 -0.0174 -0.9038
 8599TIP3    H147212   3.483   4.456   1.789  0.1015  0.8032 -0.6693
 8599TIP3    H247213   3.583   4.433   1.677 -0.3594 -0.8450 -0.7675
 8600TIP3   OH247214   4.667   5.375   1.413 -0.1101  0.2392 -0.1618
 8600TIP3    H147215   4.642   5.362   1.322  1.2989  0.2148 -0.5550
 8600TIP3    H247216   4.624   5.304   1.460  0.3548 -0.6301 -1.0239
 8601TIP3   OH247217   5.341   6.755   1.235 -0.1354  0.4453 -0.0395
 8601TIP3    H147218   5.285   6.680   1.215 -0.3902  0.4580  0.5937
 8601TIP3    H247219   5.334   6.766   1.330  0.9890  0.4138  0.0641
 8602TIP3   OH247220   3.559   4.659  16.339 -0.1741  0.0213 -0.0637
 8602TIP3    H147221   3.630   4.699  16.290 -2.3316  1.6305 -2.1038
 8602TIP3    H247222   3.538   4.722  16.408  1.3452 -1.1940  1.5932
 8603TIP3   OH247223   1.573   4.133   3.410 -0.1533  0.3266 -0.0002
 8603TIP3    H147224   1.579   4.223   3.443  2.4447 -0.0971  0.8645
 8603TIP3    H247225   1.479   4.118   3.400 -1.0415  1.5026  4.5065
 8604TIP3   OH247226   4.884   0.939   0.742 -0.0059  0.6740 -0.3436
 8604TIP3    H147227   4.838   0.871   0.693 -0.9735  0.9042  0.2172
 8604TIP3    H247228   4.952   0.970   0.683 -0.6237  0.3732 -1.2261
 8605TIP3   OH247229   6.252   6.176   4.870  0.1056  0.1221 -0.6162
 8605TIP3    H147230   6.334   6.212   4.905  0.3984  1.4756 -2.4973
 8605TIP3    H247231   6.275   6.144   4.783 -0.7553 -2.3698 -0.0226
 8606TIP3   OH247232   1.217   3.802  10.988  0.4344  0.2318 -0.7545
 8606TIP3    H147233   1.185   3.859  10.918  0.9395 -1.6975 -2.6718
 8606TIP3    H247234   1.311   3.795  10.971  0.9223  1.1713  1.2793
 8607TIP3   OH247235   6.704   2.645   5.956  0.1530 -0.1459  0.0193
 8607TIP3    H147236   6.678   2.612   6.042 -0.6320 -1.6599 -0.7644
 8607TIP3    H247237   6.724   2.737   5.971  2.0943 -0.8326  2.2345
 8608TIP3   OH247238   6.001   4.710   1.825 -0.6387 -0.3359  0.3848
 8608TIP3    H147239   5.942   4.701   1.900 -1.4764  1.2818 -0.0472
 8608TIP3    H247240   6.036   4.622   1.811  0.9662 -0.4096  3.8030
 8609TIP3   OH247241   6.129   0.879  13.299 -0.4506 -0.7074  0.2246
 8609TIP3    H147242   6.148   0.875  13.393  0.4607 -0.3524  0.0707
 8609TIP3    H247243   6.037   0.854  13.291 -0.8085  0.2002  1.3047
 8610TIP3   OH247244   2.204   6.748  14.521 -0.5643 -0.1991 -0.0035
 8610TIP3    H147245   2.274   6.683  14.525 -0.2051  0.2189  0.7188
 8610TIP3    H247246   2.196   6.780  14.611  0.8547  2.3931 -0.7126
 8611TIP3   OH247247   1.733   5.795  16.989  0.8960  0.0228 -0.1019
 8611TIP3    H147248   1.800   5.768  17.053  0.0497  1.2660  1.3882
 8611TIP3    H247249   1.745   5.889  16.980 -1.6175  0.6044  1.4894
 8612TIP3   OH247250   0.859   4.136  11.181 -0.0710 -0.0155 -0.3044
 8612TIP3    H147251   0.926   4.120  11.115 -0.7942  2.4143 -1.7304
 8612TIP3    H247252   0.908   4.155  11.261  1.0331  2.1904 -1.4303
 8613TIP3   OH247253   2.153   0.935  12.319  0.2533  0.1765  0.4431
 8613TIP3    H147254   2.134   1.019  12.276 -0.3939  1.6380  3.3406
 8613TIP3    H247255   2.080   0.879  12.293 -0.9743  1.5091  0.8751
 8614TIP3   OH247256   1.094   4.618  14.947  0.4732 -0.2238 -0.6657
 8614TIP3    H147257   1.175   4.661  14.976  1.8223 -2.5342 -0.7253
 8614TIP3    H247258   1.036   4.623  15.023  1.2500  0.1291 -0.0784
 8615TIP3   OH247259   6.622   3.050   5.772  0.1319  0.5075 -0.0672
 8615TIP3    H147260   6.558   3.084   5.836  0.3543  0.7250  0.0427
 8615TIP3    H247261   6.706   3.087   5.801  0.1998  0.7983 -0.6232
 8616TIP3   OH247262   4.856   4.413   2.784 -0.6094  0.4129  0.4384
 8616TIP3    H147263   4.788   4.431   2.719  0.5026  2.1961 -0.3329
 8616TIP3    H247264   4.905   4.338   2.750  0.8296  2.1677 -1.6216
 8617TIP3   OH247265   6.587   5.638  16.438  0.0706 -0.3523  0.4895
 8617TIP3    H147266   6.568   5.728  16.464 -0.7393 -0.7672  1.4167
 8617TIP3    H247267   6.607   5.643  16.345 -1.5662  0.5716  0.1498
 8618TIP3   OH247268   6.107   0.276   1.743 -0.0961  0.4281  0.0238
 8618TIP3    H147269   6.172   0.298   1.810  2.1155  2.6096 -2.5979
 8618TIP3    H247270   6.060   0.201   1.779  2.9656 -0.4509  2.7066
 8619TIP3   OH247271   2.423   0.521  15.316  0.3940 -0.0414 -0.3219
 8619TIP3    H147272   2.504   0.562  15.288 -0.6696  1.5052 -1.2677
 8619TIP3    H247273   2.360   0.542  15.247 -0.9430 -0.7561  0.6323
 8620TIP3   OH247274   1.743   3.560   3.365  0.1687  0.3171 -0.0879
 8620TIP3    H147275   1.827   3.517   3.347 -0.1774 -1.1581  1.5110
 8620TIP3    H247276   1.689   3.540   3.289  1.0090  0.6411 -0.7895
 8621TIP3   OH247277   6.002   0.179   4.481  0.4906  0.4320  0.5577
 8621TIP3    H147278   5.982   0.089   4.456 -0.3920  0.2730  1.7959
 8621TIP3    H247279   6.096   0.189   4.462 -0.0148  0.2639 -2.5346
 8622TIP3   OH247280   1.411   6.596  11.145  0.0948  0.2550 -0.1366
 8622TIP3    H147281   1.487   6.619  11.199 -1.0089 -0.1216  1.6954
 8622TIP3    H247282   1.381   6.512  11.182 -0.9021  0.1439 -1.1516
 8623TIP3   OH247283   4.965   5.947  12.118 -0.1042  0.6036  0.1367
 8623TIP3    H147284   4.950   5.856  12.093  1.7099  0.5685 -1.0041
 8623TIP3    H247285   5.015   5.942  12.199 -2.3017  0.6785  1.5921
 8624TIP3   OH247286   0.528   5.471   3.388 -0.0339  0.6036 -0.7077
 8624TIP3    H147287   0.597   5.478   3.454  1.7352  0.0943 -2.4129
 8624TIP3    H247288   0.510   5.377   3.382  0.0016  0.6205 -1.1128
 8625TIP3   OH247289   4.013   3.906  15.458 -0.1192  0.0577 -0.6243
 8625TIP3    H147290   4.060   3.989  15.463  2.1328 -1.2093  1.1343
 8625TIP3    H247291   4.011   3.874  15.548 -1.5682 -1.5003 -1.1463
 8626TIP3   OH247292   1.704   0.836   5.717  0.0852  0.7976 -1.0895
 8626TIP3    H147293   1.770   0.770   5.701  0.1964  1.1000 -1.9420
 8626TIP3    H247294   1.743   0.894   5.783 -0.1049 -0.0898 -0.1666
 8627TIP3   OH247295   0.196   5.679   4.522 -0.1619  0.4929  0.6308
 8627TIP3    H147296   0.209   5.746   4.590 -1.2761  1.5305 -0.1372
 8627TIP3    H247297   0.200   5.596   4.570  2.2929  0.9938  1.4513
 8628TIP3   OH247298   0.807   3.673  12.794 -0.9219  0.1272 -0.1289
 8628TIP3    H147299   0.842   3.730  12.725  1.5260 -1.1574 -0.0533
 8628TIP3    H247300   0.821   3.723  12.875  0.4551 -0.1969 -0.1436
 8629TIP3   OH247301   6.232   5.395  12.321 -0.2506  0.2347 -0.8055
 8629TIP3    H147302   6.147   5.429  12.348 -0.2765  0.0068 -0.5961
 8629TIP3    H247303   6.220   5.301  12.314  0.5823 -0.1342  1.6269
 8630TIP3   OH247304   4.345   6.643   1.991  0.1557  0.3287  0.4741
 8630TIP3    H147305   4.418   6.582   2.002  0.3902  0.5305  0.0561
 8630TIP3    H247306   4.335   6.683   2.078 -0.4591 -0.7962  0.9422
 8631TIP3   OH247307   6.682   0.455   5.533  0.4765  0.3819 -0.4232
 8631TIP3    H147308   6.627   0.409   5.596  0.6474 -0.4643 -0.8741
 8631TIP3    H247309   6.626   0.467   5.457  0.9258 -0.5920 -0.9290
 8632TIP3   OH247310   0.880   0.644  15.103 -0.1941 -0.0410  0.3161
 8632TIP3    H147311   0.967   0.614  15.075 -0.0383  0.6296  0.0628
 8632TIP3    H247312   0.852   0.579  15.168  1.7559  1.2449  2.6303
 8633TIP3   OH247313   0.904   5.185   5.371 -0.3141  0.4785 -0.0934
 8633TIP3    H147314   0.906   5.275   5.339 -0.5636  0.5281  0.0276
 8633TIP3    H247315   0.996   5.159   5.376 -0.0220  1.6761  2.5382
 8634TIP3   OH247316   0.086   0.527  17.115 -0.3984 -0.4913 -0.0404
 8634TIP3    H147317   0.096   0.478  17.196  0.1930 -1.3981 -0.6342
 8634TIP3    H247318   0.099   0.618  17.139  0.4220 -0.8090  0.7784
 8635TIP3   OH247319   4.956   4.406  16.103  0.5945  0.3992 -0.3354
 8635TIP3    H147320   4.962   4.391  16.008  1.6849 -0.5397 -0.1366
 8635TIP3    H247321   4.922   4.495  16.110  1.7850  1.0107 -1.6372
 8636TIP3   OH247322   0.807   4.920  11.145 -0.0455  0.4529  0.0863
 8636TIP3    H147323   0.738   4.985  11.134  1.0940  1.3273 -2.7398
 8636TIP3    H247324   0.884   4.959  11.103  1.1052 -2.0697 -0.3137
 8637TIP3   OH247325   4.634   3.060  12.354  0.1824 -0.4095  0.2721
 8637TIP3    H147326   4.563   2.996  12.365 -1.1576  0.4799 -2.2601
 8637TIP3    H247327   4.666   3.044  12.265  0.1807  2.0423 -0.2403
 8638TIP3   OH247328   4.724   3.815  13.338 -0.0341 -0.6540 -0.4524
 8638TIP3    H147329   4.786   3.742  13.339  0.5857 -0.1418  0.8103
 8638TIP3    H247330   4.759   3.875  13.273  0.9210 -0.2807  0.3855
 8639TIP3   OH247331   0.677   3.246  13.582  0.0090  0.3000  0.0094
 8639TIP3    H147332   0.729   3.182  13.631 -1.0573  0.4536  1.4181
 8639TIP3    H247333   0.709   3.331  13.613  1.2737  0.4967 -1.6993
 8640TIP3   OH247334   0.560   0.975  14.219 -0.7903 -0.1935  0.2273
 8640TIP3    H147335   0.499   0.987  14.146  1.5030  0.1269 -1.7336
 8640TIP3    H247336   0.560   0.881  14.235 -0.4010 -0.4195 -1.0385
 8641TIP3   OH247337   6.627   4.510   0.587 -0.5148  0.2496  0.2674
 8641TIP3    H147338   6.673   4.543   0.664 -0.5035  1.9371 -0.4400
 8641TIP3    H247339   6.540   4.488   0.620 -0.9164  2.1098  0.5633
 8642TIP3   OH247340   5.643   1.000   4.651 -0.2787  0.0987 -0.4202
 8642TIP3    H147341   5.691   0.943   4.592  1.0638  0.9269 -0.1781
 8642TIP3    H247342   5.566   1.028   4.600  0.9220  0.9230 -1.8591
 8643TIP3   OH247343   2.510   2.305   4.983  0.3615  0.0115 -0.6175
 8643TIP3    H147344   2.452   2.271   4.915  0.4888  0.2039 -0.8245
 8643TIP3    H247345   2.475   2.392   5.003  0.0470 -0.2298 -0.1023
 8644TIP3   OH247346   3.833   1.842  11.739  0.3697 -0.1356 -0.2642
 8644TIP3    H147347   3.776   1.765  11.748  0.8665 -0.5685 -0.7281
 8644TIP3    H247348   3.803   1.902  11.807 -2.4778  0.8318 -2.2085
 8645TIP3   OH247349   4.817   6.777  13.466  0.7517  0.3294 -0.1934
 8645TIP3    H147350   4.757   6.719  13.420 -0.0947  1.0718 -0.0606
 8645TIP3    H247351   4.789   6.865  13.440  0.9465  0.7253  0.8993
 8646TIP3   OH247352   4.076   3.938   1.544  0.0522 -0.1941 -0.0956
 8646TIP3    H147353   3.991   3.954   1.503  0.6763 -0.8301 -1.7453
 8646TIP3    H247354   4.070   3.979   1.630 -1.2895  1.4224 -0.8984
 8647TIP3   OH247355   0.463   1.324  16.002 -0.1072 -0.1605 -0.9020
 8647TIP3    H147356   0.396   1.257  15.988 -0.4067  0.2396 -1.3904
 8647TIP3    H247357   0.546   1.279  15.982  0.0324 -1.3228  1.8366
 8648TIP3   OH247358   1.580   6.585  13.814  0.2877  0.2508  0.7197
 8648TIP3    H147359   1.639   6.610  13.743 -1.1899 -0.1834 -0.7100
 8648TIP3    H247360   1.638   6.573  13.890  1.6740  2.6236  0.1203
 8649TIP3   OH247361   0.790   3.610   3.535  0.4520  0.4288 -0.0466
 8649TIP3    H147362   0.698   3.585   3.525  0.7047 -1.1028  1.0440
 8649TIP3    H247363   0.796   3.645   3.624  1.2877 -1.5683  0.7556
 8650TIP3   OH247364   5.731   4.005  13.818  0.4229 -0.4264  0.5252
 8650TIP3    H147365   5.770   3.942  13.758 -1.5030 -1.2316  0.0485
 8650TIP3    H247366   5.731   3.961  13.903 -0.7099 -1.0320  0.2372
 8651TIP3   OH247367   3.478   4.003  14.608  0.0927 -0.1486 -0.1430
 8651TIP3    H147368   3.408   4.067  14.598 -0.2967 -0.7314 -1.4374
 8651TIP3    H247369   3.556   4.055  14.626 -0.3675  0.6351 -0.3439
 8652TIP3   OH247370   6.263   4.631  14.443 -0.4725 -0.3467  0.1739
 8652TIP3    H147371   6.233   4.718  14.468 -0.9299 -0.2123 -0.7765
 8652TIP3    H247372   6.202   4.604  14.374 -0.4255 -1.4775  0.5420
 8653TIP3   OH247373   3.109   5.526  12.847  0.5561 -0.5204  0.2325
 8653TIP3    H147374   3.114   5.595  12.781  0.1320  0.3548  1.0867
 8653TIP3    H247375   3.073   5.451  12.800 -4.5112  1.4448  0.3478
 8654TIP3   OH247376   4.925   1.419  15.537 -0.1281 -0.1383 -0.2827
 8654TIP3    H147377   4.849   1.476  15.541  1.0504  1.5165 -0.3269
 8654TIP3    H247378   4.943   1.396  15.629 -0.6336 -0.5092 -0.2705
 8655TIP3   OH247379   2.904   0.674  12.012  1.2084  0.4697 -0.2067
 8655TIP3    H147380   2.824   0.670  12.064  1.8624 -1.6433  0.7714
 8655TIP3    H247381   2.887   0.618  11.936  1.4005  0.8623 -0.5450
 8656TIP3   OH247382   5.156   3.364   1.940  0.4816  0.3702 -0.1585
 8656TIP3    H147383   5.076   3.374   1.889 -0.3761 -1.2676  0.7982
 8656TIP3    H247384   5.127   3.329   2.024  2.3769 -2.9899 -0.7253
 8657TIP3   OH247385   6.167   0.373  15.048  0.1398  0.2411 -0.3224
 8657TIP3    H147386   6.136   0.452  15.093  1.1115 -0.4913  1.8127
 8657TIP3    H247387   6.262   0.386  15.040  0.4259 -0.9410  0.7021
 8658TIP3   OH247388   4.369   0.593  13.452  0.3209 -0.2937 -0.4403
 8658TIP3    H147389   4.299   0.542  13.494 -0.4359  0.8806 -0.2324
 8658TIP3    H247390   4.442   0.587  13.513 -0.2890  0.1773  0.3507
 8659TIP3   OH247391   1.566   2.804  14.183  0.1023 -0.7194  0.0444
 8659TIP3    H147392   1.634   2.870  14.171  1.2700 -1.4692  2.0720
 8659TIP3    H247393   1.514   2.836  14.256  0.8601 -2.1176  1.2530
 8660TIP3   OH247394   1.288   5.117  16.724 -0.4211 -0.5337 -0.2813
 8660TIP3    H147395   1.348   5.048  16.696  0.0934  0.5209 -1.9309
 8660TIP3    H247396   1.311   5.193  16.670 -0.0311  1.4081  2.3566
 8661TIP3   OH247397   5.589   0.672  13.788 -0.0235  0.2351 -0.3372
 8661TIP3    H147398   5.618   0.623  13.711  1.7712  0.7718 -0.0420
 8661TIP3    H247399   5.644   0.640  13.859 -0.4646  0.9790  0.3559
 8662TIP3   OH247400   5.663   0.621  11.103 -0.3776  0.2404 -0.1179
 8662TIP3    H147401   5.596   0.675  11.062 -0.5497 -0.5177 -0.8674
 8662TIP3    H247402   5.746   0.661  11.076 -0.4984  1.2313  0.8829
 8663TIP3   OH247403   3.139   2.805   5.420 -0.1392  0.5642 -0.0406
 8663TIP3    H147404   3.119   2.867   5.491 -0.1090  0.4538  0.0641
 8663TIP3    H247405   3.192   2.738   5.461 -0.9865 -0.0543  0.0749
 8664TIP3   OH247406   3.758   1.460   5.189 -0.6159  0.3264  0.1761
 8664TIP3    H147407   3.731   1.400   5.119  1.7102  1.1023 -1.5312
 8664TIP3    H247408   3.735   1.547   5.155 -0.5460  0.6392  0.9250
 8665TIP3   OH247409   4.883   1.085  15.230 -0.4489  0.1849 -0.1687
 8665TIP3    H147410   4.817   1.023  15.260 -1.3745  1.2725  0.1151
 8665TIP3    H247411   4.966   1.050  15.264 -0.8440 -1.2668 -0.6475
 8666TIP3   OH247412   4.953   3.426  10.631  0.4987  0.3263 -0.2421
 8666TIP3    H147413   4.905   3.352  10.593 -0.6766  0.2693  1.2659
 8666TIP3    H247414   5.028   3.387  10.675  0.2394  0.1026 -0.0012
 8667TIP3   OH247415   6.331   2.070  14.355  0.4626 -0.3389 -0.9197
 8667TIP3    H147416   6.418   2.112  14.356  0.4959 -0.3439  1.0701
 8667TIP3    H247417   6.349   1.978  14.334  0.8953 -0.2402 -0.9921
 8668TIP3   OH247418   4.551   1.124   3.887 -0.1577  0.7244  0.0656
 8668TIP3    H147419   4.612   1.136   3.960  1.7382 -1.0437 -1.1127
 8668TIP3    H247420   4.513   1.037   3.901  0.7962  0.0322 -1.3662
 8669TIP3   OH247421   3.980   4.307   6.049 -0.0725  0.0296 -0.0880
 8669TIP3    H147422   4.050   4.357   6.090  1.3824 -0.5376 -1.7299
 8669TIP3    H247423   3.900   4.353   6.072  0.6544 -0.0181  2.9103
 8670TIP3   OH247424   3.766   1.841  13.974 -0.3210 -0.2768 -0.5873
 8670TIP3    H147425   3.734   1.924  14.008 -1.3343 -0.7775 -0.2867
 8670TIP3    H247426   3.855   1.833  14.009 -0.6708  0.0959  0.4152
 8671TIP3   OH247427   3.342   6.038  15.844 -0.1653  0.1649 -0.5276
 8671TIP3    H147428   3.408   5.977  15.811  0.1836  1.0393 -1.5198
 8671TIP3    H247429   3.391   6.116  15.868 -0.6965  0.3570 -0.0376
 8672TIP3   OH247430   1.409   3.880   4.591  0.7056 -0.3444 -0.2975
 8672TIP3    H147431   1.406   3.976   4.589 -0.3890 -0.2718  1.9678
 8672TIP3    H247432   1.319   3.853   4.573  0.6742 -0.8848  0.6432
 8673TIP3   OH247433   4.169   0.074   3.860 -0.1652 -0.1929  0.0480
 8673TIP3    H147434   4.163   0.090   3.766  0.4431  0.3040  0.0806
 8673TIP3    H247435   4.227  -0.002   3.868 -0.9438 -0.7961 -0.0103
 8674TIP3   OH247436   4.994   2.275   2.260  0.0059  0.4939 -0.2378
 8674TIP3    H147437   4.993   2.236   2.347 -0.2723  0.9078 -0.0528
 8674TIP3    H247438   4.903   2.293   2.240 -0.0524 -0.7648 -1.1570
 8675TIP3   OH247439   4.369   3.383  15.375 -0.5502 -0.3088 -0.1771
 8675TIP3    H147440   4.338   3.310  15.430  0.1256  1.1257  2.2348
 8675TIP3    H247441   4.297   3.399  15.314 -1.3894 -1.8852  0.3404
 8676TIP3   OH247442   3.471   4.128   0.489 -0.1652 -0.6365 -0.2612
 8676TIP3    H147443   3.377   4.125   0.504 -0.1899 -0.8977 -0.4489
 8676TIP3    H247444   3.489   4.218   0.461 -0.1347 -0.1711  1.1960
 8677TIP3   OH247445   6.502   5.388  17.059 -0.9671 -0.1741 -0.2136
 8677TIP3    H147446   6.574   5.328  17.040 -2.3254 -1.7224 -0.7685
 8677TIP3    H247447   6.424   5.332  17.059 -2.3971  1.6934 -1.4576
 8678TIP3   OH247448   0.050   6.459   3.369 -0.5240  0.4086  0.1779
 8678TIP3    H147449  -0.036   6.418   3.373 -0.3730  0.0811  0.0573
 8678TIP3    H247450   0.108   6.399   3.415 -0.1990  0.2117 -0.4774
 8679TIP3   OH247451   4.990   1.645   0.402 -0.0401  0.0304 -0.2290
 8679TIP3    H147452   5.011   1.651   0.309 -0.0079 -2.2319 -0.4382
 8679TIP3    H247453   5.061   1.691   0.446  0.2274  0.6729 -1.3065
 8680TIP3   OH247454   6.766   0.266  11.362 -0.2737 -0.1443 -0.3806
 8680TIP3    H147455   6.690   0.215  11.390 -1.6029  0.8750 -1.9366
 8680TIP3    H247456   6.763   0.262  11.267  0.1479  1.9824 -0.5280
 8681TIP3   OH247457   0.623   5.270   0.565 -0.4511  0.1220 -0.2545
 8681TIP3    H147458   0.616   5.251   0.658 -0.1949  0.0268 -0.2534
 8681TIP3    H247459   0.562   5.209   0.524 -1.5644  1.0707 -0.0500
 8682TIP3   OH247460   2.862   6.237   3.166 -0.5033  0.5957 -0.1119
 8682TIP3    H147461   2.840   6.328   3.183 -0.9078  0.3179  0.9313
 8682TIP3    H247462   2.922   6.213   3.237  0.3215  0.3028 -0.8864
 8683TIP3   OH247463   3.730   4.682  12.304 -0.2351  0.5375 -0.4433
 8683TIP3    H147464   3.798   4.645  12.360 -1.9551  0.1982  1.5316
 8683TIP3    H247465   3.778   4.734  12.239  1.9499 -0.8528 -0.0373
 8684TIP3   OH247466   5.563   5.833   4.969  0.2430  0.1973 -0.0678
 8684TIP3    H147467   5.583   5.926   4.965  1.8179 -0.1157 -0.4622
 8684TIP3    H247468   5.593   5.805   5.055  0.5970 -0.1047 -0.2851
 8685TIP3   OH247469   0.924   3.178  17.011 -0.1250 -0.0514  0.4005
 8685TIP3    H147470   0.923   3.158  16.918 -2.2214 -0.5921  0.4802
 8685TIP3    H247471   0.832   3.195  17.033  0.0182 -1.7616  2.7051
 8686TIP3   OH247472   5.332   0.027  16.952  0.4350  0.3865  0.3637
 8686TIP3    H147473   5.269   0.047  17.021 -0.4134  1.4508 -0.6812
 8686TIP3    H247474   5.406   0.085  16.970  0.2628  0.5812  0.4448
 8687TIP3   OH247475   5.392   5.007  13.392 -0.0554  0.2163  0.3570
 8687TIP3    H147476   5.339   5.022  13.314 -0.5354  0.6194  0.7598
 8687TIP3    H247477   5.479   4.985  13.357  0.2368  2.2037 -0.2948
 8688TIP3   OH247478   2.402   5.925  16.842  0.2384  0.8754  0.4973
 8688TIP3    H147479   2.445   5.913  16.757  0.5256  0.6655  0.6713
 8688TIP3    H247480   2.373   6.016  16.841 -0.0825  0.7665  0.0261
 8689TIP3   OH247481   3.233   1.227  11.426  0.7608 -0.2914  0.2018
 8689TIP3    H147482   3.304   1.206  11.366  0.3880  1.1567 -0.7897
 8689TIP3    H247483   3.254   1.178  11.506  2.2772 -0.7426 -0.4411
 8690TIP3   OH247484   1.393   4.424   1.806 -0.5706 -0.7029 -0.2644
 8690TIP3    H147485   1.313   4.375   1.792  0.0840 -1.5605 -1.1237
 8690TIP3    H247486   1.462   4.369   1.770  0.4232 -0.0169  0.5064
 8691TIP3   OH247487   0.757   6.524  16.538  0.8063 -0.0312 -0.3782
 8691TIP3    H147488   0.725   6.608  16.571  1.1408 -0.0106 -0.1101
 8691TIP3    H247489   0.830   6.546  16.480  1.3626 -0.1787  0.2564
 8692TIP3   OH247490   6.139   1.758   0.390 -0.1757  0.2419  0.6123
 8692TIP3    H147491   6.091   1.837   0.417 -0.7518  0.1562 -0.1257
 8692TIP3    H247492   6.110   1.742   0.300  0.4754 -0.4069  0.5084
 8693TIP3   OH247493   2.500   3.174  11.094 -0.5373 -0.8368  0.1629
 8693TIP3    H147494   2.566   3.216  11.038 -1.2590 -0.3816 -0.3559
 8693TIP3    H247495   2.484   3.089  11.052  0.1093 -1.1837  0.5975
 8694TIP3   OH247496   5.506   1.602   0.337  0.4131 -0.7908  0.1430
 8694TIP3    H147497   5.469   1.568   0.255  0.5017  0.0853 -0.2674
 8694TIP3    H247498   5.494   1.530   0.399 -1.7985 -0.6405 -0.0175
 8695TIP3   OH247499   1.495   4.509  13.128 -0.1922 -0.1091  0.6186
 8695TIP3    H147500   1.583   4.502  13.090 -0.9259  2.7804 -2.0901
 8695TIP3    H247501   1.455   4.424  13.113  0.9697 -0.3510 -1.5518
 8696TIP3   OH247502   6.712   0.447  16.917 -0.7727 -0.0551 -0.3119
 8696TIP3    H147503   6.687   0.393  16.992 -2.5937  2.2669  0.8878
 8696TIP3    H247504   6.779   0.507  16.952  0.0339 -0.4235 -1.1820
 8697TIP3   OH247505   3.586   1.325  13.585 -0.0153 -0.9134 -0.0742
 8697TIP3    H147506   3.628   1.262  13.526  1.2402  0.8510 -1.1920
 8697TIP3    H247507   3.496   1.294  13.594  0.0813 -1.8994 -2.0130
 8698TIP3   OH247508   6.417   0.387  14.158  0.4225 -0.0668  0.2797
 8698TIP3    H147509   6.413   0.313  14.218 -0.3788  1.2424  1.9278
 8698TIP3    H247510   6.365   0.455  14.200 -1.0002  0.6313 -2.3737
 8699TIP3   OH247511   1.221   3.025  11.953  0.2766  0.5822  0.2279
 8699TIP3    H147512   1.153   3.047  12.016 -0.5314 -0.3687 -0.2924
 8699TIP3    H247513   1.190   3.062  11.870  1.5338  2.2081  0.4302
 8700TIP3   OH247514   2.697   4.434   5.433 -0.1791 -0.5505  0.0060
 8700TIP3    H147515   2.643   4.487   5.375 -1.1969 -1.9032 -0.3239
 8700TIP3    H247516   2.782   4.428   5.388  0.0780  1.0283  0.2106
 8701TIP3   OH247517   1.248   3.644   2.052  0.0962  0.3972  0.1098
 8701TIP3    H147518   1.168   3.663   2.002  0.0473 -0.6463 -0.2431
 8701TIP3    H247519   1.317   3.688   2.003 -0.1049  0.2968 -0.2724
 8702TIP3   OH247520   1.630   1.917  13.066 -0.7496  0.3955  0.0406
 8702TIP3    H147521   1.573   1.841  13.061 -1.1351  0.7345 -0.8810
 8702TIP3    H247522   1.665   1.927  12.977  0.4262  0.4363  0.4919
 8703TIP3   OH247523   0.036   6.749  12.116  0.2909 -0.3809  0.4682
 8703TIP3    H147524   0.098   6.677  12.130  1.5771  0.3229 -1.3151
 8703TIP3    H247525   0.000   6.767  12.203  1.5615 -1.7417  1.3094
 8704TIP3   OH247526   1.616   1.522  11.935 -0.6117  0.1158 -0.3161
 8704TIP3    H147527   1.605   1.431  11.961 -0.7998  0.1016 -0.4444
 8704TIP3    H247528   1.541   1.568  11.972  0.5636  0.6292  1.5879
 8705TIP3   OH247529   6.758   6.355   0.632  0.0720  0.5760 -0.1838
 8705TIP3    H147530   6.679   6.403   0.607  0.3306  0.5487 -1.1168
 8705TIP3    H247531   6.829   6.419   0.621  0.1380  0.7521  1.1331
 8706TIP3   OH247532   4.503   3.705  13.220 -0.0729  0.1229 -0.5938
 8706TIP3    H147533   4.561   3.762  13.272  0.3397 -0.1585 -0.7412
 8706TIP3    H247534   4.547   3.697  13.136  0.9836 -2.1267  0.0949
 8707TIP3   OH247535   3.586   6.373   0.508  0.1782 -0.2095 -0.2482
 8707TIP3    H147536   3.586   6.395   0.602 -0.2333 -0.1684 -0.2569
 8707TIP3    H247537   3.569   6.279   0.505  0.3207 -0.2358 -0.2801
 8708TIP3   OH247538   3.130   0.305  12.085 -0.9941 -0.4887  0.5549
 8708TIP3    H147539   3.098   0.313  12.175 -3.5309 -1.7484 -0.1233
 8708TIP3    H247540   3.101   0.218  12.057 -0.0688 -0.2173 -1.4055
 8709TIP3   OH247541   4.441   3.814  14.984 -0.7329  0.0920 -0.0671
 8709TIP3    H147542   4.490   3.769  15.052  2.7564  0.6207 -1.9780
 8709TIP3    H247543   4.381   3.748  14.948  2.0943 -2.2424 -0.8222
 8710TIP3   OH247544   5.302   2.709   3.258  0.2359 -0.2783  0.0917
 8710TIP3    H147545   5.310   2.779   3.323  3.0956 -0.2344 -0.1763
 8710TIP3    H247546   5.299   2.756   3.174 -4.3203 -0.2766 -0.0055
 8711TIP3   OH247547   1.361   3.574  16.419  0.5526 -0.2484 -0.1277
 8711TIP3    H147548   1.435   3.631  16.440  0.3659 -0.3242  0.7919
 8711TIP3    H247549   1.303   3.629  16.366  0.4768  0.3581  0.5680
 8712TIP3   OH247550   5.390   4.217   4.860  0.0907 -0.3186 -0.0020
 8712TIP3    H147551   5.387   4.310   4.837 -0.1953 -0.1282  0.7770
 8712TIP3    H247552   5.483   4.197   4.868  0.2535 -0.5475 -1.8632
 8713TIP3   OH247553   1.430   4.163  15.737 -0.3583 -0.3333 -0.2295
 8713TIP3    H147554   1.490   4.216  15.685  2.4232 -2.0239  1.0676
 8713TIP3    H247555   1.410   4.088  15.682 -0.9088 -0.0378 -0.4469
 8714TIP3   OH247556   4.371   3.094  16.836  0.4239  0.2403  0.4077
 8714TIP3    H147557   4.390   3.009  16.797 -2.1831 -0.0503 -0.4625
 8714TIP3    H247558   4.314   3.137  16.772  0.6555  2.1244  1.4002
 8715TIP3   OH247559   2.116   2.986  15.028  0.2372  0.4418  0.0694
 8715TIP3    H147560   2.098   2.935  14.949 -0.1690  0.1552  0.3440
 8715TIP3    H247561   2.197   3.033  15.008  1.3322 -1.2575  0.2736
 8716TIP3   OH247562   2.452   4.041  12.690 -0.2319  0.2766  0.6454
 8716TIP3    H147563   2.429   3.948  12.684 -0.8883  0.4618  0.2495
 8716TIP3    H247564   2.414   4.080  12.612  2.4574  0.3924 -0.7237
 8717TIP3   OH247565   6.057   3.426   6.273  0.4046 -0.2889 -0.5265
 8717TIP3    H147566   6.059   3.339   6.232 -1.1665 -0.6430  0.0727
 8717TIP3    H247567   5.970   3.431   6.314  1.2948  0.6619  1.4017
 8718TIP3   OH247568   3.927   2.341   0.536 -0.2116  0.3819 -0.3025
 8718TIP3    H147569   3.940   2.321   0.444 -0.4006 -0.8333 -0.0829
 8718TIP3    H247570   4.009   2.315   0.578  0.3693  2.1224 -0.2783
 8719TIP3   OH247571   0.878   4.992   4.674  0.0941  0.3813  0.1398
 8719TIP3    H147572   0.957   5.027   4.716  0.0464  1.2106 -0.4224
 8719TIP3    H247573   0.906   4.970   4.585 -0.2584  0.5291 -0.0103
 8720TIP3   OH247574   3.746   3.364  15.857 -0.6750 -0.6460 -0.3659
 8720TIP3    H147575   3.711   3.275  15.846  0.3945 -1.2358  0.6734
 8720TIP3    H247576   3.730   3.384  15.949 -0.5494  0.0926 -0.5012
 8721TIP3   OH247577   6.025   6.173  14.026  0.2138  0.2535  0.6024
 8721TIP3    H147578   6.016   6.078  14.039  1.0622  0.3224  1.8808
 8721TIP3    H247579   6.101   6.197  14.078 -0.2558  1.7222  0.6513
 8722TIP3   OH247580   4.935   3.214   4.959  0.6620  0.1103 -0.1746
 8722TIP3    H147581   4.875   3.240   5.029 -0.0143  0.7936 -0.9912
 8722TIP3    H247582   4.974   3.296   4.928  3.3619 -0.4128  1.4540
 8723TIP3   OH247583   4.729   4.945   0.437 -0.3586 -0.1528  0.4768
 8723TIP3    H147584   4.708   4.900   0.519 -0.5777 -0.1960  0.3963
 8723TIP3    H247585   4.825   4.947   0.435 -0.3253 -1.2924  0.1224
 8724TIP3   OH247586   4.960   1.200  14.521  0.3563 -0.2833  0.2801
 8724TIP3    H147587   4.917   1.130  14.570 -1.0144 -0.0811 -0.5794
 8724TIP3    H247588   4.960   1.170  14.430  0.8606  0.2951  0.0793
 8725TIP3   OH247589   4.629   2.540  16.956 -0.0518  0.3581 -0.5897
 8725TIP3    H147590   4.565   2.603  16.990 -0.4510 -0.2160 -0.2464
 8725TIP3    H247591   4.714   2.582  16.970 -0.2045  0.1903  1.0657
 8726TIP3   OH247592   0.670   4.839  15.652  0.0773  0.3784  0.0003
 8726TIP3    H147593   0.641   4.885  15.573  1.1211 -0.5351 -0.9666
 8726TIP3    H247594   0.704   4.908  15.709 -1.4856  1.1503  0.0294
 8727TIP3   OH247595   6.742   4.448  16.316  0.1308  0.4006  0.1666
 8727TIP3    H147596   6.822   4.396  16.323  0.0660  0.1944 -0.5521
 8727TIP3    H247597   6.673   4.384  16.298 -0.0115  0.6822 -0.3277
 8728TIP3   OH247598   1.356   1.239   2.116  0.2735 -0.4796  0.5566
 8728TIP3    H147599   1.428   1.257   2.056  0.7382 -0.3261  1.1524
 8728TIP3    H247600   1.352   1.143   2.120 -1.3343 -0.5871 -1.5752
 8729TIP3   OH247601   5.939   1.021   2.406  0.1215  0.0420 -0.2835
 8729TIP3    H147602   5.882   0.950   2.375  0.3433 -0.1775 -0.1881
 8729TIP3    H247603   5.901   1.047   2.490 -0.1233  0.2268 -0.4491
 8730TIP3   OH247604   1.436   6.351   1.068  0.4578  0.3403  0.3056
 8730TIP3    H147605   1.376   6.358   0.994  1.6601 -0.0477 -0.7501
 8730TIP3    H247606   1.437   6.258   1.091  1.1385  0.2359 -0.1185
 8731TIP3   OH247607   5.649   4.705   3.755 -0.2215 -0.1667  0.5020
 8731TIP3    H147608   5.622   4.730   3.843 -0.6447 -0.4428  0.4537
 8731TIP3    H247609   5.574   4.724   3.699  0.3555  0.8364  0.0444
 8732TIP3   OH247610   0.287   5.159  13.029 -0.8601 -0.5537 -0.3337
 8732TIP3    H147611   0.232   5.232  13.057 -0.6354 -0.4680 -0.1122
 8732TIP3    H247612   0.227   5.100  12.984 -1.2064 -0.6481  0.2439
 8733TIP3   OH247613   1.852   6.141  13.097 -0.5370  0.1999 -0.0826
 8733TIP3    H147614   1.778   6.182  13.141  0.6233  0.2319  1.9361
 8733TIP3    H247615   1.819   6.056  13.068 -1.9594  1.0983 -1.1856
 8734TIP3   OH247616   4.379   0.531   1.104  0.3225 -0.0834  0.2289
 8734TIP3    H147617   4.413   0.612   1.143 -0.5000 -0.2650  1.3460
 8734TIP3    H247618   4.365   0.553   1.012  0.5502  0.8962  0.4201
 8735TIP3   OH247619   5.865   3.502  14.088  0.0909 -0.0137 -0.1173
 8735TIP3    H147620   5.801   3.494  14.159 -0.3392  0.1602 -0.4852
 8735TIP3    H247621   5.928   3.432  14.105  0.4633  0.5396  0.9136
 8736TIP3   OH247622   2.716   3.126  15.114  0.0467 -0.7300  0.3982
 8736TIP3    H147623   2.748   3.197  15.058 -0.9463 -1.2560 -0.9139
 8736TIP3    H247624   2.653   3.079  15.058 -1.1773 -1.1488  2.0589
 8737TIP3   OH247625   0.264   1.717  15.306 -0.0821 -0.0293  0.0474
 8737TIP3    H147626   0.329   1.785  15.322 -0.5716  0.7975 -1.3039
 8737TIP3    H247627   0.262   1.708  15.210 -2.4014  0.4740 -0.0252
 8738TIP3   OH247628   6.286   4.152   1.576 -0.2599  0.4638  0.2501
 8738TIP3    H147629   6.303   4.227   1.519  1.5014 -2.2288 -3.1948
 8738TIP3    H247630   6.237   4.091   1.522  0.4280 -1.8288  2.0182
 8739TIP3   OH247631   6.285   0.273  12.174  0.0252  0.1754  0.0429
 8739TIP3    H147632   6.252   0.357  12.145 -2.3372 -0.6388  0.1980
 8739TIP3    H247633   6.309   0.227  12.094 -1.0053  0.0978 -0.2323
 8740TIP3   OH247634   1.105   5.713   5.252  0.0141  0.2765 -0.4427
 8740TIP3    H147635   1.064   5.704   5.167 -2.7878 -0.1041  0.8335
 8740TIP3    H247636   1.101   5.807   5.271 -1.0836  0.1485  0.0178
 8741TIP3   OH247637   2.560   5.051  11.998  0.0551 -0.3962 -0.1088
 8741TIP3    H147638   2.536   4.960  12.017 -0.3598 -0.1476  0.6276
 8741TIP3    H247639   2.476   5.096  11.993  0.2878  0.1116  0.4391
 8742TIP3   OH247640   1.528   5.813   3.483 -0.1754  0.1951  0.0743
 8742TIP3    H147641   1.555   5.841   3.570  1.4129  0.4899 -0.4714
 8742TIP3    H247642   1.518   5.895   3.434 -0.7974  0.0209 -0.1010
 8743TIP3   OH247643   0.419   3.380  10.927 -0.0568  0.6914  0.3193
 8743TIP3    H147644   0.383   3.433  10.997 -2.6794 -0.5958  0.0828
 8743TIP3    H247645   0.513   3.394  10.931 -0.4054  2.9746  2.1277
 8744TIP3   OH247646   5.726   4.380  10.729 -0.3761 -0.3670 -0.2990
 8744TIP3    H147647   5.686   4.467  10.717 -1.1736 -0.4004  1.6234
 8744TIP3    H247648   5.741   4.375  10.824  0.0360 -2.1700 -0.4412
 8745TIP3   OH247649   1.446   6.520  12.696  0.0007 -0.4221 -0.0586
 8745TIP3    H147650   1.503   6.586  12.656  0.6993 -0.4589  0.8417
 8745TIP3    H247651   1.497   6.486  12.769 -0.9803 -0.8388  0.4488
 8746TIP3   OH247652   1.879   4.979  14.232 -0.0857 -0.7196  0.0304
 8746TIP3    H147653   1.830   5.047  14.184 -0.8407 -1.3078 -0.0564
 8746TIP3    H247654   1.963   4.974  14.188 -0.0618  0.0883 -0.0277
 8747TIP3   OH247655   5.665   3.810   4.652 -0.1100  0.1413 -0.9162
 8747TIP3    H147656   5.659   3.718   4.679 -1.8054  0.4576 -0.1194
 8747TIP3    H247657   5.643   3.809   4.559 -1.3535 -0.1336 -0.6313
 8748TIP3   OH247658   5.537   0.509   5.850  0.9149 -0.5791  0.4139
 8748TIP3    H147659   5.456   0.535   5.894  1.3391  2.1841 -0.2877
 8748TIP3    H247660   5.596   0.484   5.921 -0.2621 -1.8951  0.9766
 8749TIP3   OH247661   6.507   1.188  16.412 -0.2134 -0.2900 -0.1634
 8749TIP3    H147662   6.480   1.097  16.400  1.6913 -0.9448  0.0892
 8749TIP3    H247663   6.426   1.236  16.427 -1.0841 -2.3872  2.5591
 8750TIP3   OH247664   2.461   5.306   2.971 -0.5100 -0.0063 -0.4917
 8750TIP3    H147665   2.409   5.269   2.899 -0.2972  2.3804 -1.9872
 8750TIP3    H247666   2.405   5.375   3.007  0.6416  0.9522 -0.4965
 8751TIP3   OH247667   4.334   2.814  11.756  0.0252  0.0334  0.0363
 8751TIP3    H147668   4.295   2.883  11.702 -1.4311  0.3410  1.4043
 8751TIP3    H247669   4.395   2.769  11.697 -1.1223  0.6498 -1.6960
 8752TIP3   OH247670   4.532   6.620   5.606  0.1011 -0.1665 -0.0002
 8752TIP3    H147671   4.614   6.605   5.653  0.5070  0.3674 -0.5151
 8752TIP3    H247672   4.481   6.539   5.619  1.3184 -1.1142 -0.9178
 8753TIP3   OH247673   1.530   6.201  16.295 -0.5114  0.2029 -0.2195
 8753TIP3    H147674   1.483   6.131  16.250  0.7841  0.3895 -1.9623
 8753TIP3    H247675   1.479   6.217  16.374 -1.0366 -2.4542  0.0681
 8754TIP3   OH247676   0.567   4.616  12.691  0.0281 -0.1954  0.1025
 8754TIP3    H147677   0.501   4.664  12.742  0.0048  1.0513 -1.0409
 8754TIP3    H247678   0.516   4.561  12.631  0.0475 -0.5993  0.4526
 8755TIP3   OH247679   4.596   2.296  14.715 -0.2251  0.3751 -0.1807
 8755TIP3    H147680   4.621   2.371  14.769 -0.4879 -0.6944  1.4950
 8755TIP3    H247681   4.501   2.300  14.710 -0.3092 -0.2827  0.6260
 8756TIP3   OH247682   0.031   0.625   4.260 -0.3117 -0.4245 -0.3541
 8756TIP3    H147683  -0.028   0.700   4.267 -0.0014 -0.0179 -1.7507
 8756TIP3    H247684   0.076   0.637   4.176 -0.4824 -2.3373 -0.7754
 8757TIP3   OH247685   1.458   2.081   3.603  0.4663  0.5053 -0.1732
 8757TIP3    H147686   1.474   2.127   3.686 -0.3616  0.6601 -0.0939
 8757TIP3    H247687   1.443   2.151   3.540 -0.1980  0.3653 -0.1780
 8758TIP3   OH247688   2.159   5.871  13.857 -0.1941  0.0891  0.1082
 8758TIP3    H147689   2.118   5.922  13.927 -1.2787 -1.2830  0.5218
 8758TIP3    H247690   2.219   5.812  13.903  0.3932  0.3666 -0.2880
 8759TIP3   OH247691   4.234   0.090   2.386  0.0496  0.7108  0.2200
 8759TIP3    H147692   4.267   0.120   2.301  0.4202 -1.5974 -0.5421
 8759TIP3    H247693   4.188   0.009   2.365  1.8358 -1.0038  2.4257
 8760TIP3   OH247694   4.682   5.598  16.517 -0.2019 -0.4436 -0.6394
 8760TIP3    H147695   4.738   5.634  16.587 -2.7789 -0.6969  1.7445
 8760TIP3    H247696   4.724   5.515  16.494  2.1955  0.8814 -1.4559
 8761TIP3   OH247697   5.051   1.125   3.094  0.7798  0.2288 -0.1119
 8761TIP3    H147698   5.088   1.158   3.176 -0.6125  1.0997  0.2039
 8761TIP3    H247699   5.001   1.199   3.060 -0.5941 -0.8748 -0.5446
 8762TIP3   OH247700   2.913   2.740  13.221 -0.5492  0.0201 -0.2279
 8762TIP3    H147701   2.937   2.830  13.242 -1.1942  0.2006 -0.2365
 8762TIP3    H247702   2.896   2.742  13.126 -0.7445 -0.0621 -0.1961
 8763TIP3   OH247703   4.105   3.036  13.755  0.1870 -0.4043  0.2131
 8763TIP3    H147704   4.076   2.978  13.825  1.2354 -0.7618  0.3705
 8763TIP3    H247705   4.092   3.124  13.790 -1.0320 -0.5418  0.1258
 8764TIP3   OH247706   2.223   5.243   5.889  1.0754  0.8128 -0.9362
 8764TIP3    H147707   2.187   5.330   5.871 -0.8775  0.2478 -0.0312
 8764TIP3    H247708   2.273   5.254   5.969  1.2896  1.2071 -1.1204
 8765TIP3   OH247709   3.000   4.129   4.380 -0.4810  0.0858 -0.4184
 8765TIP3    H147710   2.965   4.078   4.306  0.4162  1.0412 -1.5372
 8765TIP3    H247711   2.956   4.093   4.457 -0.5465 -1.7665 -1.2718
 8766TIP3   OH247712   2.043   1.409   3.685  0.1889  0.3258 -0.1352
 8766TIP3    H147713   1.985   1.335   3.668 -0.4744  0.3418  1.8198
 8766TIP3    H247714   2.131   1.372   3.685 -0.2160 -0.7923  2.1544
 8767TIP3   OH247715   3.556   6.530  11.981  0.3926  0.1655 -0.2706
 8767TIP3    H147716   3.623   6.469  11.950  0.8789  0.9074 -0.7130
 8767TIP3    H247717   3.491   6.532  11.911 -0.1354 -0.5930  0.1817
 8768TIP3   OH247718   3.334   1.930  15.155 -0.0952 -0.4799 -0.4862
 8768TIP3    H147719   3.400   1.992  15.125  0.8069 -1.0140  0.3203
 8768TIP3    H247720   3.259   1.984  15.179  0.4744  0.2599 -0.3255
 8769TIP3   OH247721   3.529   4.978  16.070  0.4170 -0.3144  0.4831
 8769TIP3    H147722   3.604   4.920  16.056 -0.4914 -1.6177  0.8199
 8769TIP3    H247723   3.463   4.922  16.111 -1.0578  0.5833 -0.5756
 8770TIP3   OH247724   0.739   2.571  13.477  0.3112 -0.2685 -0.3225
 8770TIP3    H147725   0.807   2.599  13.417  1.8598  0.2049  1.5542
 8770TIP3    H247726   0.786   2.539  13.554 -1.5686  0.0483  1.0441
 8771TIP3   OH247727   3.855   1.022   0.958  0.0945 -0.0138 -0.4361
 8771TIP3    H147728   3.851   0.956   0.889 -1.0645  1.1943 -1.5895
 8771TIP3    H247729   3.851   1.106   0.912  0.7848  0.8665  1.0224
 8772TIP3   OH247730   5.364   6.413  11.449 -0.5628 -0.6177  0.0134
 8772TIP3    H147731   5.455   6.442  11.456 -0.6803 -0.4175  0.8581
 8772TIP3    H247732   5.312   6.493  11.462 -0.8909 -0.2347 -2.8618
 8773TIP3   OH247733   5.789   6.488  16.027  0.5035  0.2852  0.1307
 8773TIP3    H147734   5.812   6.408  15.979  0.8396 -0.2330  1.1230
 8773TIP3    H247735   5.694   6.488  16.028  0.4996 -0.0156 -0.0147
 8774TIP3   OH247736   1.909   2.324  10.463  0.0669 -0.2432 -1.0697
 8774TIP3    H147737   1.976   2.312  10.531  0.5836  0.8413 -1.3718
 8774TIP3    H247738   1.838   2.371  10.508  0.7514  1.2144 -1.4411
 8775TIP3   OH247739   5.652   0.743   6.161 -0.0527 -0.0188  0.1420
 8775TIP3    H147740   5.627   0.834   6.147  1.1613  0.3236  0.1144
 8775TIP3    H247741   5.710   0.745   6.238 -0.6932 -0.8841  0.6652
 8776TIP3   OH247742   2.521   5.648  15.995 -0.7925  0.8581  0.2501
 8776TIP3    H147743   2.598   5.603  15.960 -0.5426  2.7733 -1.8851
 8776TIP3    H247744   2.552   5.690  16.075 -0.1823 -0.0787  0.5137
 8777TIP3   OH247745   4.350   6.402   0.273 -0.5127  0.1587  0.6157
 8777TIP3    H147746   4.281   6.462   0.246 -3.0878 -1.8478  2.2988
 8777TIP3    H247747   4.389   6.372   0.191 -0.9443  2.0440 -0.3418
 8778TIP3   OH247748   1.932   2.841  16.847  0.3587 -0.0714 -0.8929
 8778TIP3    H147749   1.958   2.865  16.936  1.4197 -0.4044 -1.1059
 8778TIP3    H247750   1.845   2.802  16.857  0.4058  0.0353 -0.0243
 8779TIP3   OH247751   1.890   1.719   4.739  0.1288  0.1845  0.3112
 8779TIP3    H147752   1.917   1.800   4.697 -0.4451  0.6075  0.7311
 8779TIP3    H247753   1.872   1.659   4.666 -0.4371  0.7684 -0.0490
 8780TIP3   OH247754   1.854   5.220   3.249  0.3748 -0.4534 -0.0294
 8780TIP3    H147755   1.824   5.277   3.178 -0.1816 -0.5929  0.0944
 8780TIP3    H247756   1.777   5.171   3.275  0.7760 -1.0362  0.0885
 8781TIP3   OH247757   5.674   0.520  14.917  0.2111  0.2163  0.0997
 8781TIP3    H147758   5.754   0.469  14.901  0.2176  0.0016  0.7858
 8781TIP3    H247759   5.617   0.461  14.966 -0.5235  0.2453 -0.6967
 8782TIP3   OH247760   0.299   3.163   5.280  0.1613  0.5783  0.1388
 8782TIP3    H147761   0.213   3.123   5.280  0.7375 -0.7171 -0.2247
 8782TIP3    H247762   0.317   3.182   5.187  0.7136 -0.1935  0.0791
 8783TIP3   OH247763   4.339   4.118   0.641 -0.7717 -0.2029 -0.6345
 8783TIP3    H147764   4.385   4.050   0.691 -0.9282 -0.3255 -0.6594
 8783TIP3    H247765   4.397   4.194   0.646 -0.4954 -0.4026 -0.7884
 8784TIP3   OH247766   1.658   0.650  11.868  0.2221 -0.2502  0.3455
 8784TIP3    H147767   1.620   0.640  11.781  0.5718 -3.2778  0.4258
 8784TIP3    H247768   1.720   0.577  11.876  1.4599  0.9087  2.5333
 8785TIP3   OH247769   3.069   6.362  14.896 -0.1183 -0.2259  0.1507
 8785TIP3    H147770   3.042   6.271  14.908 -2.0763  0.1032 -1.2644
 8785TIP3    H247771   3.017   6.393  14.822  1.9066  1.5016 -0.6587
 8786TIP3   OH247772   2.572   4.580  11.759 -0.1733 -0.1284  0.0447
 8786TIP3    H147773   2.552   4.487  11.761 -1.0016  0.0199  2.8136
 8786TIP3    H247774   2.666   4.584  11.741 -0.2278 -1.4606 -0.6479
 8787TIP3   OH247775   0.994   6.521  11.509 -1.1951 -0.2200  0.3142
 8787TIP3    H147776   1.054   6.520  11.435 -0.9486  0.7822  0.4813
 8787TIP3    H247777   1.028   6.453  11.568 -0.9819 -0.5367 -0.1611
 8788TIP3   OH247778   0.675   5.344  17.007  0.2048 -0.1715  0.0532
 8788TIP3    H147779   0.582   5.342  16.987  0.1605  1.0307  0.0397
 8788TIP3    H247780   0.705   5.429  16.973  1.3717 -0.6838 -0.2491
 8789TIP3   OH247781   5.027   5.327   1.341  0.0594 -0.3146 -0.1468
 8789TIP3    H147782   4.941   5.347   1.379 -0.4110 -1.0321 -0.8006
 8789TIP3    H247783   5.083   5.308   1.416  0.2697  2.2916  0.4748
 8790TIP3   OH247784   0.727   5.122   4.425 -0.3624 -0.0291  0.4550
 8790TIP3    H147785   0.815   5.096   4.399  0.0008  1.2364  0.3637
 8790TIP3    H247786   0.740   5.181   4.499 -1.2108 -0.8489  1.2780
 8791TIP3   OH247787   3.451   5.301  13.429 -0.3385 -0.1239  0.0107
 8791TIP3    H147788   3.501   5.332  13.504 -1.2719  1.2201  0.1293
 8791TIP3    H247789   3.416   5.216  13.456 -0.8022  0.4165  1.1896
 8792TIP3   OH247790   6.098   4.928   1.236 -0.2881 -1.4045  0.5644
 8792TIP3    H147791   6.109   4.886   1.321 -0.5264 -2.1792  0.2206
 8792TIP3    H247792   6.104   4.857   1.172 -0.4694 -0.8892 -0.0479
 8793TIP3   OH247793   5.334   2.659   3.742 -0.3985 -0.2500 -0.1240
 8793TIP3    H147794   5.305   2.745   3.712  1.1741  0.2146 -0.4129
 8793TIP3    H247795   5.317   2.659   3.837 -0.3974  0.3703 -0.1231
 8794TIP3   OH247796   4.606   3.335  11.257 -0.2834 -0.2809 -0.0812
 8794TIP3    H147797   4.513   3.351  11.273 -0.4739  0.0978 -1.4831
 8794TIP3    H247798   4.608   3.250  11.213  0.1285 -0.6913  0.6874
 8795TIP3   OH247799   0.342   5.111  13.913  0.1572 -0.0178 -0.0593
 8795TIP3    H147800   0.373   5.021  13.918 -2.7043 -1.0737  0.8503
 8795TIP3    H247801   0.307   5.129  14.001 -1.6644  0.9907 -0.9272
 8796TIP3   OH247802   2.197   0.650   5.487 -0.2264 -0.2887 -0.1340
 8796TIP3    H147803   2.149   0.684   5.563 -1.5291  0.5102 -1.2906
 8796TIP3    H247804   2.162   0.698   5.412 -0.3988 -2.4603 -1.5356
 8797TIP3   OH247805   5.908   0.464  17.023  0.0052  0.3313  0.3414
 8797TIP3    H147806   5.923   0.539  17.080 -0.9474  0.2305  0.7374
 8797TIP3    H247807   5.918   0.388  17.080 -1.2728  0.2395  0.4647
 8798TIP3   OH247808   2.292   2.219   5.894  0.2795 -0.1811  0.3005
 8798TIP3    H147809   2.264   2.309   5.876  0.2621 -0.2791 -0.1794
 8798TIP3    H247810   2.377   2.228   5.936 -0.3061  0.1084  1.4587
 8799TIP3   OH247811   3.443   1.843  13.813 -0.6224 -0.0687 -0.9182
 8799TIP3    H147812   3.439   1.749  13.829 -0.2524  0.1179  0.4208
 8799TIP3    H247813   3.533   1.858  13.782  0.2879  0.1786  1.6168
 8800TIP3   OH247814   1.261   2.075   2.481 -0.0382 -0.3085  0.1748
 8800TIP3    H147815   1.290   2.163   2.503  0.4212 -0.3042 -0.4127
 8800TIP3    H247816   1.209   2.086   2.401 -0.7856 -0.4492  0.6365
 8801TIP3   OH247817   1.611   5.005  16.177 -0.0084 -0.6506 -0.5299
 8801TIP3    H147818   1.622   4.913  16.199 -1.0073 -0.1807  2.3434
 8801TIP3    H247819   1.679   5.050  16.228  1.1080  0.2212 -2.6323
 8802TIP3   OH247820   5.455   0.304  15.380 -0.1214 -0.2883 -0.0769
 8802TIP3    H147821   5.478   0.310  15.473  0.3198  0.5031 -0.2219
 8802TIP3    H247822   5.365   0.335  15.375 -0.3565 -0.9188  0.1611
 8803TIP3   OH247823   2.286   3.568   3.242  0.0207  0.0731 -0.3218
 8803TIP3    H147824   2.266   3.492   3.187  1.1445 -0.3648 -0.1392
 8803TIP3    H247825   2.231   3.556   3.319 -1.2666  0.4784 -1.1392
 8804TIP3   OH247826   2.347   6.365  11.498  0.1593 -0.3132  0.5138
 8804TIP3    H147827   2.344   6.451  11.539  0.3195  0.1169 -0.3780
 8804TIP3    H247828   2.399   6.312  11.559 -0.0203  0.1838  1.1114
 8805TIP3   OH247829   4.224   4.164  12.504  0.0874 -0.2965  0.0375
 8805TIP3    H147830   4.151   4.192  12.560 -0.5328 -2.2159  0.2621
 8805TIP3    H247831   4.222   4.068  12.508  1.1800 -0.4434 -1.8236
 8806TIP3   OH247832   2.344   6.176   2.012 -0.1288 -0.3902 -0.8486
 8806TIP3    H147833   2.254   6.142   2.011 -0.0343 -0.8354  1.1809
 8806TIP3    H247834   2.389   6.125   1.945 -1.1501 -0.8799 -1.1909
 8807TIP3   OH247835   6.528   0.410  16.713  0.3232 -0.2212 -0.5618
 8807TIP3    H147836   6.584   0.470  16.764  0.3437 -0.1195 -0.7021
 8807TIP3    H247837   6.542   0.325  16.754 -0.1256 -0.0344 -0.0132
 8808TIP3   OH247838   0.666   3.713  13.503 -0.5166 -0.3971 -0.6374
 8808TIP3    H147839   0.575   3.686  13.498 -0.7388  0.5680 -2.3872
 8808TIP3    H247840   0.703   3.690  13.417  0.3256  1.1035 -0.7138
 8809TIP3   OH247841   5.339   0.804   4.601  0.1030  0.2561  0.0805
 8809TIP3    H147842   5.270   0.847   4.550  0.2718 -0.4259 -0.7370
 8809TIP3    H247843   5.292   0.744   4.658 -0.0677  0.8405  0.5735
 8810TIP3   OH247844   1.877   4.199   4.960  0.6729 -0.1189  0.0788
 8810TIP3    H147845   1.895   4.166   4.872 -0.5078  1.1265 -0.6723
 8810TIP3    H247846   1.784   4.185   4.973  0.8211 -0.2328  1.1267
 8811TIP3   OH247847   1.812   0.889  14.649 -0.2284  0.2767  0.5549
 8811TIP3    H147848   1.738   0.929  14.604 -0.2362  0.0725  0.3815
 8811TIP3    H247849   1.782   0.799  14.668 -0.3683  0.4694  1.3039
 8812TIP3   OH247850   2.692   6.538   1.748  0.0775 -0.0388 -0.3467
 8812TIP3    H147851   2.733   6.608   1.799 -1.4553 -0.1660  1.1343
 8812TIP3    H247852   2.717   6.558   1.657  0.9785  1.5135  0.1968
 8813TIP3   OH247853   1.149   0.005   2.105 -0.6900  0.0124 -0.6510
 8813TIP3    H147854   1.182   0.081   2.152 -0.5396  0.2544 -1.1511
 8813TIP3    H247855   1.192  -0.070   2.147  0.4377  0.3156 -1.2413
 8814TIP3   OH247856   0.876   1.477  16.375  0.1943  0.0593 -0.0587
 8814TIP3    H147857   0.835   1.555  16.339 -0.8979  0.4619  1.9255
 8814TIP3    H247858   0.967   1.503  16.392  0.1199  0.5468 -0.4002
 8815TIP3   OH247859   4.833   1.848  12.565 -0.4151 -0.9332  0.3488
 8815TIP3    H147860   4.818   1.784  12.495 -3.2545  0.0442 -0.0869
 8815TIP3    H247861   4.830   1.932  12.520  0.4243 -0.3765  1.3075
 8816TIP3   OH247862   0.343   6.086  16.062  0.1693 -0.7774  0.0499
 8816TIP3    H147863   0.330   6.014  16.123 -1.5026 -1.5638 -1.1484
 8816TIP3    H247864   0.266   6.142  16.074  0.7727  0.0835 -0.0066
 8817TIP3   OH247865   1.865   2.421  14.282  0.5133  0.0156 -0.1203
 8817TIP3    H147866   1.944   2.382  14.244  0.1798 -2.1165  1.2015
 8817TIP3    H247867   1.849   2.371  14.362 -2.4499 -0.0277 -0.5921
 8818TIP3   OH247868   0.398   5.337   5.377 -0.0877  0.0929 -0.4884
 8818TIP3    H147869   0.433   5.409   5.430 -0.3118  0.2473 -0.5470
 8818TIP3    H247870   0.456   5.263   5.395 -0.2144  0.1224  0.0353
 8819TIP3   OH247871   0.126   4.199   3.734 -0.2322 -0.2308  0.2121
 8819TIP3    H147872   0.215   4.203   3.769 -0.8088  0.5406  1.6989
 8819TIP3    H247873   0.126   4.261   3.661  0.4319 -0.1784  0.2505
 8820TIP3   OH247874   3.516   0.605   4.015  0.0377 -0.4048  0.1064
 8820TIP3    H147875   3.610   0.607   4.033 -0.1941 -0.9125  1.4293
 8820TIP3    H247876   3.510   0.567   3.927  1.0371 -0.8897  0.2309
 8821TIP3   OH247877   5.994   3.297  15.454 -0.1186  0.0695  0.2878
 8821TIP3    H147878   5.951   3.230  15.400 -0.7686  0.4447  0.3309
 8821TIP3    H247879   5.954   3.379  15.427 -0.6419  0.2373  1.4992
 8822TIP3   OH247880   1.457   6.391   6.109  0.1678 -0.6636  0.2761
 8822TIP3    H147881   1.498   6.437   6.183  0.4021 -0.4587  0.0220
 8822TIP3    H247882   1.525   6.388   6.042  0.1745 -1.4464  0.3155
 8823TIP3   OH247883   6.071   1.043  13.958  0.1854 -0.0435  0.0874
 8823TIP3    H147884   6.124   1.027  13.880 -0.9323 -0.5899 -0.5783
 8823TIP3    H247885   6.135   1.045  14.030  1.0071 -1.9698 -0.5151
 8824TIP3   OH247886   2.988   0.736   1.506  0.1163  0.8189  0.7455
 8824TIP3    H147887   3.000   0.777   1.420  1.9274 -2.8031 -0.9285
 8824TIP3    H247888   3.074   0.742   1.547  0.4652 -1.2601  0.3995
 8825TIP3   OH247889   0.075   6.210  11.425 -0.2168 -0.0796 -0.1501
 8825TIP3    H147890   0.020   6.264  11.368 -1.9458 -0.9096  0.6623
 8825TIP3    H247891   0.069   6.122  11.388  2.1146  0.1045 -1.1231
 8826TIP3   OH247892   1.931   3.740   0.941  0.0322 -0.3298  0.0832
 8826TIP3    H147893   2.003   3.684   0.969 -0.3686 -0.3841  1.0569
 8826TIP3    H247894   1.973   3.809   0.890  0.7453 -0.5140  0.4067
 8827TIP3   OH247895   1.491   0.895   4.807 -0.5772  0.4212  0.2274
 8827TIP3    H147896   1.501   0.916   4.900  0.4616 -0.1514  0.2611
 8827TIP3    H247897   1.580   0.876   4.777 -0.9610  0.1370 -0.7731
 8828TIP3   OH247898   4.628   6.122   4.908  0.2209  0.5236 -0.2137
 8828TIP3    H147899   4.633   6.205   4.860 -1.2199 -0.4797 -2.2702
 8828TIP3    H247900   4.645   6.055   4.841  0.3133 -0.8972  1.1780
 8829TIP3   OH247901   1.144   4.788  16.476  0.2660  0.0825  0.0428
 8829TIP3    H147902   1.213   4.827  16.421 -0.3476 -0.2184 -0.9539
 8829TIP3    H247903   1.190   4.723  16.529  0.6759 -0.5616 -1.0596
 8830TIP3   OH247904   3.495   3.221   4.712  0.0518  0.0811  0.2043
 8830TIP3    H147905   3.475   3.160   4.641 -0.8829 -1.3214  1.6118
 8830TIP3    H247906   3.550   3.288   4.671 -2.9691  1.0999 -2.5790
 8831TIP3   OH247907   0.296   5.697  12.836 -0.5916  0.4809 -0.6898
 8831TIP3    H147908   0.246   5.776  12.817 -0.2845  1.1959  1.3278
 8831TIP3    H247909   0.233   5.639  12.879 -0.0689  0.8487  0.6075
 8832TIP3   OH247910   5.186   5.992   4.666 -0.2268  0.0730  0.1324
 8832TIP3    H147911   5.208   6.005   4.574 -1.6565  3.2278  0.1165
 8832TIP3    H247912   5.271   5.982   4.710  0.4615 -1.6889 -1.4848
 8833TIP3   OH247913   1.497   5.242  14.417  0.0361  0.4696 -0.6540
 8833TIP3    H147914   1.531   5.317  14.369  0.9039  0.8048  0.4411
 8833TIP3    H247915   1.439   5.280  14.482  2.8594  0.5947  2.0130
 8834TIP3   OH247916   3.720   1.589  11.340 -0.1610  0.3190  0.2423
 8834TIP3    H147917   3.755   1.582  11.429 -1.6893  1.1691  0.9705
 8834TIP3    H247918   3.629   1.560  11.348 -0.3086  0.3529 -1.0677
 8835TIP3   OH247919   3.266   2.339   5.013  0.3091  0.3878 -0.0405
 8835TIP3    H147920   3.297   2.357   4.925 -1.4224  0.2107 -0.7210
 8835TIP3    H247921   3.344   2.314   5.062  1.4709  1.5851 -1.2159
 8836TIP3   OH247922   6.292   4.045  13.223  0.2523  0.2450 -0.0163
 8836TIP3    H147923   6.224   4.099  13.183  0.3677  1.2410  1.0808
 8836TIP3    H247924   6.277   4.053  13.317 -0.1580 -2.2223  0.2067
 8837TIP3   OH247925   4.123   6.579   1.491  0.3974 -0.4374 -0.5655
 8837TIP3    H147926   4.208   6.536   1.479  2.0506  2.3134  0.4325
 8837TIP3    H247927   4.144   6.671   1.506 -2.8897  0.7433 -2.1377
 8838TIP3   OH247928   0.498   1.746   2.442  0.4085  0.5568  0.7944
 8838TIP3    H147929   0.592   1.747   2.459  0.2187 -2.0909  2.5296
 8838TIP3    H247930   0.486   1.672   2.381 -0.7220 -0.6739  2.4222
 8839TIP3   OH247931   3.879   2.621   1.530  0.1854 -0.2828 -0.1112
 8839TIP3    H147932   3.865   2.710   1.561 -3.0995 -0.1926 -1.4162
 8839TIP3    H247933   3.808   2.571   1.568  2.1503 -2.5260  0.8684
 8840TIP3   OH247934   6.784   2.023   5.297 -0.8774 -0.0976  0.2247
 8840TIP3    H147935   6.856   2.026   5.233 -2.2763  1.3782 -1.3676
 8840TIP3    H247936   6.821   2.063   5.376  0.3136 -0.1981 -0.2490
 8841TIP3   OH247937   5.282   0.511  12.634  0.1722 -0.7046 -0.2385
 8841TIP3    H147938   5.271   0.453  12.709 -0.4417 -0.7023 -0.3231
 8841TIP3    H247939   5.377   0.528  12.630  0.0519  0.8139  1.6767
 8842TIP3   OH247940   4.165   0.734  15.635  0.2738  0.2008 -0.9983
 8842TIP3    H147941   4.070   0.722  15.625 -0.2981  4.0035 -1.7191
 8842TIP3    H247942   4.192   0.663  15.693 -2.8637 -1.4296 -1.2854
 8843TIP3   OH247943   0.347   2.077   2.951  0.0898  0.7228  0.3798
 8843TIP3    H147944   0.415   2.050   2.889 -0.3314  2.8286 -1.1304
 8843TIP3    H247945   0.379   2.047   3.036  2.5936  1.0360 -0.3634
 8844TIP3   OH247946   3.375   0.921   4.910  0.0694 -0.1414 -0.0113
 8844TIP3    H147947   3.364   0.911   4.815  0.4305  2.9955 -0.5032
 8844TIP3    H247948   3.465   0.893   4.927  0.8188  1.4330 -1.0740
 8845TIP3   OH247949   0.386   4.200  13.322  0.1205 -0.6700 -0.1008
 8845TIP3    H147950   0.450   4.129  13.330  0.7556  0.1312  3.1344
 8845TIP3    H247951   0.311   4.171  13.374 -0.9330 -0.2603 -1.3265
 8846TIP3   OH247952   2.377   5.929  13.164 -0.7871 -0.1748 -0.1829
 8846TIP3    H147953   2.288   5.950  13.190 -1.4399 -1.1408 -1.5376
 8846TIP3    H247954   2.399   5.996  13.099 -0.6482 -0.1327 -0.0931
 8847TIP3   OH247955   2.342   1.934   3.428 -0.0097  0.0898  0.4233
 8847TIP3    H147956   2.290   1.864   3.467 -0.8458  0.8706  0.7510
 8847TIP3    H247957   2.280   2.006   3.415  1.0647  1.2234  1.2579
 8848TIP3   OH247958   4.452   0.309   5.025 -0.5254 -0.0842 -0.3303
 8848TIP3    H147959   4.447   0.214   5.028 -2.2017 -0.0237 -0.4168
 8848TIP3    H247960   4.432   0.338   5.114  0.6549  0.1863 -0.1356
 8849TIP3   OH247961   0.857   4.806  14.041 -0.0744  0.5651  0.5843
 8849TIP3    H147962   0.771   4.847  14.049  0.6002  2.1922 -0.0504
 8849TIP3    H247963   0.896   4.814  14.128 -1.1499 -1.6986  1.3565
 8850TIP3   OH247964   0.551   0.610  16.339  0.1722 -0.3692 -0.1067
 8850TIP3    H147965   0.500   0.688  16.316  0.5202  0.0859  0.6005
 8850TIP3    H247966   0.627   0.645  16.385  1.2326 -1.0160 -1.3038
 8851TIP3   OH247967   3.535   1.569  12.551  0.5910  0.6725  0.1561
 8851TIP3    H147968   3.538   1.545  12.458  0.0018  0.1350  0.2720
 8851TIP3    H247969   3.595   1.507  12.593 -1.6202 -1.3107  0.5905
 8852TIP3   OH247970   2.017   4.627  13.943 -0.3518 -0.4614  0.0153
 8852TIP3    H147971   1.971   4.548  13.915 -2.2846  1.1741 -1.8500
 8852TIP3    H247972   2.009   4.628  14.038 -2.6916 -1.1743 -0.1194
 8853TIP3   OH247973   1.271   2.199  16.016 -1.0133  0.5680 -0.6775
 8853TIP3    H147974   1.366   2.185  16.010 -1.0197  0.4839 -0.5919
 8853TIP3    H247975   1.243   2.214  15.926 -0.6358  2.5048 -0.4986
 8854TIP3   OH247976   4.868   2.072  14.327 -0.1841  0.1873  0.1237
 8854TIP3    H147977   4.877   1.977  14.333 -0.5813  0.1172 -0.3028
 8854TIP3    H247978   4.814   2.096  14.402 -2.5163 -0.2941 -1.2916
 8855TIP3   OH247979   3.418   2.929   3.478 -0.0525  0.1236  0.4872
 8855TIP3    H147980   3.466   2.926   3.561 -0.0460 -1.8680  0.4732
 8855TIP3    H247981   3.343   2.985   3.495  0.1632  0.0681  1.7300
 8856TIP3   OH247982   0.289   6.237  13.138 -0.2211 -0.4457 -0.0541
 8856TIP3    H147983   0.234   6.288  13.198  1.4335  2.1354 -0.6026
 8856TIP3    H247984   0.371   6.223  13.187  0.0997 -0.8035 -0.6831
 8857TIP3   OH247985   4.071   5.303  13.046 -0.6308  0.1228  0.2807
 8857TIP3    H147986   4.081   5.308  13.141  1.7606 -0.1188  0.1165
 8857TIP3    H247987   4.109   5.384  13.013  2.9760 -1.6531 -0.5683
 8858TIP3   OH247988   3.060   4.807   0.014 -0.0967 -0.2118  0.3261
 8858TIP3    H147989   2.995   4.768  -0.044 -0.6970  1.3175 -0.0674
 8858TIP3    H247990   3.041   4.901   0.012  2.4099  0.3569 -0.1985
 8859TIP3   OH247991   6.295   4.587  12.990  0.3291 -0.6059 -0.1474
 8859TIP3    H147992   6.326   4.608  13.078 -0.2600  0.1614 -0.1156
 8859TIP3    H247993   6.252   4.667  12.960 -0.2648 -1.1524 -0.7830
 8860TIP3   OH247994   3.277   1.936  13.387  0.7673  0.2417  0.1124
 8860TIP3    H147995   3.348   1.972  13.334  2.2441 -1.4468  0.8440
 8860TIP3    H247996   3.288   1.977  13.473 -0.7481  1.8903 -0.4284
 8861TIP3   OH247997   2.139   3.337  16.688  0.1635  0.4492 -0.1395
 8861TIP3    H147998   2.080   3.400  16.648  1.0268  1.8892  0.7846
 8861TIP3    H247999   2.085   3.291  16.753 -0.0521  1.4705  0.4176
 8862TIP3   OH248000   3.444   5.703   5.620  0.5006 -0.3127  0.4970
 8862TIP3    H148001   3.376   5.669   5.562  1.1525 -2.6415  0.9998
 8862TIP3    H248002   3.399   5.720   5.702  0.0670  0.5319  0.0921
 8863TIP3   OH248003   1.086   4.947  14.991 -0.5109  0.3089 -0.6443
 8863TIP3    H148004   1.108   5.026  14.943  0.4854  0.5698  0.2237
 8863TIP3    H248005   1.113   4.964  15.081 -0.0761 -1.0931 -0.4773
 8864TIP3   OH248006   3.028   2.437   2.979 -0.1885 -0.0081  0.3344
 8864TIP3    H148007   2.971   2.371   3.018 -1.0834 -0.6195 -1.8445
 8864TIP3    H248008   3.107   2.390   2.955 -0.9558 -0.4309 -1.5173
 8865TIP3   OH248009   3.287   1.059   1.992  0.1058 -0.2198  0.3417
 8865TIP3    H148010   3.255   0.977   1.956 -1.3580  0.6803 -0.4903
 8865TIP3    H248011   3.241   1.127   1.943  1.2301  1.1151  1.0454
 8866TIP3   OH248012   0.914   0.616   2.007 -0.1384 -0.0639  0.0915
 8866TIP3    H148013   0.862   0.557   1.952 -0.4806  0.8186 -0.5385
 8866TIP3    H248014   0.852   0.652   2.070  0.1440 -0.6396  0.7181
 8867TIP3   OH248015   4.034   5.818  14.333  0.1768  0.3227 -0.0586
 8867TIP3    H148016   4.118   5.775  14.317  1.0786  1.2320  1.8623
 8867TIP3    H248017   4.024   5.817  14.428 -2.0057  0.2592 -0.2382
 8868TIP3   OH248018   2.839   3.806   2.737 -0.2124  0.5720 -0.1421
 8868TIP3    H148019   2.846   3.901   2.731  0.1633  0.6898  1.4975
 8868TIP3    H248020   2.746   3.787   2.733 -0.4691  1.2437  1.6624
 8869TIP3   OH248021   0.258   1.916   3.539  0.2924 -0.7584  0.0700
 8869TIP3    H148022   0.301   1.973   3.603 -3.8153  2.2536  0.5220
 8869TIP3    H248023   0.227   1.842   3.590 -1.1085  0.5762  1.2539
 8870TIP3   OH248024   1.114   3.328   4.258  0.4053  0.5328 -0.2600
 8870TIP3    H148025   1.056   3.364   4.191  1.1451 -0.6320 -1.5971
 8870TIP3    H248026   1.064   3.256   4.297 -0.0957  1.3286  0.5948
 8871TIP3   OH248027   2.935   2.996   0.310  0.0713  0.4478  0.4401
 8871TIP3    H148028   2.912   2.904   0.303 -0.0263  0.6169 -2.1897
 8871TIP3    H248029   2.857   3.037   0.349  0.0310 -0.4970  1.4052
 8872TIP3   OH248030   3.667   4.729   5.641  0.0919 -0.0207  0.1314
 8872TIP3    H148031   3.612   4.767   5.573 -0.0053  0.9073  0.7153
 8872TIP3    H248032   3.606   4.679   5.695 -0.0893  0.5459  0.4535
 8873TIP3   OH248033   0.455   4.498   5.690  0.1900 -0.2483  0.3782
 8873TIP3    H148034   0.537   4.492   5.640  0.4905 -0.0187  0.8399
 8873TIP3    H248035   0.396   4.548   5.633  0.9143  1.0484  0.7262
 8874TIP3   OH248036   5.879   1.554  13.801  0.0301  0.1519 -0.5141
 8874TIP3    H148037   5.814   1.501  13.755  1.1358 -0.9457 -0.8663
 8874TIP3    H248038   5.830   1.595  13.873 -0.6867 -2.0906  0.3454
 8875TIP3   OH248039   5.452   5.299  12.470 -0.2091  0.3378  0.1238
 8875TIP3    H148040   5.433   5.214  12.511  0.4371 -0.6762 -1.5538
 8875TIP3    H248041   5.383   5.357  12.502 -1.4859 -1.1819  0.2665
 8876TIP3   OH248042   2.826   2.647  11.151 -0.3992  0.6323 -0.5539
 8876TIP3    H148043   2.907   2.638  11.200 -1.4020  1.8263  1.4635
 8876TIP3    H248044   2.821   2.569  11.096  1.4746 -0.0563  0.2098
 8877TIP3   OH248045   0.114   3.728  15.229  0.1966  0.0388 -0.1897
 8877TIP3    H148046   0.115   3.699  15.321 -0.4756 -0.7894 -0.4339
 8877TIP3    H248047   0.207   3.736  15.206  0.3901  1.7072  0.9891
 8878TIP3   OH248048   1.697   3.102   1.336  0.4731  0.3057 -0.0092
 8878TIP3    H148049   1.733   3.071   1.420  1.2816 -1.8108 -1.0572
 8878TIP3    H248050   1.769   3.091   1.274 -0.5648  0.3993 -1.2616
 8879TIP3   OH248051   6.312   5.006  13.746 -0.3551 -0.7212  0.0931
 8879TIP3    H148052   6.235   5.062  13.757  0.2127  0.1829 -0.4645
 8879TIP3    H248053   6.386   5.067  13.744  0.2103 -1.4196 -1.2512
 8880TIP3   OH248054   3.109   3.724  11.209 -0.5424 -0.2269 -0.3424
 8880TIP3    H148055   3.122   3.812  11.244 -0.0619 -0.5874  0.4073
 8880TIP3    H248056   3.130   3.732  11.116  1.7179 -0.0222  0.1366
 8881TIP3   OH248057   2.862   6.008   5.367 -0.2144  0.7868  0.2812
 8881TIP3    H148058   2.839   5.916   5.383 -2.1033  1.2221  0.2310
 8881TIP3    H248059   2.846   6.052   5.450  0.8244  1.0625  0.3446
 8882TIP3   OH248060   5.921   1.880   2.668  0.0863  0.8294  0.6283
 8882TIP3    H148061   5.942   1.973   2.662 -2.0616  1.2687 -1.1998
 8882TIP3    H248062   5.864   1.862   2.593  0.6637 -2.0463  0.7381
 8883TIP3   OH248063   1.292   0.488  11.658 -0.1673 -0.3298 -0.8371
 8883TIP3    H148064   1.342   0.437  11.722 -0.9701  1.3526  1.2503
 8883TIP3    H248065   1.349   0.561  11.636 -0.7192  0.2514 -0.3662
 8884TIP3   OH248066   1.877   6.542   3.970 -0.1933 -0.0627 -0.0060
 8884TIP3    H148067   1.868   6.633   3.998 -0.4560 -0.5733  1.6677
 8884TIP3    H248068   1.802   6.526   3.913 -0.2611  0.6837 -0.1343
 8885TIP3   OH248069   3.136   6.170  15.322  0.4904  0.3744 -0.0217
 8885TIP3    H148070   3.201   6.204  15.384  0.3715 -0.7816  0.7693
 8885TIP3    H248071   3.110   6.086  15.358 -1.3090  0.7084 -0.4498
 8886TIP3   OH248072   0.731   2.484   3.166  0.1815 -0.5245  0.3323
 8886TIP3    H148073   0.738   2.559   3.225  0.2947 -0.0495 -0.2641
 8886TIP3    H248074   0.639   2.456   3.173 -0.4967  1.1331 -1.1375
 8887TIP3   OH248075   0.732   5.599   1.566  0.2007 -0.0778  0.6121
 8887TIP3    H148076   0.652   5.648   1.589  1.4294  1.1774  2.4940
 8887TIP3    H248077   0.724   5.517   1.614 -1.3765 -1.4095 -1.7301
 8888TIP3   OH248078   4.145   5.805  13.218 -0.3780  1.0692 -0.1472
 8888TIP3    H148079   4.237   5.798  13.192 -0.3925  2.9334 -0.9053
 8888TIP3    H248080   4.097   5.802  13.136 -0.8432  1.7567  0.0886
 8889TIP3   OH248081   3.424   2.957   2.364 -0.1247  0.1769  0.2004
 8889TIP3    H148082   3.391   2.883   2.313 -0.0780 -0.8704  1.6290
 8889TIP3    H248083   3.481   3.004   2.303 -1.6990  0.2014 -1.3390
 8890TIP3   OH248084   2.239   6.210  15.809  0.0224 -0.0726 -0.1392
 8890TIP3    H148085   2.165   6.239  15.862 -0.0178  0.7338 -0.6078
 8890TIP3    H248086   2.295   6.162  15.870 -2.6650 -4.1986 -0.5211
 8891TIP3   OH248087   1.423   3.266   0.801  0.0527 -0.2164  0.1438
 8891TIP3    H148088   1.426   3.239   0.892  0.7308  2.0081  0.8572
 8891TIP3    H248089   1.365   3.203   0.759 -0.8306 -0.8940  2.2446
 8892TIP3   OH248090   3.958   4.734   4.708  0.0301  0.3425  0.6670
 8892TIP3    H148091   4.000   4.803   4.759 -0.4589 -0.1368  1.7506
 8892TIP3    H248092   3.931   4.669   4.773  1.8180 -1.6344 -0.4359
 8893TIP3   OH248093   4.667   4.730  13.331 -0.4518 -0.0954  0.8421
 8893TIP3    H148094   4.753   4.707  13.366  0.1987 -0.6784 -1.0164
 8893TIP3    H248095   4.633   4.648  13.294 -0.9935  0.5054 -0.0438
 8894TIP3   OH248096   5.897   1.642   4.204 -0.7213  0.1355  0.0002
 8894TIP3    H148097   5.807   1.661   4.231 -0.6173 -0.7864  1.0537
 8894TIP3    H248098   5.913   1.553   4.234  0.3079  0.0241 -0.8232
 8895TIP3   OH248099   6.321   0.300  17.007  0.6045 -0.3080  0.1298
 8895TIP3    H148100   6.287   0.270  17.091 -0.1480 -0.8236 -0.3496
 8895TIP3    H248101   6.283   0.388  16.996  0.4393 -0.3732  0.1745
 8896TIP3   OH248102   2.972   4.012   3.076  0.2637 -0.6513  0.2333
 8896TIP3    H148103   2.928   4.070   3.139  1.6078 -1.3191  1.8570
 8896TIP3    H248104   2.900   3.964   3.035 -0.6297 -1.2815  2.3571
 8897TIP3   OH248105   4.864   0.392  12.090 -0.4500 -0.4810 -0.0830
 8897TIP3    H148106   4.877   0.487  12.085 -0.8329 -0.4061  0.3052
 8897TIP3    H248107   4.951   0.355  12.073 -0.1820 -0.0455  0.3180
 8898TIP3   OH248108   2.622   1.574   0.939  0.9740 -0.5329 -0.7359
 8898TIP3    H148109   2.571   1.559   1.018  0.1363 -2.0401 -1.5104
 8898TIP3    H248110   2.568   1.632   0.885 -0.4591 -2.8098 -1.9296
 8899TIP3   OH248111   0.028   1.083   1.562  0.1589 -0.0882 -0.1302
 8899TIP3    H148112  -0.013   1.119   1.483  0.4282  0.5308  0.0107
 8899TIP3    H248113   0.047   1.159   1.616  1.8618 -0.3298 -0.3519
 8900TIP3   OH248114   4.256   5.377   5.828 -0.0269 -0.4866 -0.1310
 8900TIP3    H148115   4.280   5.285   5.812  1.7737  0.1144 -1.2650
 8900TIP3    H248116   4.263   5.388   5.922  0.9389 -1.2297 -0.1004
 8901TIP3   OH248117   3.777   1.079  10.781  0.1032  0.1502 -0.2997
 8901TIP3    H148118   3.754   1.040  10.865  2.6266  0.5641  0.6842
 8901TIP3    H248119   3.872   1.090  10.785  0.0370  2.2623 -2.3199
 8902TIP3   OH248120   6.166   4.801   2.572 -0.0540 -0.2244 -0.2398
 8902TIP3    H148121   6.128   4.778   2.657  0.5748  0.7058  0.3157
 8902TIP3    H248122   6.098   4.855   2.531  0.1393  0.4143  0.2414
 8903TIP3   OH248123   0.298   0.991   1.570  0.2877  0.1933 -0.5664
 8903TIP3    H148124   0.302   0.912   1.516 -1.2937  0.9297 -1.8549
 8903TIP3    H248125   0.211   1.027   1.554  1.2777  2.7236 -0.8149
 8904TIP3   OH248126   6.735   5.102   5.484 -0.5937  0.0158 -0.3221
 8904TIP3    H148127   6.721   5.192   5.515 -1.5916 -0.2050 -0.1008
 8904TIP3    H248128   6.657   5.055   5.512 -2.1770  0.0333 -4.1341
 8905TIP3   OH248129   3.072   1.179  16.336 -0.1978  0.3967  0.3042
 8905TIP3    H148130   3.118   1.108  16.292 -0.0398  1.5720 -1.5606
 8905TIP3    H248131   2.996   1.137  16.376  0.5099 -0.9865  0.2574
 8906TIP3   OH248132   2.461   1.615   1.558 -0.2073 -0.5463  0.2673
 8906TIP3    H148133   2.492   1.529   1.587  0.6898 -0.8628 -1.5357
 8906TIP3    H248134   2.506   1.631   1.475 -0.7587  1.4430  0.2884
 8907TIP3   OH248135   6.588   0.738  10.707 -0.3396  0.4959 -0.0623
 8907TIP3    H148136   6.624   0.665  10.657 -1.4905 -0.3282  0.2871
 8907TIP3    H248137   6.495   0.739  10.684 -0.4855  1.3782  0.5271
 8908TIP3   OH248138   2.130   2.262  12.835  0.2190 -0.1743 -0.0348
 8908TIP3    H148139   2.208   2.278  12.888  0.8596 -1.0627 -0.6610
 8908TIP3    H248140   2.156   2.287  12.746 -1.1972  2.3693  0.1775
 8909TIP3   OH248141   6.532   6.273  15.525 -0.6954  0.5485  0.4998
 8909TIP3    H148142   6.596   6.219  15.571 -1.4318 -0.3913  0.4484
 8909TIP3    H248143   6.494   6.329  15.594 -0.2080  0.7354  0.6225
 8910TIP3   OH248144   1.429   5.938   2.934  0.4200 -0.0367 -0.2211
 8910TIP3    H148145   1.509   5.987   2.916  1.5267 -1.5762  0.3051
 8910TIP3    H248146   1.388   5.926   2.848  0.4902  1.1572 -0.4370
 8911TIP3   OH248147   1.708   2.387   0.871  0.1811 -0.4554  0.0977
 8911TIP3    H148148   1.770   2.317   0.889  1.2533  0.5827  0.5149
 8911TIP3    H248149   1.667   2.405   0.956  2.9758  2.2784  1.0313
 8912TIP3   OH248150   6.753   3.272   5.607 -0.4398 -0.2275 -0.3229
 8912TIP3    H148151   6.684   3.232   5.554  0.1460 -0.5354 -0.8550
 8912TIP3    H248152   6.800   3.198   5.645 -1.0034 -0.0122  0.8449
 8913TIP3   OH248153   3.442   4.487  16.165 -0.4982  0.6457 -0.0273
 8913TIP3    H148154   3.481   4.528  16.242  2.3585 -2.3021  0.3328
 8913TIP3    H248155   3.388   4.416  16.200 -3.1841  2.1933 -0.7135
 8914TIP3   OH248156   2.480   3.965  11.759  0.3349 -0.0397 -0.0289
 8914TIP3    H148157   2.397   3.945  11.714  0.3800 -2.1368  0.7222
 8914TIP3    H248158   2.541   3.984  11.688  0.0791 -2.0248 -0.8413
 8915TIP3   OH248159   3.802   2.801   0.803  0.1347  0.7441  0.2644
 8915TIP3    H148160   3.884   2.774   0.844  0.0121 -1.9554 -1.0045
 8915TIP3    H248161   3.818   2.790   0.709 -1.5774  0.3901 -0.0204
 8916TIP3   OH248162   2.920   1.175  13.436  0.2093 -0.6000 -0.3602
 8916TIP3    H148163   2.986   1.122  13.481  0.7820 -0.4068 -0.9541
 8916TIP3    H248164   2.839   1.125  13.446  0.4335 -0.8264  0.4033
 8917TIP3   OH248165   5.856   2.372   4.225 -0.4721  0.8063  0.3744
 8917TIP3    H148166   5.924   2.336   4.282 -0.0875  0.9150 -0.0074
 8917TIP3    H248167   5.794   2.413   4.284  0.4759  1.8722  0.6746
 8918TIP3   OH248168   0.230   0.062  14.721  0.4075  0.6352 -0.0190
 8918TIP3    H148169   0.267   0.021  14.800 -1.2452 -1.5570 -0.3029
 8918TIP3    H248170   0.144   0.093  14.749 -0.5883 -0.9867 -1.1049
 8919TIP3   OH248171   1.014   4.812  14.250 -0.1946 -0.2208  0.2353
 8919TIP3    H148172   1.018   4.738  14.311  0.6011 -0.7636 -0.4620
 8919TIP3    H248173   1.093   4.862  14.267 -0.2475 -0.0667  0.0270
 8920TIP3   OH248174   6.649   5.860  16.209  0.4617 -0.2293  0.7640
 8920TIP3    H148175   6.672   5.784  16.156  1.9163  0.2617  0.6413
 8920TIP3    H248176   6.665   5.936  16.152 -0.2633  0.2156  1.1230
 8921TIP3   OH248177   0.666   5.898   5.771  0.4653  0.7095 -0.0171
 8921TIP3    H148178   0.632   5.928   5.686 -3.1536 -1.6194  0.3663
 8921TIP3    H248179   0.649   5.804   5.771 -1.1711  0.8320  3.8513
 8922TIP3   OH248180   4.626   3.363   0.249  0.6696  0.1658 -0.5460
 8922TIP3    H148181   4.652   3.452   0.270  0.5403  0.3015 -0.9595
 8922TIP3    H248182   4.617   3.362   0.154 -0.1541 -0.0629 -0.4735
 8923TIP3   OH248183   3.616   5.480   3.703  0.4947 -0.4824  0.0176
 8923TIP3    H148184   3.568   5.482   3.785  1.8214  0.4922  0.8302
 8923TIP3    H248185   3.623   5.388   3.680 -0.2962 -0.7294  0.7534
 8924TIP3   OH248186   5.475   4.653  13.374  0.0898  0.3137  0.1649
 8924TIP3    H148187   5.433   4.726  13.418 -0.4822  0.0050  0.1341
 8924TIP3    H248188   5.521   4.693  13.299  0.2552  0.7067  0.4757
 8925TIP3   OH248189   3.929   2.244  15.166  0.5190 -0.4684  0.1352
 8925TIP3    H148190   3.881   2.312  15.214  1.0413 -0.2187  0.3144
 8925TIP3    H248191   3.989   2.208  15.231 -1.5220 -2.9176  0.7915
 8926TIP3   OH248192   5.786   2.030  14.144 -0.2779  0.0977 -0.1356
 8926TIP3    H148193   5.779   1.982  14.227 -0.7366  0.3493 -0.0235
 8926TIP3    H248194   5.697   2.030  14.109 -0.3584  1.1325  0.0256
 8927TIP3   OH248195   2.710   4.341  16.032 -0.5905 -0.4674 -0.0060
 8927TIP3    H148196   2.765   4.276  16.077 -1.0963  0.2023  1.6481
 8927TIP3    H248197   2.757   4.360  15.951  1.3707 -0.2814  1.1237
 8928TIP3   OH248198   0.575   2.857  12.505 -0.1106 -0.1110 -0.3438
 8928TIP3    H148199   0.585   2.762  12.504 -1.2030 -0.2510  0.3027
 8928TIP3    H248200   0.565   2.879  12.597 -0.3339  0.5833 -0.5281
 8929TIP3   OH248201   0.986   3.088   4.817 -0.0064  0.4118  0.3969
 8929TIP3    H148202   1.031   3.154   4.763  1.7461 -1.0259  0.0058
 8929TIP3    H248203   1.052   3.060   4.880 -1.5950  1.0186  2.4318
 8930TIP3   OH248204   3.853   4.064   1.275  0.3772 -0.2895 -0.0607
 8930TIP3    H148205   3.789   4.059   1.203  1.1424  1.5210 -0.9318
 8930TIP3    H248206   3.800   4.067   1.354 -0.5333 -0.9531 -0.6216
 8931TIP3   OH248207   1.911   1.167   1.747 -0.2792  0.0445  0.6940
 8931TIP3    H148208   1.861   1.249   1.749 -0.3078  0.0201  1.5697
 8931TIP3    H248209   1.874   1.115   1.819 -0.5717 -0.9330 -0.1375
 8932TIP3   OH248210   3.471   3.021   1.529  0.2990  0.4524 -0.0386
 8932TIP3    H148211   3.556   3.035   1.487  0.9598  0.1378  1.1519
 8932TIP3    H248212   3.408   3.034   1.459  1.3075  1.0192 -0.8795
 8933TIP3   OH248213   3.899   1.138   1.400  0.0816 -0.4124 -0.1671
 8933TIP3    H148214   3.937   1.208   1.347  0.6178 -1.3433 -1.0368
 8933TIP3    H248215   3.805   1.140   1.378  0.5030 -1.7192 -2.2948
 8934TIP3   OH248216   5.031   3.479  13.281  0.0794 -0.1261  0.4075
 8934TIP3    H148217   5.087   3.526  13.343  1.4209 -0.5802 -0.3989
 8934TIP3    H248218   5.026   3.390  13.316 -0.4478 -0.0021  0.6595
 8935TIP3   OH248219   4.034   0.577  13.421 -0.3512  0.5504 -0.7774
 8935TIP3    H148220   4.022   0.649  13.483 -0.0585 -0.1361  0.0963
 8935TIP3    H248221   4.074   0.507  13.473  0.1861  0.0701 -1.8204
 8936TIP3   OH248222   1.070   5.265   0.778 -0.3635  0.3469 -0.0186
 8936TIP3    H148223   1.068   5.221   0.693  0.5254 -1.8108  0.9888
 8936TIP3    H248224   1.017   5.209   0.835  1.8537 -0.2020  1.6357
 8937TIP3   OH248225   6.695   5.384   6.368 -0.7281 -0.0411  0.0287
 8937TIP3    H148226   6.740   5.408   6.449  0.9213  2.1800 -1.4150
 8937TIP3    H248227   6.604   5.408   6.383 -0.6031 -0.3556  1.4661
 8938TIP3   OH248228   2.147   2.831   4.252 -0.2030 -0.6736 -0.3318
 8938TIP3    H148229   2.111   2.920   4.260  0.3168 -0.5840  1.3509
 8938TIP3    H248230   2.099   2.780   4.317 -0.9635 -1.8250 -1.7355
 8939TIP3   OH248231   5.395   4.638   6.931 -0.0599 -0.6959  0.1132
 8939TIP3    H148232   5.473   4.691   6.914 -0.2752 -0.6575 -0.8114
 8939TIP3    H248233   5.396   4.572   6.862 -0.3437 -1.2831  0.6586
 8940TIP3   OH248234   0.446   2.335   5.026 -0.4392  0.2646 -0.1203
 8940TIP3    H148235   0.434   2.362   4.935 -0.8767  1.2269  0.2150
 8940TIP3    H248236   0.399   2.401   5.077 -1.7290 -1.2600  0.7282
 8941TIP3   OH248237   0.972   2.548   0.983  0.1999  0.1936  0.0837
 8941TIP3    H148238   0.987   2.472   0.928 -0.5205 -0.4488  0.7455
 8941TIP3    H248239   1.037   2.541   1.053 -1.5997 -1.3883  1.7168
 8942TIP3   OH248240   1.720   4.234  11.906  0.2474 -0.0453 -0.1322
 8942TIP3    H148241   1.746   4.280  11.826  0.0219  1.5494  0.6701
 8942TIP3    H248242   1.798   4.235  11.960 -0.1835  0.8028  0.5027
 8943TIP3   OH248243   5.567   4.638   6.129 -0.9130  0.3130 -0.1493
 8943TIP3    H148244   5.618   4.657   6.207 -2.0163  1.6072  0.2926
 8943TIP3    H248245   5.533   4.550   6.143 -0.6150  0.3073  0.5581
 8944TIP3   OH248246   2.268   6.283   4.619 -0.1376 -0.1299 -0.1450
 8944TIP3    H148247   2.177   6.256   4.613  0.3417 -1.8358 -0.2407
 8944TIP3    H248248   2.290   6.276   4.712  0.3111 -1.3135 -0.3129
 8945TIP3   OH248249   3.583   5.102   0.985 -0.1185 -0.1076  0.5714
 8945TIP3    H148250   3.676   5.092   0.967 -0.2907 -1.4993  0.3334
 8945TIP3    H248251   3.559   5.021   1.031 -1.6884 -0.9045 -1.5033
 8946TIP3   OH248252   4.668   6.087   3.385 -1.1148 -0.8538 -0.3911
 8946TIP3    H148253   4.715   6.140   3.321  0.6474 -1.2290  0.5337
 8946TIP3    H248254   4.630   6.150   3.445 -2.2323 -0.5250 -1.4147
 8947TIP3   OH248255   3.811   3.487   3.548  0.6113 -0.4391 -0.4183
 8947TIP3    H148256   3.767   3.475   3.632 -1.0844  0.0968 -1.1823
 8947TIP3    H248257   3.822   3.398   3.514  0.8560 -0.6280  0.1493
 8948TIP3   OH248258   5.283   6.367   0.864 -0.1737 -0.2661 -0.1840
 8948TIP3    H148259   5.199   6.322   0.855  0.3830 -1.7527  1.4581
 8948TIP3    H248260   5.261   6.460   0.859 -1.5752 -0.6394 -2.1181
 8949TIP3   OH248261   2.073   1.806  17.048  0.0683  0.0756 -0.6374
 8949TIP3    H148262   2.096   1.818  16.956 -2.2913  1.1125 -1.1787
 8949TIP3    H248263   2.017   1.881  17.068  1.7135  0.7072  2.1175
 8950TIP3   OH248264   1.723   3.206  11.636 -0.2816 -0.2326 -0.1570
 8950TIP3    H148265   1.708   3.181  11.728 -2.9412 -0.6801 -0.6387
 8950TIP3    H248266   1.791   3.146  11.606  1.3804  0.5814  1.7448
 8951TIP3   OH248267   3.532   0.764  12.933 -0.2356  0.0304  0.2400
 8951TIP3    H148268   3.580   0.764  13.016 -0.6987  3.6103  0.6662
 8951TIP3    H248269   3.569   0.691  12.884 -0.3235 -2.6122  3.7256
 8952TIP3   OH248270   4.288   1.540   3.552 -0.6156 -0.3551  0.1361
 8952TIP3    H148271   4.245   1.622   3.528 -1.0460 -0.5652  0.1641
 8952TIP3    H248272   4.349   1.564   3.621  0.3594  0.1892 -0.8962
 8953TIP3   OH248273   4.824   2.170  13.817  0.2626  0.0711 -0.0693
 8953TIP3    H148274   4.812   2.232  13.745  0.7345  1.4115  0.9642
 8953TIP3    H248275   4.736   2.139  13.836  0.2732 -1.4621 -2.1587
 8954TIP3   OH248276   1.482   1.154  14.047 -0.4867  0.2610  0.7360
 8954TIP3    H148277   1.469   1.247  14.026  0.9856  0.2140 -0.5156
 8954TIP3    H248278   1.564   1.131  14.005 -0.3757 -1.4087  1.7715
 8955TIP3   OH248279   1.773   1.733  12.611 -0.3762 -0.6364  0.1063
 8955TIP3    H148280   1.706   1.692  12.557  0.6320 -0.9564 -0.9487
 8955TIP3    H248281   1.846   1.670  12.610  1.5928  1.4667 -2.3295
 8956TIP3   OH248282   4.286   3.043  16.104 -0.2163 -0.2604  0.3184
 8956TIP3    H148283   4.287   3.005  16.192 -1.5021 -2.3021 -0.4890
 8956TIP3    H248284   4.201   3.087  16.098 -0.7607 -1.3540 -0.3464
 8957TIP3   OH248285   3.185   3.562   0.765  0.2007 -0.2473 -0.5754
 8957TIP3    H148286   3.247   3.598   0.702 -0.8488 -0.3693 -1.7333
 8957TIP3    H248287   3.099   3.579   0.726 -0.4617 -0.8671  0.5487
 8958TIP3   OH248288   6.638   4.337  15.440  0.1450 -0.1125  0.1196
 8958TIP3    H148289   6.715   4.327  15.497  0.6855 -0.0892 -0.5874
 8958TIP3    H248290   6.669   4.391  15.367 -0.0274 -1.5717 -1.0904
 8959TIP3   OH248291   3.545   6.231   3.473 -0.5158  0.1090 -0.2111
 8959TIP3    H148292   3.611   6.175   3.515 -2.9603 -4.3861 -1.7446
 8959TIP3    H248293   3.485   6.255   3.544 -0.8449 -1.5407  0.1046
 8960TIP3   OH248294   5.445   4.194  16.436  0.7134  0.2771  0.0803
 8960TIP3    H148295   5.473   4.216  16.347 -0.3039  0.9280 -0.1033
 8960TIP3    H248296   5.514   4.138  16.470  2.0977  1.6093 -0.4154
 8961TIP3   OH248297   6.781   6.654  16.840  0.3326 -0.5119 -0.5017
 8961TIP3    H148298   6.811   6.579  16.891 -0.4473 -1.0252 -0.7868
 8961TIP3    H248299   6.858   6.710  16.833  0.5419 -0.5531  1.0061
 8962TIP3   OH248300   1.922   2.343  13.342 -0.1273 -0.2915  0.2387
 8962TIP3    H148301   2.015   2.322  13.343 -0.0650 -0.0372  1.2362
 8962TIP3    H248302   1.907   2.385  13.257  0.9696  0.9033  0.5955
 8963TIP3   OH248303   4.290   2.622  16.742  0.1312 -0.0144  0.1480
 8963TIP3    H148304   4.271   2.542  16.792  2.1078  0.3303  1.5649
 8963TIP3    H248305   4.266   2.693  16.801 -2.3457  0.5697 -1.3830
 8964TIP3   OH248306   1.017   6.195  12.211  0.4208 -0.3676  0.1844
 8964TIP3    H148307   1.093   6.250  12.228  0.7543 -1.1846  1.4512
 8964TIP3    H248308   1.050   6.105  12.218 -0.6413 -0.7312  0.7114
 8965TIP3   OH248309   5.591   4.959  12.442 -0.5347 -0.4062 -0.1076
 8965TIP3    H148310   5.514   4.987  12.491  0.6801  1.4252  0.8817
 8965TIP3    H248311   5.664   4.974  12.502  0.8509  0.3930 -1.8871
 8966TIP3   OH248312   6.192   4.913   1.902  0.5609  0.3751 -0.0086
 8966TIP3    H148313   6.098   4.899   1.909  0.6023 -0.1558 -0.4530
 8966TIP3    H248314   6.222   4.923   1.992 -0.2618  2.9318  0.0374
 8967TIP3   OH248315   2.610   4.074  12.273  0.1867 -0.7178  0.4907
 8967TIP3    H148316   2.593   4.022  12.194 -2.3959 -0.1666  0.6027
 8967TIP3    H248317   2.569   4.024  12.344  0.4093 -0.0495  1.1056
 8968TIP3   OH248318   4.200   0.025  17.159 -0.6561  0.2983  0.0664
 8968TIP3    H148319   4.237  -0.012  17.079  0.3022  0.5143  0.4031
 8968TIP3    H248320   4.266   0.009  17.226 -1.3823  0.2547  0.7938
 8969TIP3   OH248321   6.178   2.796   2.768  0.1496 -0.3127  0.0835
 8969TIP3    H148322   6.110   2.730   2.771 -0.8366  0.5506 -1.6271
 8969TIP3    H248323   6.177   2.837   2.854 -2.7408  0.8312 -0.3903
 8970TIP3   OH248324   2.799   1.616   5.715 -0.0567  0.1993 -0.3020
 8970TIP3    H148325   2.721   1.564   5.737 -0.0740  0.7076  0.9370
 8970TIP3    H248326   2.822   1.660   5.797 -0.6226  2.9094 -1.4870
 8971TIP3   OH248327   0.051   1.708   4.606 -0.4529 -0.4416  0.0337
 8971TIP3    H148328   0.123   1.731   4.664  0.7888  0.7783 -1.8583
 8971TIP3    H248329  -0.024   1.694   4.664  1.0036 -0.5695  1.9701
 8972TIP3   OH248330   1.774   2.335   5.180 -0.1020 -0.0741 -0.2980
 8972TIP3    H148331   1.679   2.333   5.194 -0.2468  2.6287 -0.3707
 8972TIP3    H248332   1.810   2.355   5.266  0.1211  1.9636 -0.8205
 8973TIP3   OH248333   0.090   1.775   0.964  0.1676  0.0577 -0.5530
 8973TIP3    H148334  -0.005   1.776   0.947 -0.6397  0.5819  3.2234
 8973TIP3    H248335   0.114   1.867   0.972  0.5305 -0.1143  0.4982
 8974TIP3   OH248336   4.148   6.466   6.140  0.2996 -1.0134 -0.1111
 8974TIP3    H148337   4.200   6.389   6.166 -0.2128 -1.0324  0.9107
 8974TIP3    H248338   4.138   6.516   6.221  0.9607  0.3451 -0.8482
 8975TIP3   OH248339   5.011   5.928   1.950  0.4145 -0.1533 -0.0685
 8975TIP3    H148340   5.052   5.857   1.999  1.3997  0.2176 -0.3393
 8975TIP3    H248341   5.029   5.908   1.858  0.3920  0.2552 -0.1656
 8976TIP3   OH248342   5.793   1.390   4.803  0.1499  0.7207 -0.7833
 8976TIP3    H148343   5.765   1.313   4.851  0.6643  1.5551  0.9611
 8976TIP3    H248344   5.880   1.368   4.770  1.1349  1.1838  1.3745
 8977TIP3   OH248345   5.371   0.173  15.917 -0.1063  0.6566 -0.3612
 8977TIP3    H148346   5.397   0.184  16.009 -0.6349 -1.1448  0.0509
 8977TIP3    H248347   5.454   0.161  15.870  0.1301  0.7750  0.0177
 8978TIP3   OH248348   2.026   0.608  14.367 -0.0026  0.3591  0.1957
 8978TIP3    H148349   2.056   0.633  14.454 -0.9735  0.2225  0.5905
 8978TIP3    H248350   1.948   0.662  14.353 -1.0089 -1.0222  0.2540
 8979TIP3   OH248351   3.206   4.175   4.632  0.5019 -0.7002  0.0017
 8979TIP3    H148352   3.134   4.220   4.676  0.4829 -0.5954 -0.1349
 8979TIP3    H248353   3.227   4.231   4.557  1.2332 -0.3253  0.4711
 8980TIP3   OH248354   2.815   1.039   0.368 -0.0797  0.2492  0.1708
 8980TIP3    H148355   2.890   1.040   0.428  0.1215 -1.4672  0.0095
 8980TIP3    H248356   2.843   1.092   0.294  0.3817  0.8782  0.7822
 8981TIP3   OH248357   5.567   2.965   0.198 -0.4295  0.0752  0.3165
 8981TIP3    H148358   5.534   3.032   0.259  0.3173  1.1577 -0.4301
 8981TIP3    H248359   5.659   2.955   0.222  0.1498  1.2522 -1.2204
 8982TIP3   OH248360   5.455   5.180  11.821  0.0581 -0.7795  0.4393
 8982TIP3    H148361   5.418   5.100  11.858 -0.8568 -1.0674 -1.0206
 8982TIP3    H248362   5.498   5.151  11.741  1.4095 -0.0707  0.8804
 8983TIP3   OH248363   0.270   5.229  11.175 -0.1602 -0.4170  0.3187
 8983TIP3    H148364   0.229   5.196  11.095  2.7265 -1.2439 -0.9616
 8983TIP3    H248365   0.287   5.150  11.226 -0.2498 -0.0833  0.8644
 8984TIP3   OH248366   1.041   3.030   5.860 -0.2351  0.0787 -0.6341
 8984TIP3    H148367   1.085   3.044   5.777  1.2668 -0.9238 -0.0489
 8984TIP3    H248368   1.013   3.117   5.888 -0.6758  0.4311 -2.1145
 8985TIP3   OH248369   5.908   1.653  12.013  0.2156  0.0653 -0.2548
 8985TIP3    H148370   5.964   1.725  12.042  0.6523  0.3630 -1.7628
 8985TIP3    H248371   5.967   1.578  12.004 -0.0040 -0.1477  0.0270
 8986TIP3   OH248372   3.328   2.416  12.121 -0.3751 -0.0515 -0.5961
 8986TIP3    H148373   3.288   2.488  12.170  0.9903  0.6685 -0.4830
 8986TIP3    H248374   3.273   2.340  12.141 -0.6599  0.5182  0.9544
 8987TIP3   OH248375   6.000   5.195  14.719  0.8520 -0.0719 -0.2233
 8987TIP3    H148376   6.009   5.106  14.752 -1.8764  0.2609  1.7911
 8987TIP3    H248377   6.062   5.246  14.772 -0.4272 -0.2297  1.5106
 8988TIP3   OH248378   1.749   1.212  14.330 -0.1309  0.2119  1.0257
 8988TIP3    H148379   1.796   1.287  14.366  2.2563 -0.5865 -0.2007
 8988TIP3    H248380   1.688   1.250  14.267  0.4756  1.1777  1.0089
 8989TIP3   OH248381   5.864   3.839   1.886  0.1016  0.3696  0.7582
 8989TIP3    H148382   5.823   3.874   1.965 -0.1888  2.3602 -0.2319
 8989TIP3    H248383   5.792   3.795   1.840  0.4038 -1.3788  1.8488
 8990TIP3   OH248384   6.253   5.852   4.961  0.0703  0.1286 -0.0087
 8990TIP3    H148385   6.256   5.861   4.866  0.2963  1.4558  0.0961
 8990TIP3    H248386   6.342   5.830   4.986 -0.2070 -1.2539 -0.1707
 8991TIP3   OH248387   4.279   0.623   5.145  0.1736  0.1380  1.0769
 8991TIP3    H148388   4.328   0.704   5.133  0.2030  0.0478  0.5534
 8991TIP3    H248389   4.200   0.635   5.091 -0.7701  0.5936  2.4876
 8992TIP3   OH248390   3.278   1.107   4.538 -0.0297  0.0844  0.0599
 8992TIP3    H148391   3.277   1.151   4.623 -0.3644  0.2492 -0.0247
 8992TIP3    H248392   3.316   1.171   4.478  0.8209 -0.2720  0.2045
 8993TIP3   OH248393   2.946   2.706   3.296  0.0633 -0.3300  0.6977
 8993TIP3    H148394   2.990   2.727   3.214  0.4028  1.7379  1.3349
 8993TIP3    H248395   3.018   2.699   3.360 -0.2568 -1.0418  0.9888
 8994TIP3   OH248396   2.813   0.100   3.785  0.6167  0.5685 -0.3248
 8994TIP3    H148397   2.907   0.093   3.802  0.2897 -0.5654  1.1095
 8994TIP3    H248398   2.785   0.011   3.764 -0.3490  0.6870  0.4013
 8995TIP3   OH248399   6.496   6.297   5.320  0.0083 -0.3711 -0.1150
 8995TIP3    H148400   6.413   6.287   5.366  0.0597  1.3891  0.4493
 8995TIP3    H248401   6.561   6.306   5.390  0.3381  0.5187 -0.5121
 8996TIP3   OH248402   6.460   2.934   1.044 -0.7819 -0.7466 -0.1211
 8996TIP3    H148403   6.387   2.926   1.106 -0.1686  0.3364  0.7889
 8996TIP3    H248404   6.426   2.989   0.974 -0.7244  0.1042  0.5069
 8997TIP3   OH248405   5.753   0.658   2.845 -0.0876  0.2280  0.3962
 8997TIP3    H148406   5.780   0.685   2.757 -0.7748  1.6552  0.5996
 8997TIP3    H248407   5.819   0.696   2.903 -1.2012  1.7873  0.7057
 8998TIP3   OH248408   4.056   1.701  13.599  0.0312  0.0442 -0.2968
 8998TIP3    H148409   4.019   1.778  13.557  1.1148 -0.7473 -2.8933
 8998TIP3    H248410   3.982   1.640  13.605 -0.4834  0.7146  0.3833
 8999TIP3   OH248411   2.510   6.584  11.177  0.7845  0.2712  0.4004
 8999TIP3    H148412   2.506   6.640  11.099  2.5609  0.0916  0.1321
 8999TIP3    H248413   2.441   6.520  11.165  1.1313  0.1503 -1.1194
 9000TIP3   OH248414   2.895   3.850   0.077  0.1340 -0.6366  0.3686
 9000TIP3    H148415   2.863   3.827  -0.010  0.5444 -1.1961  0.3573
 9000TIP3    H248416   2.882   3.770   0.129  1.3061 -0.8169  0.4125
 9001TIP3   OH248417   1.667   1.615   1.367 -0.7209  0.4594 -0.0441
 9001TIP3    H148418   1.715   1.578   1.293 -1.8634 -0.4822 -0.3321
 9001TIP3    H248419   1.710   1.580   1.444 -0.9560 -0.4050 -0.3010
 9002TIP3   OH248420   3.693   1.604   0.366  0.0503 -0.5007 -0.0979
 9002TIP3    H148421   3.631   1.633   0.433  1.7401 -1.3479  1.9424
 9002TIP3    H248422   3.759   1.674   0.364  0.1477 -0.6078 -0.7212
 9003TIP3   OH248423   3.521   5.473  14.798  0.4001 -0.4217 -0.0714
 9003TIP3    H148424   3.579   5.404  14.832 -0.2995  0.1466  2.5191
 9003TIP3    H248425   3.581   5.543  14.771  1.0292 -0.6183  0.7433
 9004TIP3   OH248426   2.209   5.746  10.679 -0.6622  0.2517  0.3999
 9004TIP3    H148427   2.160   5.679  10.727 -0.4509  0.7684  1.3551
 9004TIP3    H248428   2.278   5.697  10.634 -1.5488 -0.3773 -0.3078
 9005TIP3   OH248429   4.699   3.449  10.905  0.0845  0.7712 -0.5327
 9005TIP3    H148430   4.678   3.404  10.823  1.0351  0.4211 -0.6046
 9005TIP3    H248431   4.744   3.529  10.877 -1.4533  1.7095 -0.3998
 9006TIP3   OH248432   1.491   1.131   0.768  0.3580 -0.0566 -0.0142
 9006TIP3    H148433   1.476   1.047   0.724 -2.0183 -0.2227  0.9713
 9006TIP3    H248434   1.510   1.108   0.858 -1.1610  0.4272  0.4677
 9007TIP3   OH248435   6.173   3.872  10.982  0.1590  0.0364 -0.5184
 9007TIP3    H148436   6.263   3.905  10.972 -0.0423  0.2902 -1.5414
 9007TIP3    H248437   6.177   3.783  10.947 -0.0188  0.0850 -0.6572
 9008TIP3   OH248438   4.917   6.382  13.440 -0.0011  0.0370 -0.3111
 9008TIP3    H148439   4.946   6.300  13.481  0.8403  0.2948 -0.3889
 9008TIP3    H248440   4.974   6.449  13.476  0.4638  0.3430 -1.5589
 9009TIP3   OH248441   4.378   6.604  11.153  0.3983  0.7053  0.5558
 9009TIP3    H148442   4.408   6.592  11.063  0.1796 -0.8620  0.6640
 9009TIP3    H248443   4.435   6.547  11.206  0.0993  1.1006  1.3229
 9010TIP3   OH248444   2.399   2.784  15.077  0.1852 -0.6243 -0.0681
 9010TIP3    H148445   2.434   2.864  15.038  0.9369 -1.4866 -1.2321
 9010TIP3    H248446   2.323   2.761  15.024 -0.4237 -0.3494  0.6623
 9011TIP3   OH248447   4.922   0.660   0.271 -0.1373 -0.2497  0.2919
 9011TIP3    H148448   4.952   0.716   0.343 -0.9786 -1.3983  1.5843
 9011TIP3    H248449   4.826   0.661   0.278 -0.1982 -1.0729 -0.2701
 9012TIP3   OH248450   2.864   4.867  15.372 -0.2906 -0.3138  0.1231
 9012TIP3    H148451   2.925   4.934  15.343 -1.5173  0.9263  0.2980
 9012TIP3    H248452   2.856   4.807  15.298  0.0463  0.3004 -0.4131
 9013TIP3   OH248453   2.478   4.919  14.480  0.1177  0.0576  0.0230
 9013TIP3    H148454   2.513   4.982  14.543  0.5012  0.2256 -0.3544
 9013TIP3    H248455   2.548   4.907  14.416 -0.3255  0.0038 -0.4585
 9014TIP3   OH248456   2.675   6.098   0.727  0.1188 -0.6839 -0.3788
 9014TIP3    H148457   2.616   6.070   0.657 -3.3418  0.3649  1.8979
 9014TIP3    H248458   2.655   6.190   0.741  0.6994 -0.8582  1.9844
 9015TIP3   OH248459   3.477   6.101   5.292  0.2890  0.1374 -0.3377
 9015TIP3    H148460   3.439   6.069   5.373 -1.3259  1.4720 -0.5202
 9015TIP3    H248461   3.411   6.160   5.255  1.2977  0.1873 -2.2269
 9016TIP3   OH248462   6.647   2.651   0.296  0.3697  0.2451  0.2404
 9016TIP3    H148463   6.617   2.607   0.375  1.8147  0.1826  0.7792
 9016TIP3    H248464   6.667   2.740   0.324  0.4754  0.3481 -0.1532
 9017TIP3   OH248465   4.760   0.822  13.188 -0.2400 -0.1644  0.3556
 9017TIP3    H148466   4.769   0.781  13.274  1.4766  1.4113  0.9683
 9017TIP3    H248467   4.695   0.891  13.201 -0.4555 -0.3340  0.2032
 9018TIP3   OH248468   5.934   1.220   3.085  0.2931 -0.1060  0.2285
 9018TIP3    H148469   5.943   1.154   3.016  0.5221 -0.9832  1.0804
 9018TIP3    H248470   5.919   1.301   3.037 -0.5261 -0.8461 -0.8316
 9019TIP3   OH248471   6.733   1.772   2.122 -0.1667  0.0179  0.4562
 9019TIP3    H148472   6.791   1.746   2.051 -0.5249 -0.6315  0.3958
 9019TIP3    H248473   6.649   1.731   2.101 -0.6864  1.0254  0.4880
 9020TIP3   OH248474   6.687   0.450  14.948 -0.2159 -0.1707  0.5453
 9020TIP3    H148475   6.716   0.478  14.861  0.2756 -2.0827  0.0438
 9020TIP3    H248476   6.652   0.530  14.989 -0.1065  0.8451 -1.2470
 9021TIP3   OH248477   2.808   3.145  16.664  0.0984 -0.3385  0.0266
 9021TIP3    H148478   2.860   3.136  16.584  0.8804  1.0805  0.3419
 9021TIP3    H248479   2.789   3.055  16.691  2.1685 -0.9060 -0.2367
 9022TIP3   OH248480   6.315   3.260   2.997  0.5319 -0.4473 -0.2845
 9022TIP3    H148481   6.266   3.341   2.986 -0.3103 -1.0079 -0.7802
 9022TIP3    H248482   6.262   3.208   3.058  0.4899 -1.0591 -0.8258
 9023TIP3   OH248483   4.324   5.318  13.940  0.1878  0.6409  0.0433
 9023TIP3    H148484   4.276   5.285  13.864  0.1672 -0.8330  0.6601
 9023TIP3    H248485   4.327   5.244  14.000  2.8782  0.7783  0.2010
 9024TIP3   OH248486   6.078   2.705  15.618 -0.2235  0.4840 -0.3014
 9024TIP3    H148487   6.031   2.764  15.676  1.5276  1.4700  0.2146
 9024TIP3    H248488   6.116   2.763  15.551 -0.1903 -0.3283 -1.0025
 9025TIP3   OH248489   5.978   1.143   4.502 -0.0686  0.1481  0.0762
 9025TIP3    H148490   6.017   1.225   4.532  2.1761 -1.7026  2.6920
 9025TIP3    H248491   5.920   1.116   4.573 -0.3940 -0.7875 -0.5216
 9026TIP3   OH248492   1.820   3.200  11.288 -0.1408  0.2910 -0.1699
 9026TIP3    H148493   1.851   3.154  11.366 -0.0162  1.2737  0.3879
 9026TIP3    H248494   1.759   3.266  11.322 -0.7980  0.1199 -1.0005
 9027TIP3   OH248495   0.876   6.701  15.728 -0.0789  0.6658  0.1005
 9027TIP3    H148496   0.883   6.639  15.655 -1.2799 -0.5623  0.9818
 9027TIP3    H248497   0.864   6.786  15.685  2.5186  0.5136 -1.1528
 9028TIP3   OH248498   2.329   6.390  12.444  0.0042  0.2466  0.0149
 9028TIP3    H148499   2.369   6.464  12.398 -2.4575  2.0987  0.6949
 9028TIP3    H248500   2.400   6.326  12.450  2.8103  3.1497  0.8911
 9029TIP3   OH248501   0.042   5.806  15.883 -0.4634  0.1791  0.2200
 9029TIP3    H148502   0.135   5.804  15.858 -0.9533 -1.4921 -1.7049
 9029TIP3    H248503  -0.002   5.842  15.806 -1.4518  1.0274  1.1460
 9030TIP3   OH248504   5.688   3.991   2.851 -0.5282  0.5183  0.0284
 9030TIP3    H148505   5.624   4.058   2.874  1.2084  1.9137  1.0303
 9030TIP3    H248506   5.674   3.922   2.916 -0.8888  0.8922  0.3553
 9031TIP3   OH248507   1.449   3.290  14.169 -0.9148  0.3737 -0.0876
 9031TIP3    H148508   1.489   3.313  14.085 -0.6290 -0.6245 -0.2367
 9031TIP3    H248509   1.356   3.309  14.156 -1.0004 -0.5364 -0.9219
 9032TIP3   OH248510   1.015   3.327  13.608  0.3269  0.2721 -0.3998
 9032TIP3    H148511   1.097   3.362  13.642 -0.6722  2.2297  0.1862
 9032TIP3    H248512   0.947   3.380  13.652 -1.2384 -1.2265 -0.9105
 9033TIP3   OH248513   6.340   2.383   5.132 -0.2596  0.6683  0.1531
 9033TIP3    H148514   6.383   2.378   5.046  0.3160  1.3585  0.3892
 9033TIP3    H248515   6.274   2.313   5.130  0.7307 -0.2893 -0.3028
 9034TIP3   OH248516   3.360   5.219   4.907 -0.0883  0.3460  0.2712
 9034TIP3    H148517   3.429   5.154   4.899 -0.6836 -0.3132  0.3613
 9034TIP3    H248518   3.292   5.189   4.847 -1.2128 -0.2269  1.7724
 9035TIP3   OH248519   3.352   3.311   4.190 -0.0854 -0.0813 -0.3619
 9035TIP3    H148520   3.443   3.343   4.195 -0.0972 -0.0784 -0.1260
 9035TIP3    H248521   3.349   3.259   4.111 -0.1916  0.8984 -1.0235
 9036TIP3   OH248522   2.669   5.331   2.058  0.2103 -0.3362 -0.5481
 9036TIP3    H148523   2.683   5.343   1.964  1.2380 -1.4356 -0.5590
 9036TIP3    H248524   2.756   5.317   2.094 -0.2689 -1.0243  0.4000
 9037TIP3   OH248525   4.320   1.590  12.655 -0.3232 -0.0457  0.3248
 9037TIP3    H148526   4.256   1.639  12.603  0.9144  1.2948  0.0112
 9037TIP3    H248527   4.370   1.541  12.589  0.2809  0.4902  0.3844
 9038TIP3   OH248528   1.908   2.792  15.709  0.3194  0.1292  0.1470
 9038TIP3    H148529   1.920   2.856  15.639  1.0969  0.7836  0.8489
 9038TIP3    H248530   1.830   2.823  15.755 -1.0083 -1.0680 -1.2015
 9039TIP3   OH248531   0.179   6.437  13.296  0.5113  0.2725  0.3220
 9039TIP3    H148532   0.193   6.531  13.282  0.3444  0.5085  1.6186
 9039TIP3    H248533   0.229   6.417  13.376 -0.0496 -0.5868  0.4668
 9040TIP3   OH248534   6.157   1.067  11.717 -0.3465 -0.2083  0.0102
 9040TIP3    H148535   6.134   1.160  11.724  2.0977  0.3945  0.7249
 9040TIP3    H248536   6.151   1.034  11.806 -0.6762 -0.6150 -0.1603
 9041TIP3   OH248537   3.020   0.423  11.574 -0.7940  0.2349 -0.2368
 9041TIP3    H148538   2.952   0.379  11.522 -0.3036 -0.9114  0.0486
 9041TIP3    H248539   3.073   0.469  11.509 -1.1900  0.2234 -0.5727
 9042TIP3   OH248540   6.517   1.788  16.157 -0.4728  0.4055  0.3294
 9042TIP3    H148541   6.525   1.738  16.239  2.4239 -1.3332 -0.8432
 9042TIP3    H248542   6.565   1.736  16.093  0.0710  3.2657 -1.7673
 9043TIP3   OH248543   5.995   6.623  16.173 -0.1976  0.2569 -0.3363
 9043TIP3    H148544   5.931   6.573  16.122  1.3488 -0.3339 -1.7986
 9043TIP3    H248545   5.950   6.704  16.196 -0.9534  0.5999 -2.7558
 9044TIP3   OH248546   6.784   0.793   2.256 -0.4801 -0.1032  0.1391
 9044TIP3    H148547   6.703   0.793   2.207  0.3662  0.8774 -1.3446
 9044TIP3    H248548   6.809   0.701   2.263 -0.5525 -0.2541 -1.4173
 9045TIP3   OH248549   5.252   2.678  15.689  0.8059 -0.2788 -0.2076
 9045TIP3    H148550   5.265   2.618  15.616  0.2436 -2.2406  1.2328
 9045TIP3    H248551   5.171   2.724  15.668 -0.4425 -2.2376  0.0410
 9046TIP3   OH248552   5.209   5.081   2.895  0.5941 -0.9011  0.3047
 9046TIP3    H148553   5.236   5.036   2.975 -0.6432 -2.8482 -0.3067
 9046TIP3    H248554   5.271   5.052   2.829  1.0568 -0.0209  0.3406
 9047TIP3   OH248555   3.975   4.031   0.064 -0.2450 -0.0910  0.0397
 9047TIP3    H148556   4.048   4.085   0.034 -0.0381 -1.2163 -1.6137
 9047TIP3    H248557   3.914   4.093   0.105  1.0525  1.0286  0.3571
 9048TIP3   OH248558   4.284   3.652   0.024 -0.5497  0.1212 -0.3280
 9048TIP3    H148559   4.313   3.644  -0.067  0.0127  0.3446 -0.1729
 9048TIP3    H248560   4.199   3.607   0.026 -0.3672 -0.2654 -0.8660
 9049TIP3   OH248561   5.895   0.578   5.813 -0.1942  0.4254 -0.0416
 9049TIP3    H148562   5.857   0.518   5.878 -0.1883 -0.7847 -1.1259
 9049TIP3    H248563   5.989   0.578   5.832 -0.1314 -0.2911 -0.3407
 9050TIP3   OH248564   5.827   4.984   5.379  0.0301  0.1973 -0.1863
 9050TIP3    H148565   5.817   4.889   5.372  2.0993 -0.0512 -0.5828
 9050TIP3    H248566   5.822   5.015   5.289  1.9099  0.0971 -0.3719
 9051TIP3   OH248567   5.413   3.419   1.958 -0.0083  0.6627  0.2634
 9051TIP3    H148568   5.421   3.514   1.953 -0.4596  0.7353  0.8948
 9051TIP3    H248569   5.321   3.401   1.941  0.3080  0.2362 -1.1361
 9052TIP3   OH248570   4.556   3.702   1.385  0.2652 -0.5205 -0.1754
 9052TIP3    H148571   4.487   3.684   1.449 -0.2475 -0.8760 -0.8036
 9052TIP3    H248572   4.636   3.670   1.426  0.1571  0.4353  0.8083
 9053TIP3   OH248573   6.019   3.797   5.568 -0.2295 -0.2871 -0.1044
 9053TIP3    H148574   6.010   3.853   5.490 -0.9415  0.1972  0.3133
 9053TIP3    H248575   6.108   3.815   5.599 -0.0644 -0.2154 -0.6030
 9054TIP3   OH248576   6.619   5.695  14.490 -0.5675  0.0197 -0.0257
 9054TIP3    H148577   6.635   5.707  14.584 -0.3197 -1.9764  0.2398
 9054TIP3    H248578   6.643   5.604  14.473 -1.0615  0.1951 -1.9426
 9055TIP3   OH248579   3.760   1.560  15.274  0.1598 -0.1362 -0.1975
 9055TIP3    H148580   3.791   1.616  15.345  1.1254  0.2762 -0.9239
 9055TIP3    H248581   3.665   1.562  15.282  0.2437 -1.3015  1.9996
 9056TIP3   OH248582   6.616   1.465  13.222 -0.7685 -0.3718  0.2942
 9056TIP3    H148583   6.669   1.419  13.157 -2.1108 -1.3527 -0.1576
 9056TIP3    H248584   6.677   1.486  13.292 -0.1948 -3.8194  1.0162
 9057TIP3   OH248585   0.896   4.343  11.761 -0.1804 -0.6409 -0.4246
 9057TIP3    H148586   0.912   4.369  11.670 -0.6656  0.7087 -0.1481
 9057TIP3    H248587   0.806   4.372  11.778 -0.4149 -1.7150  0.2124
 9058TIP3   OH248588   4.698   3.840  11.642  0.2340  0.2550 -0.2812
 9058TIP3    H148589   4.789   3.861  11.625  0.0881  0.6731 -0.5518
 9058TIP3    H248590   4.672   3.782  11.570  0.6648 -0.9700  0.5194
 9059TIP3   OH248591   1.076   1.113   0.832 -0.0491 -0.0368 -0.1775
 9059TIP3    H148592   1.106   1.141   0.919 -0.1458  1.1547 -0.5115
 9059TIP3    H248593   1.143   1.051   0.802  0.2918  0.0001  0.4961
 9060TIP3   OH248594   4.072   4.878   4.897 -0.1298 -0.3914 -0.8438
 9060TIP3    H148595   4.033   4.964   4.884  1.2181  0.2042 -1.0813
 9060TIP3    H248596   4.029   4.845   4.976  0.6837  1.3304  0.3900
 9061TIP3   OH248597   4.667   3.791  16.787 -0.0173 -0.7105  0.0184
 9061TIP3    H148598   4.677   3.725  16.719  1.6653 -0.8624  0.3579
 9061TIP3    H248599   4.658   3.740  16.868  0.2129 -0.5393  0.1541
 9062TIP3   OH248600   6.746   2.798  12.254  0.7550 -0.4270  0.2181
 9062TIP3    H148601   6.799   2.877  12.261  0.8410 -0.3705 -0.8779
 9062TIP3    H248602   6.732   2.770  12.344  0.9777  0.6665  0.6064
 9063TIP3   OH248603   6.607   4.430   1.330  0.1690 -0.2257 -0.0984
 9063TIP3    H148604   6.699   4.417   1.307  1.0596  0.0601  2.9328
 9063TIP3    H248605   6.600   4.522   1.354 -0.5762 -0.5306  0.9479
 9064TIP3   OH248606   2.326   6.157   1.593 -0.2396 -0.3259 -0.0521
 9064TIP3    H148607   2.371   6.241   1.584  0.6919 -0.9732 -2.0262
 9064TIP3    H248608   2.235   6.176   1.568  0.2074 -0.0908 -1.6021
 9065TIP3   OH248609   0.373   1.403   5.275 -0.2856 -0.0047  0.0308
 9065TIP3    H148610   0.339   1.471   5.333 -0.5291  2.0153 -2.3175
 9065TIP3    H248611   0.440   1.447   5.223  0.4460 -1.9174 -0.7524
 9066TIP3   OH248612   0.100   6.410   2.055 -0.0134 -0.1199 -0.0904
 9066TIP3    H148613   0.062   6.494   2.029 -1.1132 -0.7829 -0.7305
 9066TIP3    H248614   0.183   6.433   2.097 -0.9254  1.3862  0.9974
 9067TIP3   OH248615   4.566   0.708  12.995  0.0467 -0.1355 -0.1256
 9067TIP3    H148616   4.548   0.767  12.922 -0.3184 -1.0590 -0.8026
 9067TIP3    H248617   4.636   0.752  13.045 -0.7652  1.2371 -0.1449
 9068TIP3   OH248618   4.834   4.674  16.181  0.0283  0.3335  0.1655
 9068TIP3    H148619   4.792   4.679  16.267  0.5428 -0.9514  0.5231
 9068TIP3    H248620   4.764   4.649  16.121 -0.8057  3.2667 -0.2305
 9069TIP3   OH248621   3.245   4.000  13.591  0.3715 -0.1111 -0.5542
 9069TIP3    H148622   3.233   4.052  13.670  0.9051  1.5375 -1.4896
 9069TIP3    H248623   3.168   3.944  13.587  0.0961  0.1306  0.8638
 9070TIP3   OH248624   5.427   4.021  11.525 -0.1230 -0.5510 -0.1265
 9070TIP3    H148625   5.501   3.963  11.543 -1.3114 -1.8923  0.6832
 9070TIP3    H248626   5.357   3.988  11.582 -1.6781 -0.0185 -1.6535
 9071TIP3   OH248627   0.314   2.408   0.185 -0.6748  0.3229  0.4372
 9071TIP3    H148628   0.307   2.384   0.277  0.6093  0.9461  0.7136
 9071TIP3    H248629   0.241   2.468   0.170 -0.6128  0.5763  1.1613
 9072TIP3   OH248630   3.287   3.844  13.974  0.3643  0.5534  0.0556
 9072TIP3    H148631   3.258   3.779  14.038 -0.3044  1.4136  0.6677
 9072TIP3    H248632   3.341   3.796  13.912  0.1956 -0.4989  0.7086
 9073TIP3   OH248633   3.456   6.554   4.835 -0.2398 -0.3726  0.0089
 9073TIP3    H148634   3.516   6.612   4.882 -2.7096  2.3438  0.1019
 9073TIP3    H248635   3.497   6.541   4.750  0.4404  1.5482 -0.0102
 9074TIP3   OH248636   0.291   3.924   0.496 -0.2915  0.4884 -0.0075
 9074TIP3    H148637   0.222   3.988   0.479 -0.2806  0.1131 -1.5893
 9074TIP3    H248638   0.368   3.977   0.519 -0.4464  1.0298 -0.7021
 9075TIP3   OH248639   0.784   3.492  13.642 -0.2359  0.3772 -0.3215
 9075TIP3    H148640   0.738   3.556  13.587 -0.2724  0.9013  0.3148
 9075TIP3    H248641   0.753   3.509  13.731 -2.2377 -2.2066 -0.4007
 9076TIP3   OH248642   6.166   4.035   3.693 -0.1530 -0.3684 -0.0848
 9076TIP3    H148643   6.216   4.053   3.613  2.5161  1.0385  1.7343
 9076TIP3    H248644   6.083   3.999   3.662  1.3284 -1.3128 -3.4130
 9077TIP3   OH248645   5.854   2.666  16.533 -0.1775  0.3239  0.2878
 9077TIP3    H148646   5.807   2.749  16.535 -0.7695  0.0278 -0.6075
 9077TIP3    H248647   5.868   2.648  16.440 -3.2389 -2.2872  0.1464
 9078TIP3   OH248648   1.709   4.297   5.207  0.1149 -0.3269 -0.1650
 9078TIP3    H148649   1.753   4.230   5.260  0.3674 -0.5431 -0.6442
 9078TIP3    H248650   1.761   4.376   5.220  0.7435 -0.6159 -0.8417
 9079TIP3   OH248651   5.515   2.776   0.397 -0.4093 -0.0233 -0.3126
 9079TIP3    H148652   5.557   2.694   0.372 -0.9396 -0.1193 -0.9190
 9079TIP3    H248653   5.497   2.819   0.314 -0.7105  0.4195 -0.0216
 9080TIP3   OH248654   3.909   1.903  16.033  0.3270  0.3794 -0.0341
 9080TIP3    H148655   3.881   1.859  16.113  0.5610  0.4722  0.1022
 9080TIP3    H248656   3.840   1.966  16.014 -1.6585 -2.2002 -2.0285
 9081TIP3   OH248657   4.696   4.933   5.295  0.1172  0.5469 -0.0243
 9081TIP3    H148658   4.651   4.998   5.349 -1.4490 -1.2779  0.9722
 9081TIP3    H248659   4.656   4.850   5.318  1.0852 -0.6396 -2.2594
 9082TIP3   OH248660   5.705   5.366  15.562 -0.4762  0.2533  0.0081
 9082TIP3    H148661   5.688   5.417  15.484 -0.2785  0.8339  0.3378
 9082TIP3    H248662   5.625   5.372  15.614 -0.2254  0.7644  0.3393
 9083TIP3   OH248663   4.568   1.253   0.062  0.3853  1.1939 -0.1328
 9083TIP3    H148664   4.515   1.300   0.126  1.5586 -1.4242  3.0449
 9083TIP3    H248665   4.524   1.168   0.051  2.1753  0.1748  0.1374
 9084TIP3   OH248666   1.129   3.571  10.324 -0.2241  0.2060 -0.2842
 9084TIP3    H148667   1.216   3.592  10.291  0.7584 -0.6103  1.6131
 9084TIP3    H248668   1.089   3.656  10.344 -0.7029  0.6932 -3.0116
 9085TIP3   OH248669   4.348   4.758   4.312 -0.4154 -0.1876  0.4349
 9085TIP3    H148670   4.367   4.668   4.338  0.8418 -0.0143  0.1734
 9085TIP3    H248671   4.377   4.811   4.386 -0.8419  0.0296  0.4499
 9086TIP3   OH248672   1.368   2.128  12.272  0.1401 -0.0317 -0.5841
 9086TIP3    H148673   1.334   2.059  12.216  3.1461 -1.0358 -1.3113
 9086TIP3    H248674   1.433   2.173  12.219  1.6540  0.2666  1.4191
 9087TIP3   OH248675   5.887   5.391   1.684 -0.1998 -0.2679 -0.1096
 9087TIP3    H148676   5.827   5.401   1.758 -1.4174 -4.2888 -0.2986
 9087TIP3    H248677   5.830   5.392   1.607  0.5485  0.1099 -0.6626
 9088TIP3   OH248678   1.088   0.895   6.525  0.4056  0.2873  0.0245
 9088TIP3    H148679   1.040   0.975   6.501  1.6902  1.6016  1.5488
 9088TIP3    H248680   1.178   0.912   6.496  0.4483 -1.1878 -0.7862
 9089TIP3   OH248681   1.668   1.985   2.116  0.3574  0.3872 -0.3745
 9089TIP3    H148682   1.689   1.899   2.151  3.0486  0.6786 -1.0497
 9089TIP3    H248683   1.641   2.036   2.192  1.1871 -0.3723  0.4497
 9090TIP3   OH248684   5.212   2.532  14.986  0.4997 -0.2725 -0.0524
 9090TIP3    H148685   5.242   2.442  14.976 -0.4411 -0.5620 -0.3913
 9090TIP3    H248686   5.133   2.537  14.932 -0.2494  0.3519  1.0520
 9091TIP3   OH248687   0.658   1.620  16.045 -1.0220 -0.1131  0.3014
 9091TIP3    H148688   0.708   1.702  16.046 -1.0505 -0.0956  1.2275
 9091TIP3    H248689   0.645   1.602  15.952  0.9645 -0.2710 -0.0079
 9092TIP3   OH248690   6.461   1.798  14.429  0.5759  0.5827 -0.2008
 9092TIP3    H148691   6.540   1.749  14.453 -0.4315 -0.3146  1.4848
 9092TIP3    H248692   6.403   1.732  14.390  1.1289  1.5052 -2.8096
 9093TIP3   OH248693   4.808   2.628   3.587 -0.3622 -0.9018  0.4522
 9093TIP3    H148694   4.849   2.636   3.673 -1.9959  1.3886  1.0972
 9093TIP3    H248695   4.867   2.675   3.528  0.4509 -1.9664  0.3736
 9094TIP3   OH248696   0.954   3.353   1.089 -0.0549 -0.5041 -0.2967
 9094TIP3    H148697   0.961   3.265   1.051  0.6445  0.5198 -2.6860
 9094TIP3    H248698   0.862   3.376   1.080 -0.3550 -1.1661  0.8497
 9095TIP3   OH248699   1.272   1.157   0.606 -0.2852  0.0368 -0.4385
 9095TIP3    H148700   1.281   1.252   0.592  1.0784 -0.1720 -1.0953
 9095TIP3    H248701   1.328   1.138   0.681 -0.7012 -0.2322 -0.1928
 9096TIP3   OH248702   2.547   3.021  12.387 -0.2291  0.4849 -0.4003
 9096TIP3    H148703   2.585   3.032  12.299  0.5835 -2.0684 -0.4553
 9096TIP3    H248704   2.549   2.927  12.402 -0.6717  0.8208  2.2552
 9097TIP3   OH248705   3.550   0.239  14.219  0.3513  0.6864 -0.0435
 9097TIP3    H148706   3.500   0.189  14.284 -0.5882  0.4930 -0.8946
 9097TIP3    H248707   3.488   0.257  14.149  1.5976 -0.0129 -1.3901
 9098TIP3   OH248708   3.914   3.508  14.588  0.0343  0.8598 -0.3951
 9098TIP3    H148709   3.845   3.473  14.644 -1.0134  2.1515 -0.8301
 9098TIP3    H248710   3.875   3.515  14.501  0.9312  0.9764 -0.8011
 9099TIP3   OH248711   0.660   2.784  16.250 -0.3298 -0.1401  0.1000
 9099TIP3    H148712   0.751   2.811  16.237  0.2547 -1.5955  0.9511
 9099TIP3    H248713   0.620   2.792  16.163 -0.0988  2.8440  0.1686
 9100TIP3   OH248714   0.299   5.312   2.150  0.3820  0.1570  0.0497
 9100TIP3    H148715   0.326   5.284   2.062 -0.1712  1.3207 -0.5075
 9100TIP3    H248716   0.380   5.313   2.201  0.3566 -3.1951  0.3629
 9101TIP3   OH248717   6.262   1.742  12.039 -0.1751  0.2037  0.2812
 9101TIP3    H148718   6.306   1.816  11.998 -2.5298  0.2435 -2.5608
 9101TIP3    H248719   6.194   1.782  12.093  0.3480  0.0994  1.0327
 9102TIP3   OH248720   1.564   5.751   6.247 -0.2341 -0.0095 -0.3373
 9102TIP3    H148721   1.548   5.657   6.261 -0.4899  0.1564  0.5786
 9102TIP3    H248722   1.620   5.777   6.320 -1.7048  0.9415  0.5078
 9103TIP3   OH248723   4.923   5.816  10.854 -0.0575 -0.0204  0.1047
 9103TIP3    H148724   4.988   5.806  10.784 -0.5051  1.5642 -0.5703
 9103TIP3    H248725   4.914   5.728  10.891  2.5101 -0.2728  0.2737
 9104TIP3   OH248726   5.596   6.482  12.159  0.3881  0.1842  0.1482
 9104TIP3    H148727   5.645   6.478  12.077 -1.2089 -0.3948 -0.8144
 9104TIP3    H248728   5.547   6.564  12.154 -1.6284 -1.0024 -0.6659
 9105TIP3   OH248729   0.579   3.207   2.119 -0.0911 -0.3942  0.2935
 9105TIP3    H148730   0.566   3.245   2.032 -0.2126 -1.5672 -0.2113
 9105TIP3    H248731   0.557   3.115   2.109  2.6606 -1.2134  0.8651
 9106TIP3   OH248732   2.440   1.958  16.761 -0.3566  0.6240 -0.2106
 9106TIP3    H148733   2.394   1.879  16.790  0.4205  1.2338  3.1985
 9106TIP3    H248734   2.532   1.937  16.771 -0.1279  1.7917  0.3261
 9107TIP3   OH248735   0.536   1.603  14.621 -0.2204  0.3762 -0.0894
 9107TIP3    H148736   0.581   1.686  14.638  0.5772  0.2136 -1.3295
 9107TIP3    H248737   0.574   1.542  14.685  2.4985 -0.1400 -2.0589
 9108TIP3   OH248738   2.736   3.633   4.235 -0.1791 -0.4855 -0.4479
 9108TIP3    H148739   2.717   3.541   4.253 -0.4014 -0.4026 -0.2505
 9108TIP3    H248740   2.814   3.631   4.180  0.3894 -0.7572  0.3439
 9109TIP3   OH248741   5.745   1.128   4.884 -0.2809 -0.0395 -0.3875
 9109TIP3    H148742   5.710   1.078   4.810  0.0898 -1.5402  0.4102
 9109TIP3    H248743   5.801   1.066   4.930 -0.1646  0.9921  0.9039
 9110TIP3   OH248744   6.113   0.198   6.172 -0.2535  0.3404  0.2279
 9110TIP3    H148745   6.091   0.188   6.265  2.3889  1.7376  1.1047
 9110TIP3    H248746   6.204   0.170   6.166  0.7080  3.3876 -1.2280
 9111TIP3   OH248747   3.127   5.634   4.683  0.0609  0.0691 -0.5060
 9111TIP3    H148748   3.047   5.611   4.730 -0.1586 -1.9579 -1.7547
 9111TIP3    H248749   3.198   5.600   4.737  0.0890  1.3371  0.3027
 9112TIP3   OH248750   0.483   6.445  13.123  0.1921  0.1507 -0.2580
 9112TIP3    H148751   0.409   6.411  13.073  0.0453 -0.5895  0.4317
 9112TIP3    H248752   0.522   6.367  13.163  0.6428  0.6630  0.3164
 9113TIP3   OH248753   2.477   2.407   4.445 -0.4856  0.6310  0.7330
 9113TIP3    H148754   2.569   2.425   4.427 -0.2009 -1.4917 -0.3064
 9113TIP3    H248755   2.467   2.424   4.538  0.6983  1.8581  0.6638
 9114TIP3   OH248756   3.467   3.654  13.474  0.0973  0.2704 -0.0446
 9114TIP3    H148757   3.529   3.647  13.547 -0.8254  2.6828  1.0673
 9114TIP3    H248758   3.499   3.728  13.424 -0.4571 -0.0939 -0.9444
 9115TIP3   OH248759   5.178   4.805  14.506  0.3352 -0.6662  0.2139
 9115TIP3    H148760   5.233   4.828  14.432 -1.1270  1.3505 -0.3327
 9115TIP3    H248761   5.238   4.766  14.570  2.2718  0.8984 -0.5678
 9116TIP3   OH248762   3.589   0.025   5.270 -0.0935 -0.0882 -0.5032
 9116TIP3    H148763   3.673   0.020   5.224  1.0832  2.4466  1.1400
 9116TIP3    H248764   3.525   0.039   5.201  1.2824  1.0904 -1.6153
 9117TIP3   OH248765   5.944   3.741   4.737 -0.3608 -0.1897 -0.4551
 9117TIP3    H148766   5.852   3.728   4.716 -0.0132 -0.8574 -1.6741
 9117TIP3    H248767   5.967   3.824   4.695  0.0170 -0.9003 -1.7040
 9118TIP3   OH248768   5.486   3.567   0.581 -0.4851  0.0826 -0.5307
 9118TIP3    H148769   5.426   3.546   0.509 -0.7879 -1.6473  0.1711
 9118TIP3    H248770   5.432   3.556   0.660  0.3208  0.1291  0.0320
 9119TIP3   OH248771   2.896   2.570   5.573  0.0787  0.1014  0.7363
 9119TIP3    H148772   2.862   2.654   5.603 -0.2127  1.3391 -2.6219
 9119TIP3    H248773   2.984   2.590   5.539 -0.0556 -0.8826 -0.2737
 9120TIP3   OH248774   3.111   6.557   0.343  0.4849  0.0227 -0.6912
 9120TIP3    H148775   3.052   6.534   0.415 -0.5644  1.7144 -0.9745
 9120TIP3    H248776   3.127   6.473   0.299 -0.5602 -0.6976  0.2276
 9121TIP3   OH248777   4.888   5.191  11.301 -0.2226 -0.3010  0.6820
 9121TIP3    H148778   4.944   5.264  11.327 -0.2863 -0.3593  0.9836
 9121TIP3    H248779   4.949   5.123  11.273 -0.1400 -0.4009  1.1055
 9122TIP3   OH248780   0.062   2.595  14.961  0.3512 -0.0712 -0.2620
 9122TIP3    H148781   0.077   2.655  15.034 -0.9131 -0.1281  0.0831
 9122TIP3    H248782  -0.034   2.589  14.955  0.3766 -2.8619  0.4330
 9123TIP3   OH248783   2.540   1.103   0.865 -0.3297 -0.1981 -0.1241
 9123TIP3    H148784   2.451   1.139   0.870 -0.1277  0.1808  1.1167
 9123TIP3    H248785   2.594   1.167   0.912  0.4266 -0.9760  0.0807
 9124TIP3   OH248786   5.471   0.294   1.334 -0.5677 -0.1010  0.0513
 9124TIP3    H148787   5.460   0.384   1.366  1.4937 -0.5714  2.3586
 9124TIP3    H248788   5.444   0.239   1.407 -0.7763 -1.3670 -0.9451
 9125TIP3   OH248789   0.817   6.607   0.162  0.1242 -0.0869  0.2228
 9125TIP3    H148790   0.863   6.631   0.242 -1.2900 -0.7558  1.2757
 9125TIP3    H248791   0.747   6.672   0.154 -0.6116 -0.8587  0.3140
 9126TIP3   OH248792   2.890   0.970  11.345  0.5092 -0.3547 -0.0658
 9126TIP3    H148793   2.932   1.039  11.396  2.4276 -0.9629 -0.7234
 9126TIP3    H248794   2.893   0.893  11.401 -0.0017 -0.3312 -0.0062
 9127TIP3   OH248795   3.165   0.058   1.169 -0.3409  0.1034 -0.0913
 9127TIP3    H148796   3.114   0.132   1.138 -1.3144  0.1520  1.5342
 9127TIP3    H248797   3.167   0.067   1.264 -1.5143 -2.5659  0.2869
 9128TIP3   OH248798   4.756   5.666  12.728 -0.6563 -0.8242 -0.4344
 9128TIP3    H148799   4.840   5.668  12.774  0.4751 -1.4596 -2.3191
 9128TIP3    H248800   4.706   5.738  12.765  0.7698 -0.3637  0.6740
 9129TIP3   OH248801   1.076   2.579  16.985  0.1895  0.1485  0.1492
 9129TIP3    H148802   1.085   2.544  16.896  1.4208  0.4358  0.1440
 9129TIP3    H248803   1.149   2.641  16.994 -0.9553  1.4654  0.7489
 9130TIP3   OH248804   4.603   2.689   4.637  0.2531 -0.2461  0.8079
 9130TIP3    H148805   4.646   2.610   4.672 -0.0122  0.1765  2.1499
 9130TIP3    H248806   4.653   2.710   4.559  0.4887 -1.6025  0.5637
 9131TIP3   OH248807   2.176   1.270  13.244 -0.3045  0.6046 -0.2136
 9131TIP3    H148808   2.104   1.213  13.217 -0.5433  1.0920 -0.6380
 9131TIP3    H248809   2.141   1.319  13.318 -0.8916  1.7622 -1.2030
 9132TIP3   OH248810   3.824   3.611  15.461 -0.0302  0.1309  0.6471
 9132TIP3    H148811   3.838   3.659  15.380 -1.8026  0.4391  0.5014
 9132TIP3    H248812   3.910   3.612  15.503  0.9478 -0.1103 -1.2363
 9133TIP3   OH248813   5.002   3.737   0.930  0.5841  0.2661 -0.4422
 9133TIP3    H148814   4.996   3.652   0.887  2.2090 -0.7295  1.1357
 9133TIP3    H248815   5.007   3.716   1.023  0.9721  2.1037 -0.0052
 9134TIP3   OH248816   1.697   1.589  12.404 -0.0356 -1.6224  0.8808
 9134TIP3    H148817   1.604   1.567  12.401 -0.2928 -0.4889 -1.7625
 9134TIP3    H248818   1.742   1.506  12.389 -0.7237 -1.8062 -0.2693
 9135TIP3   OH248819   5.346   5.476   1.889 -0.6609  0.3046 -0.8915
 9135TIP3    H148820   5.268   5.444   1.936  0.2884 -0.0623  0.4913
 9135TIP3    H248821   5.318   5.559   1.851 -1.5289  0.5394  0.2051
 9136TIP3   OH248822   0.672   0.368  14.215  0.3524  0.6975 -0.0387
 9136TIP3    H148823   0.734   0.427  14.172 -1.2806  1.7933 -1.0047
 9136TIP3    H248824   0.668   0.291  14.158  0.3702  0.8779 -0.2812
 9137TIP3   OH248825   3.484   6.130   0.463 -0.0222 -0.1338  0.1710
 9137TIP3    H148826   3.416   6.100   0.523 -0.7872  0.1713 -0.5203
 9137TIP3    H248827   3.437   6.181   0.397  0.8203 -0.3136 -0.5905
 9138TIP3   OH248828   3.147   5.057  15.567 -0.0052 -0.5639 -0.1924
 9138TIP3    H148829   3.203   5.135  15.572 -2.8692  1.6360  0.3090
 9138TIP3    H248830   3.144   5.023  15.656 -0.0240 -0.2517 -0.0750
 9139TIP3   OH248831   5.361   0.092   4.926  0.3230  0.0367 -0.3544
 9139TIP3    H148832   5.305   0.015   4.928 -1.1180  1.0684  0.3350
 9139TIP3    H248833   5.450   0.057   4.938 -0.5507 -1.2679  4.5399
 9140TIP3   OH248834   1.664   6.183   6.204 -0.6405  0.0039 -0.0656
 9140TIP3    H148835   1.649   6.237   6.282 -1.6329  0.8081 -0.7936
 9140TIP3    H248836   1.750   6.142   6.219 -0.6808  0.3801  1.3029
 9141TIP3   OH248837   5.145   6.049   4.411 -0.1492  0.2396 -0.3379
 9141TIP3    H148838   5.124   6.092   4.328  3.3492 -0.6973 -1.9132
 9141TIP3    H248839   5.122   5.957   4.398 -2.9902  0.6344  1.1990
 9142TIP3   OH248840   6.648   0.959   2.837 -0.1599 -0.6415 -0.5484
 9142TIP3    H148841   6.708   0.907   2.891  1.2514 -0.0053 -1.4179
 9142TIP3    H248842   6.644   1.044   2.881  0.4660 -0.3344 -1.0710
 9143TIP3   OH248843   4.915   6.373  14.623  0.2429 -0.1320  0.0407
 9143TIP3    H148844   4.973   6.411  14.557 -0.9386  0.2906 -0.8054
 9143TIP3    H248845   4.883   6.449  14.673 -0.0928 -0.2894  0.0656
 9144TIP3   OH248846   6.394   4.204   5.012 -0.0821  0.0824  0.0225
 9144TIP3    H148847   6.395   4.269   4.942  1.5122  0.8442  0.7135
 9144TIP3    H248848   6.389   4.120   4.967  1.1467  0.5487 -1.0392
 9145TIP3   OH248849   3.623   2.456   2.509 -0.3154  0.0870 -0.5558
 9145TIP3    H148850   3.603   2.533   2.457 -0.9283 -0.4687 -1.1713
 9145TIP3    H248851   3.695   2.413   2.462  0.4845  0.6149  0.1462
 9146TIP3   OH248852   4.170   1.787   0.718 -0.4164  0.5760 -0.0813
 9146TIP3    H148853   4.117   1.839   0.658 -2.5873 -1.9171 -0.5055
 9146TIP3    H248854   4.233   1.742   0.662  0.7689  1.8419  0.1680
 9147TIP3   OH248855   2.671   1.082   4.435 -0.2009  0.4148 -0.1528
 9147TIP3    H148856   2.737   1.145   4.405  0.4995 -1.2336 -2.3656
 9147TIP3    H248857   2.716   0.998   4.433 -1.7496 -0.4613  0.4846
 9148TIP3   OH248858   6.415   6.305   2.414 -0.0292  0.5231  0.1673
 9148TIP3    H148859   6.431   6.247   2.339 -0.0137  2.0938 -1.1070
 9148TIP3    H248860   6.496   6.298   2.466  0.0776 -0.3755 -0.0907
 9149TIP3   OH248861   0.115   3.577  16.889 -0.5195  0.0282 -0.6186
 9149TIP3    H148862   0.095   3.588  16.796 -0.5965  1.2513 -0.4759
 9149TIP3    H248863   0.209   3.561  16.892 -0.3046  1.1830 -0.8394
 9150TIP3   OH248864   4.201   5.865  14.785  0.1437  0.5170 -0.1384
 9150TIP3    H148865   4.295   5.875  14.772 -0.0092  0.8271 -1.0227
 9150TIP3    H248866   4.194   5.799  14.855  1.0131  0.6413  0.0743
 9151TIP3   OH248867   0.140   6.327  15.198  0.5073  0.6794  0.1928
 9151TIP3    H148868   0.066   6.297  15.145 -0.0510  0.7808  0.9106
 9151TIP3    H248869   0.113   6.311  15.288  1.6016  0.1590  0.4463
 9152TIP3   OH248870   2.458   4.624  12.987  0.1448  0.3795 -0.2198
 9152TIP3    H148871   2.553   4.631  12.992  0.0052  2.8225  0.2939
 9152TIP3    H248872   2.442   4.538  12.949  2.5251 -0.3568  0.2776
 9153TIP3   OH248873   5.541   1.899   1.131  0.1059  0.1914  0.0674
 9153TIP3    H148874   5.617   1.928   1.180 -0.3145  1.6083 -0.0948
 9153TIP3    H248875   5.566   1.908   1.039  0.1673 -0.5119  0.0093
 9154TIP3   OH248876   2.039   0.854  17.175  0.0422  0.5909  0.7652
 9154TIP3    H148877   1.997   0.908  17.242  0.2663  2.0317 -0.2124
 9154TIP3    H248878   2.133   0.870  17.188  0.1227  0.2387  0.6168
 9155TIP3   OH248879   5.325   5.915  15.252 -0.0982 -0.5010  0.0097
 9155TIP3    H148880   5.244   5.926  15.203 -0.2029 -0.8120  0.1113
 9155TIP3    H248881   5.394   5.943  15.191 -0.1501 -1.7206 -0.6497
 9156TIP3   OH248882   6.118   5.202  13.761  0.4147  0.1728  0.3190
 9156TIP3    H148883   6.110   5.217  13.856  1.1711  2.5755  0.0744
 9156TIP3    H248884   6.143   5.287  13.726 -0.2127 -0.5759 -2.1139
 9157TIP3   OH248885   3.239   5.529   3.979 -0.0383  0.1372  0.0775
 9157TIP3    H148886   3.333   5.536   3.965  0.8290 -4.0955  2.3615
 9157TIP3    H248887   3.206   5.487   3.899  0.4729 -0.6469  0.2675
 9158TIP3   OH248888   0.063   3.095  14.368 -0.7895  0.4988 -0.3125
 9158TIP3    H148889   0.102   3.062  14.287 -0.1895  1.1762 -0.3093
 9158TIP3    H248890   0.049   3.018  14.422 -0.2444  0.1558 -0.6591
 9159TIP3   OH248891   0.066   4.909   5.979 -0.0422  0.0467  0.3960
 9159TIP3    H148892   0.125   4.905   5.904  2.2280  2.6651  1.8401
 9159TIP3    H248893   0.105   4.850   6.043 -0.6367 -0.3980  0.3524
 9160TIP3   OH248894   6.601   5.321  12.650  0.0658  0.0690 -0.7579
 9160TIP3    H148895   6.668   5.325  12.718 -1.2105 -0.0935  0.5424
 9160TIP3    H248896   6.650   5.305  12.570  1.7073  1.2656 -0.0606
 9161TIP3   OH248897   2.467   3.602   5.928  0.0673 -0.0333  0.3258
 9161TIP3    H148898   2.514   3.530   5.970  0.2018  0.5844  1.2527
 9161TIP3    H248899   2.483   3.678   5.985  1.2175  1.1225 -1.4298
 9162TIP3   OH248900   0.893   0.217   3.483  0.5737  0.0034 -0.1973
 9162TIP3    H148901   0.851   0.188   3.564 -0.0565 -0.5916 -0.7297
 9162TIP3    H248902   0.822   0.255   3.431  0.6166 -1.2932 -1.2392
 9163TIP3   OH248903   1.387   4.953  13.807 -0.2993 -0.1724 -0.6952
 9163TIP3    H148904   1.428   4.950  13.893 -1.7399  2.1720  0.1486
 9163TIP3    H248905   1.405   4.866  13.769  1.4916 -0.8021  1.3865
 9164TIP3   OH248906   6.359   2.378  16.497 -0.1281  0.2348  0.2300
 9164TIP3    H148907   6.344   2.414  16.409 -1.2096 -0.0255  0.3020
 9164TIP3    H248908   6.452   2.394  16.513  0.1380  0.0961 -1.0510
 9165TIP3   OH248909   2.055   4.639  10.910 -0.1414  0.7477 -0.0209
 9165TIP3    H148910   2.085   4.726  10.882 -0.8186  0.8119 -0.5769
 9165TIP3    H248911   1.970   4.628  10.868 -0.1395 -0.1222  0.1752
 9166TIP3   OH248912   0.107   4.785  13.176  0.0565 -0.5006 -0.2813
 9166TIP3    H148913   0.140   4.829  13.254  1.3275 -1.6999 -0.1025
 9166TIP3    H248914   0.086   4.856  13.115  0.1115  0.4055  0.7316
 9167TIP3   OH248915   4.987   2.950   4.907 -0.4721 -0.4854 -0.1790
 9167TIP3    H148916   5.046   2.936   4.981 -0.4008 -1.3491 -0.3948
 9167TIP3    H248917   4.990   3.045   4.892 -1.3752 -0.1369  1.6485
 9168TIP3   OH248918   4.887   2.432  14.656  0.0163 -0.3414 -0.0799
 9168TIP3    H148919   4.855   2.482  14.580 -3.6710  1.6243  2.4737
 9168TIP3    H248920   4.818   2.367  14.672 -0.1699  0.3799  2.4467
 9169TIP3   OH248921   1.194   0.816   1.725 -0.0127 -0.2648  0.2522
 9169TIP3    H148922   1.108   0.775   1.714  0.5423 -1.9343  1.5892
 9169TIP3    H248923   1.254   0.742   1.735  1.2742  0.8891  1.3845
 9170TIP3   OH248924   4.702   3.840  12.991  0.0089  0.3088  0.3916
 9170TIP3    H148925   4.674   3.749  12.981  0.2055  0.0469  2.0298
 9170TIP3    H248926   4.786   3.845  12.946 -1.0590  0.2992 -1.7339
 9171TIP3   OH248927   1.449   4.018   0.969 -0.0041 -0.0676 -0.0294
 9171TIP3    H148928   1.398   4.028   1.049 -0.4600 -0.1645 -0.3091
 9171TIP3    H248929   1.539   4.038   0.996 -0.3894  1.5443  0.1620
 9172TIP3   OH248930   6.721   6.759   6.172 -0.1103 -0.2835  0.5714
 9172TIP3    H148931   6.799   6.711   6.201 -0.3800 -1.2618 -0.2805
 9172TIP3    H248932   6.669   6.695   6.124 -0.0596  1.0666 -1.4083
 9173TIP3   OH248933   2.119   1.236  16.343 -0.6409 -0.2240 -0.0214
 9173TIP3    H148934   2.073   1.289  16.408  1.0457  1.6033 -0.2189
 9173TIP3    H248935   2.211   1.243  16.368 -0.1484 -1.1556 -1.4510
 9174TIP3   OH248936   6.315   1.456   0.087 -0.0207  0.1416 -0.2391
 9174TIP3    H148937   6.268   1.514   0.027  0.6563  0.0191 -0.9050
 9174TIP3    H248938   6.382   1.512   0.126  2.2966 -0.6530 -2.7384
 9175TIP3   OH248939   3.239   4.826   3.682 -0.1464 -0.4249 -0.3446
 9175TIP3    H148940   3.175   4.824   3.753 -0.1734  1.0231 -0.2866
 9175TIP3    H248941   3.262   4.734   3.667 -1.3976 -0.8845  0.3814
 9176TIP3   OH248942   1.043   4.643  16.145 -0.4027 -0.2571 -0.1670
 9176TIP3    H148943   1.080   4.731  16.152  0.6058 -0.8010  2.3290
 9176TIP3    H248944   1.025   4.617  16.235 -3.2352 -1.6033 -1.0193
 9177TIP3   OH248945   4.097   4.515  15.077 -0.1141 -0.6890  0.7049
 9177TIP3    H148946   4.168   4.573  15.107 -0.3289  0.3627 -0.6844
 9177TIP3    H248947   4.127   4.427  15.098  1.1996 -0.2029  0.9744
 9178TIP3   OH248948   5.292   2.840  14.381  0.0657 -0.2784  0.2124
 9178TIP3    H148949   5.290   2.854  14.286 -1.0915 -1.0878  0.0998
 9178TIP3    H248950   5.227   2.901  14.415 -0.1787 -0.6396  0.3906
 9179TIP3   OH248951   0.084   1.872  12.006  0.8537 -0.2788  0.1096
 9179TIP3    H148952   0.105   1.894  12.097  0.9901 -0.6217  0.1632
 9179TIP3    H248953   0.132   1.791  11.990  1.2230  0.0341 -0.4219
 9180TIP3   OH248954   4.123   2.398  12.689 -0.2575 -0.8070  0.1267
 9180TIP3    H148955   4.146   2.469  12.628 -1.2383 -0.4420  0.1521
 9180TIP3    H248956   4.205   2.375  12.732  0.0604  0.4665  0.2575
 9181TIP3   OH248957   4.402   3.953   2.972  0.5217  0.2910 -0.4429
 9181TIP3    H148958   4.380   3.947   3.065  1.0419  2.2466 -0.1534
 9181TIP3    H248959   4.318   3.946   2.927  0.2496 -0.5437  0.1507
 9182TIP3   OH248960   5.624   2.478  11.626 -0.1071 -0.5079  0.4599
 9182TIP3    H148961   5.595   2.417  11.559  0.0422 -0.8314  0.6873
 9182TIP3    H248962   5.680   2.426  11.684 -0.4504 -0.2958  0.9848
 9183TIP3   OH248963   3.432   2.090   5.640 -0.2631 -0.2947 -0.1368
 9183TIP3    H148964   3.338   2.091   5.654 -0.4186 -2.8027 -0.5726
 9183TIP3    H248965   3.444   2.123   5.551 -0.5487  1.3848  0.4041
 9184TIP3   OH248966   2.095   6.482  12.538 -0.7345 -0.1296 -0.0209
 9184TIP3    H148967   2.149   6.432  12.477  1.2256  3.1947 -1.2613
 9184TIP3    H248968   2.099   6.432  12.620  3.2153 -0.8218 -0.4201
 9185TIP3   OH248969   4.511   0.956  13.245 -0.1077 -0.2738  0.3748
 9185TIP3    H148970   4.488   1.005  13.166 -2.1841 -0.3073  0.8880
 9185TIP3    H248971   4.450   0.882  13.245 -0.2446 -0.2018  2.0626
 9186TIP3   OH248972   3.130   6.614  15.065  0.1467  0.0928  0.4137
 9186TIP3    H148973   3.121   6.584  15.155  1.2467 -0.7332  0.2680
 9186TIP3    H248974   3.158   6.537  15.016  0.1792  0.6778 -0.5163
 9187TIP3   OH248975   2.386   6.680  14.151  0.3348 -0.2766  0.4997
 9187TIP3    H148976   2.443   6.603  14.157 -0.1710 -0.6807  0.1556
 9187TIP3    H248977   2.331   6.663  14.075  0.0010  0.2849  0.6128
 9188TIP3   OH248978   4.101   3.577  13.519  0.9607  0.2876  0.5472
 9188TIP3    H148979   4.034   3.607  13.458  0.2472 -0.3357  1.0173
 9188TIP3    H248980   4.131   3.656  13.563  1.4624  0.7487 -0.5705
 9189TIP3   OH248981   0.576   4.901   4.564  0.1163  0.2954  0.4410
 9189TIP3    H148982   0.584   4.920   4.657  1.8434  0.1751  0.3500
 9189TIP3    H248983   0.607   4.980   4.520 -0.9509  0.4607 -0.0626
 9190TIP3   OH248984   4.194   3.733  14.382  0.5520  0.6311  0.3123
 9190TIP3    H148985   4.208   3.638  14.386 -1.7225  0.2282  0.2888
 9190TIP3    H248986   4.270   3.767  14.335  1.4760 -1.1621  0.4333
 9191TIP3   OH248987   5.084   3.651  11.729 -0.0032 -0.2489  0.9400
 9191TIP3    H148988   4.999   3.636  11.690 -0.2291  0.9856  0.9142
 9191TIP3    H248989   5.072   3.631  11.822 -0.4589  0.3695  1.0216
 9192TIP3   OH248990   5.813   5.617  13.252 -0.0327  0.1472 -0.3980
 9192TIP3    H148991   5.811   5.595  13.346  1.6818 -0.4195 -0.4490
 9192TIP3    H248992   5.742   5.680  13.241 -3.0323 -2.7732  0.4487
 9193TIP3   OH248993   2.043   5.742   3.801 -0.2285  0.2460 -0.2743
 9193TIP3    H148994   2.011   5.661   3.760  1.8010 -0.3785 -0.7624
 9193TIP3    H248995   2.021   5.733   3.893  1.4678 -1.7649  0.0338
 9194TIP3   OH248996   1.227   2.175  11.817  0.4100 -0.2294 -0.0034
 9194TIP3    H148997   1.158   2.212  11.763  1.1448  1.3185  0.0668
 9194TIP3    H248998   1.287   2.134  11.755  0.1784 -0.2959 -0.1841
 9195TIP3   OH248999   0.807   2.633  11.496 -0.2180  0.1727 -0.6576
 9195TIP3    H149000   0.738   2.567  11.496 -1.4488  1.3986  0.3968
 9195TIP3    H249001   0.833   2.641  11.588 -0.4136  1.4533 -0.6918
 9196TIP3   OH249002   6.226   3.930  16.230  0.2276  0.0382  0.2213
 9196TIP3    H149003   6.213   3.977  16.312 -0.1216  0.0789  0.1435
 9196TIP3    H249004   6.224   3.997  16.162  0.9223  0.0529  0.2119
 9197TIP3   OH249005   5.511   3.831   4.400 -0.1894  0.7611  0.4045
 9197TIP3    H149006   5.477   3.920   4.397  0.8423  1.1312 -1.0233
 9197TIP3    H249007   5.563   3.822   4.320 -0.2807 -1.1261  0.5164
 9198TIP3   OH249008   1.882   5.072   1.462  0.1227 -0.1812 -0.4006
 9198TIP3    H149009   1.959   5.085   1.517  0.4968 -1.0492 -0.7069
 9198TIP3    H249010   1.809   5.064   1.523  0.2972  0.4619 -0.1034
 9199TIP3   OH249011   6.173   2.087  15.592 -0.1179  0.2161  0.5998
 9199TIP3    H149012   6.193   1.994  15.578  0.3456  0.3068  0.6384
 9199TIP3    H249013   6.155   2.121  15.504 -0.3403  0.0812  0.5908
 9200TIP3   OH249014   5.588   0.142   5.654 -0.1996  0.1328 -0.1034
 9200TIP3    H149015   5.638   0.204   5.600  0.8277 -0.7567 -0.2259
 9200TIP3    H249016   5.510   0.190   5.681  0.1711  1.2005 -0.8655
 9201TIP3   OH249017   0.909   1.359   5.174  0.7567 -0.4154 -0.0806
 9201TIP3    H149018   0.950   1.289   5.123 -0.8079 -0.7678 -0.9086
 9201TIP3    H249019   0.832   1.385   5.123 -0.4174 -0.2127  1.7036
 9202TIP3   OH249020   3.866   3.454   0.020 -0.3510  0.0305 -0.0060
 9202TIP3    H149021   3.864   3.388   0.089 -0.8876 -0.4853 -0.4997
 9202TIP3    H249022   3.774   3.477   0.007 -0.2969 -0.2290 -0.8808
 9203TIP3   OH249023   0.071   0.762  13.561 -0.0639  0.0795 -0.0691
 9203TIP3    H149024   0.102   0.712  13.637  1.5972 -0.6062 -1.1373
 9203TIP3    H249025   0.042   0.696  13.499  0.1482  0.5340 -0.6678
 9204TIP3   OH249026   1.795   4.755  14.749  0.0228 -0.7855 -0.0600
 9204TIP3    H149027   1.759   4.685  14.804  0.8052 -0.1447  1.3071
 9204TIP3    H249028   1.887   4.760  14.774 -0.1520  1.1377  0.3135
 9205TIP3   OH249029   5.403   6.433  16.383  0.7068  0.0138 -0.4046
 9205TIP3    H149030   5.417   6.426  16.478  1.1574  0.5236 -0.4262
 9205TIP3    H249031   5.423   6.525  16.363  0.4428 -0.0495 -0.9675
 9206TIP3   OH249032   6.559   4.247   3.299 -0.0441  0.2810  0.6745
 9206TIP3    H149033   6.644   4.290   3.300  0.5172 -0.7359 -0.8431
 9206TIP3    H249034   6.560   4.192   3.221 -1.7225 -0.5014  1.1517
 9207TIP3   OH249035   0.767   0.957  12.590  0.2075  0.1694  0.1474
 9207TIP3    H149036   0.752   0.985  12.681  0.2374 -1.1070  0.5715
 9207TIP3    H249037   0.807   1.033  12.548  0.4430  0.6987  1.2828
 9208TIP3   OH249038   1.447   6.724  12.234  0.2805 -0.0868  0.0052
 9208TIP3    H149039   1.452   6.721  12.138 -1.9660 -0.7106 -0.1548
 9208TIP3    H249040   1.461   6.816  12.255  0.6187  0.0953 -0.9391
 9209TIP3   OH249041   4.004   4.602   5.258 -0.4187 -0.2606 -0.2632
 9209TIP3    H149042   3.975   4.644   5.176 -0.8122  1.9325  0.9043
 9209TIP3    H249043   4.083   4.650   5.282 -0.6488 -0.4603  0.9359
 9210TIP3   OH249044   2.673   2.821   3.367  0.1477 -0.1546  0.0834
 9210TIP3    H149045   2.740   2.753   3.380  0.7098  0.2685 -0.5074
 9210TIP3    H249046   2.635   2.802   3.281  0.3700  0.3198 -0.1253
 9211TIP3   OH249047   3.732   5.518   0.323  0.1469  0.6757 -0.4944
 9211TIP3    H149048   3.788   5.583   0.367  0.0106  0.9145 -0.6741
 9211TIP3    H249049   3.749   5.532   0.230  0.4272  0.1758 -0.5206
 9212TIP3   OH249050   6.135   3.779  11.400  0.0403 -0.3709  0.2560
 9212TIP3    H149051   6.191   3.759  11.475 -0.0573 -0.6667  0.2486
 9212TIP3    H249052   6.090   3.860  11.425 -0.0526 -0.5126  0.5513
 9213TIP3   OH249053   0.958   2.809  14.134  0.5857 -0.1941 -0.0625
 9213TIP3    H149054   0.931   2.736  14.077 -2.1034  0.5720  0.0902
 9213TIP3    H249055   1.038   2.778  14.175  0.6448 -2.2392 -1.5367
 9214TIP3   OH249056   5.585   5.133   1.675 -0.1919  0.3806 -0.1650
 9214TIP3    H149057   5.678   5.115   1.663 -0.0404  0.0028  1.4189
 9214TIP3    H249058   5.541   5.075   1.613  0.5754 -0.4242  0.0221
 9215TIP3   OH249059   1.670   2.203   0.633  0.4615 -0.1694  0.2575
 9215TIP3    H149060   1.644   2.170   0.547 -0.0982 -2.6046  1.2721
 9215TIP3    H249061   1.589   2.231   0.674  0.4948 -0.5318  0.5763
 9216TIP3   OH249062   4.700   2.629  16.287 -0.0197 -0.4068 -0.0698
 9216TIP3    H149063   4.673   2.690  16.219 -0.9607  0.7697  1.3046
 9216TIP3    H249064   4.777   2.669  16.327 -0.3166 -0.3708  0.4759
 9217TIP3   OH249065   5.780   1.120  16.196  0.3375  0.0428 -0.1530
 9217TIP3    H149066   5.794   1.104  16.102  1.4917 -0.8546  0.1467
 9217TIP3    H249067   5.689   1.149  16.202 -0.8870 -3.0977 -1.2243
 9218TIP3   OH249068   0.816   1.094  12.158  0.0691 -0.5745 -0.1699
 9218TIP3    H149069   0.884   1.131  12.102  1.2871  0.2098  1.7182
 9218TIP3    H249070   0.740   1.151  12.144  0.9851  0.8548  0.4239
 9219TIP3   OH249071   0.611   3.031   6.115  0.1482 -0.0068 -0.0511
 9219TIP3    H149072   0.567   3.115   6.129  0.6948  0.2246  0.3497
 9219TIP3    H249073   0.633   3.030   6.022 -2.9889 -1.2856 -0.9066
 9220TIP3   OH249074   6.460   5.643  14.250  0.0493  0.4922  0.3842
 9220TIP3    H149075   6.453   5.555  14.213  0.5391  1.0230 -1.0403
 9220TIP3    H249076   6.488   5.629  14.341 -1.1883 -0.8547  0.5869
 9221TIP3   OH249077   4.729   6.167   4.463 -0.1703 -0.4646 -0.1416
 9221TIP3    H149078   4.791   6.120   4.519 -0.1576 -2.2579 -1.5812
 9221TIP3    H249079   4.764   6.156   4.374 -0.9040  1.1574 -0.6719
 9222TIP3   OH249080   4.521   4.059   4.658  0.0010  0.0781  0.2888
 9222TIP3    H149081   4.527   4.013   4.574  0.4553 -0.1163  0.4218
 9222TIP3    H249082   4.476   3.998   4.715 -1.9339  0.9061 -0.2781
 9223TIP3   OH249083   0.849   5.345  15.722  0.5670 -0.3293 -0.2158
 9223TIP3    H149084   0.848   5.249  15.731  1.5964 -0.5385 -1.7627
 9223TIP3    H249085   0.774   5.364  15.666  0.4578 -0.2628 -0.0437
 9224TIP3   OH249086   5.366   2.270  16.381  0.0204  0.2619 -0.9682
 9224TIP3    H149087   5.306   2.228  16.320  0.7347 -2.0745 -0.1640
 9224TIP3    H249088   5.339   2.236  16.467  1.3934  0.5415 -0.4135
 9225TIP3   OH249089   5.085   3.863  13.843 -0.0751  0.3552 -0.1097
 9225TIP3    H149090   5.036   3.945  13.850 -0.8801  0.0209 -1.3294
 9225TIP3    H249091   5.017   3.796  13.827  0.6613 -0.3555 -0.3267
 9226TIP3   OH249092   4.760   3.887   4.061 -0.1254  0.3591  0.0607
 9226TIP3    H149093   4.852   3.912   4.056  0.1420 -0.3980  0.9971
 9226TIP3    H249094   4.717   3.942   3.996  1.3923 -1.1178 -2.3780
 9227TIP3   OH249095   6.315   3.097  15.278  0.1150 -0.3591  0.3833
 9227TIP3    H149096   6.286   3.150  15.353  0.5593  1.7882 -0.8802
 9227TIP3    H249097   6.288   3.147  15.201 -1.2015 -2.9709 -0.9891
 9228TIP3   OH249098   0.534   5.014   4.083 -0.1672 -0.1932  0.4811
 9228TIP3    H149099   0.482   4.939   4.113  0.0673 -0.1880  0.9180
 9228TIP3    H249100   0.624   4.991   4.108  0.2697 -0.8310 -1.4584
 9229TIP3   OH249101   4.549   3.065   0.511  0.1113  0.0591 -0.0450
 9229TIP3    H149102   4.583   3.105   0.430 -2.7586  1.8410 -0.5007
 9229TIP3    H249103   4.625   3.063   0.570  2.0324 -0.3061 -2.3737
 9230TIP3   OH249104   0.407   0.078  11.138 -0.2953  0.0143  0.5561
 9230TIP3    H149105   0.415   0.002  11.080  1.1988  0.6801 -0.1437
 9230TIP3    H249106   0.324   0.064  11.183 -1.5547 -0.4791 -1.7784
 9231TIP3   OH249107   3.480   5.427  11.725  0.6022  0.0731  0.0715
 9231TIP3    H149108   3.478   5.522  11.736  2.0551  0.1420 -0.0191
 9231TIP3    H249109   3.466   5.414  11.631 -2.9403 -0.0305  0.5035
 9232TIP3   OH249110   1.640   5.324   4.994  0.2570  0.8458 -0.1790
 9232TIP3    H149111   1.595   5.279   5.065 -0.5523  0.1450 -1.1154
 9232TIP3    H249112   1.717   5.270   4.977 -0.9369 -0.4954 -1.5941
 9233TIP3   OH249113   4.736   1.442   0.261  0.0484  0.3355 -0.0569
 9233TIP3    H149114   4.826   1.461   0.285  0.4400 -1.8302  0.3909
 9233TIP3    H249115   4.743   1.392   0.179 -0.7412  0.0994  0.0143
 9234TIP3   OH249116   3.756   2.421  16.611  0.6110 -0.2254  0.1650
 9234TIP3    H149117   3.716   2.499  16.649  0.0386  0.9471 -2.6195
 9234TIP3    H249118   3.844   2.448  16.587  0.2928 -0.2976 -1.1428
 9235TIP3   OH249119   6.420   5.647   0.178 -0.2736  0.0365  0.5645
 9235TIP3    H149120   6.334   5.670   0.142 -0.6034 -1.0936  0.5941
 9235TIP3    H249121   6.474   5.630   0.100 -0.7598 -1.6043  0.5565
 9236TIP3   OH249122   4.711   2.900   4.219 -0.3827 -0.0850 -0.0691
 9236TIP3    H149123   4.637   2.863   4.266  0.5053 -1.8833 -0.0269
 9236TIP3    H249124   4.741   2.972   4.274 -1.2381 -0.2039  0.5742
 9237TIP3   OH249125   3.622   6.474   5.204  0.3959 -0.3658  0.4975
 9237TIP3    H149126   3.551   6.504   5.260  1.0883  1.2380  0.5520
 9237TIP3    H249127   3.617   6.378   5.209 -1.8506 -0.3137  0.3560
 9238TIP3   OH249128   2.296   5.846   0.565  0.4211  0.2199 -0.2010
 9238TIP3    H149129   2.359   5.784   0.603 -0.8985 -0.0496  1.6650
 9238TIP3    H249130   2.309   5.838   0.471  0.9581 -2.1852  0.0236
 9239TIP3   OH249131   2.299   0.558  13.853 -0.3140  0.2441  0.2082
 9239TIP3    H149132   2.388   0.540  13.886  0.3919  2.6420 -0.2122
 9239TIP3    H249133   2.256   0.603  13.925 -1.4676 -1.4554  0.6406
 9240TIP3   OH249134   4.206   4.296  13.133  0.4024 -0.1439 -0.4100
 9240TIP3    H149135   4.209   4.281  13.038 -1.9045  1.4046 -0.8026
 9240TIP3    H249136   4.227   4.389  13.143  0.3339 -0.2227  0.5729
 9241TIP3   OH249137   0.479   2.473  17.164 -0.5374  0.1022  0.0579
 9241TIP3    H149138   0.438   2.470  17.250 -0.3553  1.2592  0.1921
 9241TIP3    H249139   0.513   2.384  17.151  1.9300  0.5743  2.3969
 9242TIP3   OH249140   4.245   2.739   4.037 -0.2048 -0.2418 -0.0891
 9242TIP3    H149141   4.223   2.730   3.944 -1.4974  1.2825  0.0281
 9242TIP3    H249142   4.196   2.816   4.066  0.6174 -0.3534  1.7327
 9243TIP3   OH249143   6.453   2.820   3.436  0.1787 -0.3140 -0.1722
 9243TIP3    H149144   6.389   2.748   3.430  0.5874 -0.5859 -1.6354
 9243TIP3    H249145   6.526   2.783   3.486 -0.4761 -0.2348  0.8734
 9244TIP3   OH249146   2.076   2.379   2.663 -0.1072  0.6721 -0.0541
 9244TIP3    H149147   2.167   2.403   2.645  0.0975  1.4649  1.7702
 9244TIP3    H249148   2.056   2.310   2.600  2.2784 -0.6694  0.5336
 9245TIP3   OH249149   0.127   4.541   4.644  0.0562 -0.3552  0.4603
 9245TIP3    H149150   0.114   4.448   4.661  0.3863 -0.6306 -0.6995
 9245TIP3    H249151   0.221   4.554   4.645  0.0879 -0.3357 -0.7593
 9246TIP3   OH249152   5.696   2.536   1.127 -0.1859  0.7987 -0.4118
 9246TIP3    H149153   5.752   2.610   1.103  1.5516 -0.3423 -0.0767
 9246TIP3    H249154   5.757   2.471   1.163 -1.7072 -0.6444 -0.3447
 9247TIP3   OH249155   2.656   5.129   4.249  0.6935  0.2688 -0.4364
 9247TIP3    H149156   2.649   5.154   4.157 -0.7884 -1.8224 -0.9685
 9247TIP3    H249157   2.604   5.195   4.296 -0.2752  0.1920 -1.3599
 9248TIP3   OH249158   6.599   0.703   5.650 -0.6381  0.2196  0.2467
 9248TIP3    H149159   6.644   0.628   5.611  0.6381  0.6698  0.8200
 9248TIP3    H249160   6.669   0.765   5.671 -1.4493  0.6669  1.7679
 9249TIP3   OH249161   0.441   0.987  12.635 -0.0274  0.7707  0.8032
 9249TIP3    H149162   0.354   0.950  12.649  0.7223 -1.4711 -0.0744
 9249TIP3    H249163   0.494   0.953  12.707  0.4160  1.1429  0.6602
 9250TIP3   OH249164   4.255   1.234  15.043 -0.6797 -0.0341  0.1011
 9250TIP3    H149165   4.259   1.219  15.138 -1.7808 -2.3036 -0.1408
 9250TIP3    H249166   4.179   1.291  15.032  1.0794  2.6192  0.7270
 9251TIP3   OH249167   1.723   6.449   4.465 -0.0641  0.3759  0.1439
 9251TIP3    H149168   1.633   6.426   4.444  0.4166 -1.3153 -0.2626
 9251TIP3    H249169   1.717   6.504   4.543 -1.4740  0.8802 -0.3084
 9252TIP3   OH249170   4.041   6.572   3.025  0.0881  0.0878 -0.6809
 9252TIP3    H149171   3.996   6.558   2.942 -0.9262 -1.8604  0.1449
 9252TIP3    H249172   4.133   6.585   3.001 -0.0056 -1.5535 -2.0663
 9253TIP3   OH249173   2.684   1.387   1.261 -0.2841 -0.2490  0.1599
 9253TIP3    H149174   2.764   1.360   1.218 -0.2905 -0.7951  0.4876
 9253TIP3    H249175   2.614   1.363   1.200 -0.1152  2.1850 -1.1413
 9254TIP3   OH249176   6.219   2.417   0.336  0.4389 -0.1580 -0.5386
 9254TIP3    H149177   6.296   2.467   0.309  0.8410 -1.4869 -2.0213
 9254TIP3    H249178   6.210   2.348   0.270 -2.1046  0.0112 -0.4941
 9255TIP3   OH249179   1.989   1.802  16.522  0.7862  0.5448 -0.3686
 9255TIP3    H149180   2.005   1.708  16.528 -2.1496  0.0419  2.8061
 9255TIP3    H249181   1.974   1.819  16.429 -0.4549 -2.4883 -0.8248
 9256TIP3   OH249182   3.418   3.678  10.474 -0.3975  0.0158 -0.1469
 9256TIP3    H149183   3.367   3.754  10.501  0.1261 -0.2435  1.7605
 9256TIP3    H249184   3.502   3.714  10.446  0.1727  0.1404  1.5955
 9257TIP3   OH249185   3.434   5.613   0.037 -0.2246 -0.5764  0.2035
 9257TIP3    H149186   3.526   5.617   0.064 -0.1485  2.8970 -0.0966
 9257TIP3    H249187   3.385   5.631   0.118 -0.5493 -0.6927  0.0326
 9258TIP3   OH249188   1.564   1.558  15.562 -0.1772 -0.2282  0.0738
 9258TIP3    H149189   1.639   1.589  15.614 -0.2846 -2.1321  1.4694
 9258TIP3    H249190   1.534   1.480  15.608  0.2030 -2.5695 -3.2746
 9259TIP3   OH249191   6.108   2.614  10.735  0.2276  0.6421  0.1829
 9259TIP3    H149192   6.137   2.542  10.678  0.2658 -0.1143  1.1310
 9259TIP3    H249193   6.022   2.638  10.701  0.2680  0.2224 -0.2243
 9260TIP3   OH249194   1.566   0.897  10.409  0.0118 -0.4620 -1.2673
 9260TIP3    H149195   1.519   0.820  10.442 -1.3699  0.6109 -0.6456
 9260TIP3    H249196   1.513   0.971  10.436  1.6227  0.7711 -1.3504
 9261TIP3   OH249197   4.116   2.853   2.842 -0.0655 -0.2364  0.4578
 9261TIP3    H149198   4.197   2.877   2.797 -0.7492  3.8555  0.9900
 9261TIP3    H249199   4.081   2.779   2.792  1.8406  0.6541 -2.4351
 9262TIP3   OH249200   4.547   1.544   2.095 -0.7083  0.0957 -0.0605
 9262TIP3    H149201   4.619   1.540   2.158 -0.6545 -2.1214 -0.1815
 9262TIP3    H249202   4.569   1.617   2.038  1.0887 -0.0776  0.3420
 9263TIP3   OH249203   1.970   4.722  11.604 -0.4959  0.2553 -0.0710
 9263TIP3    H149204   2.036   4.652  11.605 -1.5707 -0.8033  1.3131
 9263TIP3    H249205   1.900   4.687  11.549 -1.4589 -0.2124  1.3973
 9264TIP3   OH249206   4.512   4.209   5.037  0.2886 -0.3720  0.3872
 9264TIP3    H149207   4.454   4.148   5.082 -1.2308  0.9138  0.2397
 9264TIP3    H249208   4.520   4.283   5.096  0.8402 -0.0259 -0.1081
 9265TIP3   OH249209   4.147   4.314   5.045 -0.0715 -0.2038  0.0891
 9265TIP3    H149210   4.167   4.294   4.954  0.2534  0.2700  0.0582
 9265TIP3    H249211   4.207   4.384   5.069 -0.7290  0.2641  0.4157
 9266TIP3   OH249212   1.643   0.894  12.475 -0.0306  0.1335 -0.0150
 9266TIP3    H149213   1.594   0.848  12.543  2.0982 -1.2330  0.6966
 9266TIP3    H249214   1.673   0.974  12.517 -0.5136  0.3386 -0.0495
 9267TIP3   OH249215   2.718   1.938  11.724 -0.4149  0.0962  0.0699
 9267TIP3    H149216   2.657   1.877  11.683 -0.5478 -1.1925  2.0765
 9267TIP3    H249217   2.715   1.917  11.817  1.1914  1.7268  0.5558
 9268TIP3   OH249218   1.935   4.973  15.462  0.1884  0.1441 -0.0272
 9268TIP3    H149219   1.905   5.064  15.451  0.7122  0.3479  0.2131
 9268TIP3    H249220   1.854   4.923  15.477 -0.4604  0.1079 -2.9305
 9269TIP3   OH249221   5.296   5.015  14.996 -0.4212  0.0967 -0.0743
 9269TIP3    H149222   5.332   5.026  15.084  1.0073  1.1703 -0.7574
 9269TIP3    H249223   5.277   4.922  14.990  0.5187 -0.1915  0.9878
 9270TIP3   OH249224   1.340   3.583  16.696 -0.4836 -0.1328  0.5898
 9270TIP3    H149225   1.322   3.621  16.610  2.1244  1.5726  0.6890
 9270TIP3    H249226   1.324   3.655  16.757 -0.0895 -0.6468  1.3065
 9271TIP3   OH249227   0.687   1.803  11.284  0.3606  0.5893 -0.3508
 9271TIP3    H149228   0.743   1.738  11.240 -0.0485  1.3595 -2.1250
 9271TIP3    H249229   0.698   1.883  11.231 -0.4901  1.4667  0.7547
 9272TIP3   OH249230   0.725   5.445  14.954  0.0051  0.5938 -0.4478
 9272TIP3    H149231   0.674   5.416  15.030  0.0506  0.5656 -0.4272
 9272TIP3    H249232   0.788   5.374  14.940 -0.2487  0.4268 -0.7473
 9273TIP3   OH249233   0.261   3.501  16.187  0.4462  0.3002  0.4869
 9273TIP3    H149234   0.238   3.424  16.134 -1.0358  0.8348  0.3115
 9273TIP3    H249235   0.231   3.479  16.275  1.3456  0.1152  0.7609
 9274TIP3   OH249236   1.940   5.831   5.330  0.7321 -0.4094  0.0200
 9274TIP3    H149237   1.908   5.779   5.404  0.4061 -0.2096  0.0222
 9274TIP3    H249238   1.861   5.850   5.279  0.5750  1.4409  0.8689
 9275TIP3   OH249239   6.568   5.155  13.701 -0.0395  0.1045 -0.3743
 9275TIP3    H149240   6.561   5.225  13.636  0.2400  1.4670  0.9755
 9275TIP3    H249241   6.658   5.122  13.692  0.1530  0.6166 -0.3909
 9276TIP3   OH249242   1.665   6.583   4.210 -0.2374 -0.9127  0.4149
 9276TIP3    H149243   1.751   6.564   4.248  1.1976  0.4223 -1.8688
 9276TIP3    H249244   1.650   6.675   4.232 -1.2232 -1.2050  0.9994
 9277TIP3   OH249245   4.856   5.479  13.081 -0.3550  0.0027 -0.2834
 9277TIP3    H149246   4.829   5.420  13.011 -0.9960  1.0964 -0.9912
 9277TIP3    H249247   4.883   5.421  13.152  0.0515 -1.1324 -1.3302
 9278TIP3   OH249248   4.317   6.243  13.377  0.2910 -0.6048  0.2216
 9278TIP3    H149249   4.262   6.208  13.307 -1.7586  2.1112  0.3104
 9278TIP3    H249250   4.346   6.166  13.426 -4.8705 -2.2691  1.2244
 9279TIP3   OH249251   5.405   1.291  14.135  0.2362  0.1513  0.2455
 9279TIP3    H149252   5.484   1.267  14.183  0.0638  2.2726  1.7262
 9279TIP3    H249253   5.338   1.231  14.170  0.8103 -0.5108  0.2336
 9280TIP3   OH249254   4.769   5.117  12.405 -0.1413  0.3591  0.6616
 9280TIP3    H149255   4.700   5.180  12.385 -0.2632  0.0082 -0.0600
 9280TIP3    H249256   4.735   5.067  12.479 -0.3086  0.7328  0.8378
 9281TIP3   OH249257   2.432   5.932   2.138  0.0131 -0.1279  0.4159
 9281TIP3    H149258   2.497   5.943   2.068 -1.3316 -0.8804 -1.0053
 9281TIP3    H249259   2.477   5.963   2.217  1.3906  1.2485 -0.8468
 9282TIP3   OH249260   1.714   6.308  15.215  0.3847  0.8220  0.3687
 9282TIP3    H149261   1.619   6.314  15.202  0.6471  1.6334 -1.4084
 9282TIP3    H249262   1.733   6.372  15.284 -0.4275  0.1640  1.2268
 9283TIP3   OH249263   2.957   3.078   0.774 -0.3610  0.4730 -0.2086
 9283TIP3    H149264   3.001   3.060   0.691  0.2616 -1.5192  0.4906
 9283TIP3    H249265   3.016   3.138   0.820  0.8648 -0.8785  0.0437
 9284TIP3   OH249266   5.413   4.558   1.573  0.0599 -0.2684  0.7155
 9284TIP3    H149267   5.381   4.610   1.499 -0.8960 -0.4302  0.9963
 9284TIP3    H249268   5.472   4.494   1.533 -1.7330 -1.4517 -0.1742
 9285TIP3   OH249269   1.549   3.951  12.392  0.5517 -0.0938 -0.1661
 9285TIP3    H149270   1.543   3.877  12.331 -1.5518 -0.2676  0.1745
 9285TIP3    H249271   1.480   4.011  12.364  0.1355  0.2456  1.4606
 9286TIP3   OH249272   3.374   1.634  13.476 -0.4708 -0.1731  0.2730
 9286TIP3    H149273   3.331   1.718  13.462 -0.6340 -0.1286  0.9707
 9286TIP3    H249274   3.309   1.582  13.524 -0.1583 -0.4873  0.3593
 9287TIP3   OH249275   1.378   1.903   1.936  0.0223  0.1087  0.4997
 9287TIP3    H149276   1.311   1.972   1.934 -0.6168 -0.5270 -0.3676
 9287TIP3    H249277   1.422   1.909   1.852  1.2196  0.6450  1.1334
 9288TIP3   OH249278   4.285   0.553  14.505  0.0811 -0.1341 -0.2232
 9288TIP3    H149279   4.225   0.622  14.535 -0.0035 -0.1257 -0.4079
 9288TIP3    H249280   4.284   0.561  14.410  2.4690  1.6583 -0.1845
 9289TIP3   OH249281   1.217   1.423  16.614  0.3554 -0.5369 -0.6176
 9289TIP3    H149282   1.229   1.437  16.708  0.0074 -1.0979 -0.4829
 9289TIP3    H249283   1.142   1.364  16.608  0.1118 -0.1787 -1.2696
 9290TIP3   OH249284   6.781   4.988  14.870 -0.0374  1.0194 -0.2089
 9290TIP3    H149285   6.748   4.913  14.820  0.5499  0.9065 -0.4318
 9290TIP3    H249286   6.773   5.062  14.809  1.5833  0.7129 -0.8418
 9291TIP3   OH249287   3.722   3.644   4.919  0.5998  0.4575 -0.4068
 9291TIP3    H149288   3.628   3.665   4.919  0.1423 -1.4634 -0.5330
 9291TIP3    H249289   3.737   3.599   5.001  1.4187  0.6901 -0.4191
 9292TIP3   OH249290   4.927   1.864  14.618 -0.1801  0.2854 -0.2439
 9292TIP3    H149291   4.921   1.837  14.526 -1.0799  1.6273 -0.6026
 9292TIP3    H249292   5.016   1.842  14.644  0.2467  0.3578 -1.5914
 9293TIP3   OH249293   5.758   5.295  13.872  0.2995 -0.0782 -0.3350
 9293TIP3    H149294   5.739   5.245  13.792  0.7010 -1.0868  0.1889
 9293TIP3    H249295   5.777   5.229  13.938  0.9438  0.7759  0.3570
 9294TIP3   OH249296   1.379   1.558  16.081  0.4757  0.2780  0.1363
 9294TIP3    H149297   1.297   1.597  16.052  1.0057  0.9281 -0.5450
 9294TIP3    H249298   1.380   1.571  16.176 -1.0774 -1.4710  0.4535
 9295TIP3   OH249299   4.257   3.333   4.965  0.2154 -0.4621  0.0147
 9295TIP3    H149300   4.178   3.324   5.019  0.1223  1.8776  0.3360
 9295TIP3    H249301   4.226   3.373   4.884  1.0890  0.7642  0.2583
 9296TIP3   OH249302   1.044   4.112   2.229 -0.4361 -0.4768 -0.6312
 9296TIP3    H149303   1.035   4.206   2.217 -0.8566 -0.3444  0.6122
 9296TIP3    H249304   0.987   4.074   2.163 -1.4756  0.1766 -0.1313
 9297TIP3   OH249305   6.113   5.549  11.919  0.2541 -0.5004  0.1723
 9297TIP3    H149306   6.058   5.581  11.848  1.2193 -2.3147 -1.4776
 9297TIP3    H249307   6.153   5.628  11.956  1.3550  0.4197 -2.6978
 9298TIP3   OH249308   6.615   0.578   5.937 -0.1218 -0.3854  0.2670
 9298TIP3    H149309   6.555   0.652   5.931  0.4659  0.1018  0.2169
 9298TIP3    H249310   6.598   0.526   5.859  0.4298  0.4612 -0.4346
 9299TIP3   OH249311   6.045   0.227   3.420 -0.2527  0.4565 -0.9153
 9299TIP3    H149312   5.956   0.245   3.393 -0.7854 -1.9531 -1.0133
 9299TIP3    H249313   6.092   0.206   3.339 -0.4001 -1.1749 -0.6159
 9300TIP3   OH249314   3.027   2.703   1.876 -0.3586 -0.1475 -0.2415
 9300TIP3    H149315   2.946   2.673   1.835 -1.4668  0.6567  1.2671
 9300TIP3    H249316   3.004   2.787   1.916  1.0310 -0.2217  0.7857
 9301TIP3   OH249317   5.249   6.074   0.332  0.1835  0.2647  0.1333
 9301TIP3    H149318   5.256   5.982   0.355  1.5903  0.6354  1.2928
 9301TIP3    H249319   5.338   6.100   0.306 -0.3191  1.1465 -0.8178
 9302TIP3   OH249320   6.157   6.051   2.646 -0.6892  0.1843  0.1946
 9302TIP3    H149321   6.167   5.958   2.627 -0.0004  0.3563 -0.3269
 9302TIP3    H249322   6.106   6.085   2.574 -1.2601  0.1465  0.5759
 9303TIP3   OH249323   5.796   1.791  16.725 -0.5533  0.2412 -0.1055
 9303TIP3    H149324   5.843   1.850  16.666  0.0429 -0.4726 -0.3657
 9303TIP3    H249325   5.845   1.795  16.807 -0.3997 -0.0332 -0.1828
 9304TIP3   OH249326   2.328   5.253  15.262  0.4125  0.0015  0.1017
 9304TIP3    H149327   2.347   5.159  15.260  1.2933  0.1864 -0.7021
 9304TIP3    H249328   2.411   5.295  15.243 -0.3742  0.8914 -1.6458
 9305TIP3   OH249329   0.621   1.111   2.220 -0.0723  0.0083  0.0975
 9305TIP3    H149330   0.666   1.121   2.137  0.4340 -2.6932 -0.0643
 9305TIP3    H249331   0.665   1.171   2.280  0.9753  0.4309 -1.0643
 9306TIP3   OH249332   6.306   2.695   0.746 -0.6781 -0.4978 -0.0361
 9306TIP3    H149333   6.366   2.699   0.820 -0.7690 -3.4439  0.3256
 9306TIP3    H249334   6.289   2.602   0.733 -0.7188 -0.1425 -3.7675
 9307TIP3   OH249335   3.769   1.845   0.038 -0.3535  0.1148  0.0265
 9307TIP3    H149336   3.842   1.900   0.066  0.2175 -1.7105  2.4269
 9307TIP3    H249337   3.701   1.860   0.104 -1.6013  0.5993 -1.3026
 9308TIP3   OH249338   4.840   6.400   5.446  0.4768  0.4483  0.2148
 9308TIP3    H149339   4.823   6.307   5.459  2.6394  0.1826  1.7069
 9308TIP3    H249340   4.934   6.405   5.429  0.3381  2.3278 -0.2331
 9309TIP3   OH249341   1.507   2.836   5.426 -0.4318  0.3446  0.9770
 9309TIP3    H149342   1.422   2.810   5.462  0.0887 -0.8941  1.3518
 9309TIP3    H249343   1.570   2.813   5.494  0.3832 -0.3577  0.0124
 9310TIP3   OH249344   3.049   6.152   3.350 -0.5184  0.0653  0.6042
 9310TIP3    H149345   3.074   6.089   3.282 -0.4594 -0.1458  0.8178
 9310TIP3    H249346   3.017   6.097   3.422  0.5374  0.2168  1.2122
 9311TIP3   OH249347   1.814   3.849   1.826 -0.0573  0.4722 -0.7940
 9311TIP3    H149348   1.864   3.796   1.764 -1.9325 -0.8196 -1.2957
 9311TIP3    H249349   1.755   3.787   1.869 -0.5312  1.7610  0.4937
 9312TIP3   OH249350   2.898   0.427   5.124 -0.2739  0.3067  0.4361
 9312TIP3    H149351   2.853   0.482   5.188 -0.3803  0.2987  0.3697
 9312TIP3    H249352   2.989   0.426   5.152 -0.4899 -0.5280  1.1785
 9313TIP3   OH249353   5.725   2.321   5.844  0.1739  0.0344 -0.0518
 9313TIP3    H149354   5.677   2.280   5.773 -1.4020 -1.5481  1.8077
 9313TIP3    H249355   5.787   2.254   5.874  0.2789  0.3914  0.5593
 9314TIP3   OH249356   0.092   5.850  11.678  0.7569 -0.4827 -0.8677
 9314TIP3    H149357   0.038   5.770  11.680  1.5437 -1.0150  0.8269
 9314TIP3    H249358   0.035   5.918  11.714  0.7278 -0.7361 -0.4181
 9315TIP3   OH249359   1.769   5.216  15.485  0.5019  0.1689 -0.0023
 9315TIP3    H149360   1.685   5.171  15.473  0.5027  0.2245 -0.2234
 9315TIP3    H249361   1.750   5.283  15.551 -0.4377  2.1967 -2.1783
 9316TIP3   OH249362   4.114   0.391   2.621 -0.5322 -0.0123  0.2967
 9316TIP3    H149363   4.157   0.392   2.707  0.9371 -1.2674 -0.3622
 9316TIP3    H249364   4.087   0.300   2.609 -0.3406  0.0590 -0.7351
 9317TIP3   OH249365   4.259   3.335   0.255 -0.3865 -0.1011  0.5863
 9317TIP3    H149366   4.353   3.351   0.251 -0.7772  2.4205 -0.5382
 9317TIP3    H249367   4.227   3.395   0.323 -1.4102  0.8205 -0.6408
 9318TIP3   OH249368   6.710   4.057  14.652  0.2153 -0.2781 -0.1541
 9318TIP3    H149369   6.707   3.969  14.690  1.7156 -0.7156 -0.9466
 9318TIP3    H249370   6.630   4.099  14.682 -0.0151 -1.5473  1.1381
 9319TIP3   OH249371   0.305   1.902  11.150  0.5240  0.0472  0.0041
 9319TIP3    H149372   0.218   1.941  11.153  1.4940  2.3047  1.2472
 9319TIP3    H249373   0.350   1.947  11.079  1.1137 -0.1424  0.2511
 9320TIP3   OH249374   5.145   2.779   2.819  0.3642  0.1481 -0.4156
 9320TIP3    H149375   5.206   2.782   2.745  0.0096 -0.4258 -0.7435
 9320TIP3    H249376   5.116   2.687   2.821 -0.3983  0.3920 -0.1936
 9321TIP3   OH249377   3.453   3.638   6.251 -0.4733 -0.3354 -0.4911
 9321TIP3    H149378   3.402   3.575   6.200 -0.5599  0.2773 -1.1765
 9321TIP3    H249379   3.530   3.588   6.280 -1.0824 -1.0521 -0.0890
 9322TIP3   OH249380   1.958   3.507   0.721 -0.4186  1.1111  0.1408
 9322TIP3    H149381   1.864   3.526   0.725 -0.7985 -0.1019 -1.8217
 9322TIP3    H249382   1.999   3.593   0.715 -1.4472  1.6333  0.2938
 9323TIP3   OH249383   1.238   0.856  15.777 -0.1441  0.0932 -0.1259
 9323TIP3    H149384   1.202   0.829  15.693 -0.8929  1.4628 -0.2847
 9323TIP3    H249385   1.265   0.775  15.820  0.0247 -0.6453 -1.5796
 9324TIP3   OH249386   2.815   3.556   0.406 -0.1051  0.3031  0.6821
 9324TIP3    H149387   2.777   3.591   0.324 -0.0290 -2.5259 -0.6715
 9324TIP3    H249388   2.749   3.495   0.438  1.3196 -1.2641  0.7738
 9325TIP3   OH249389   4.611   6.673  13.283  0.9177 -0.0420  0.3100
 9325TIP3    H149390   4.606   6.747  13.221 -0.6480  0.0664  0.5231
 9325TIP3    H249391   4.533   6.621  13.264  1.6487 -1.2987  0.6314
 9326TIP3   OH249392   6.677   1.379   1.956 -0.2243  0.4757  0.3866
 9326TIP3    H149393   6.657   1.374   2.050 -1.2342 -0.5641  0.1387
 9326TIP3    H249394   6.657   1.292   1.923 -1.7252  1.3427 -1.1388
 9327TIP3   OH249395   3.250   3.807  16.099  1.0126 -0.1443 -0.6259
 9327TIP3    H149396   3.247   3.865  16.175  0.9933 -0.5722 -0.2939
 9327TIP3    H249397   3.331   3.757  16.110 -0.4865 -2.4013  0.7792
 9328TIP3   OH249398   6.662   4.940  11.699  0.1908 -0.5809  0.1895
 9328TIP3    H149399   6.603   4.975  11.764 -0.4917 -0.9283 -0.2263
 9328TIP3    H249400   6.721   5.012  11.678  0.1825 -0.3595  0.9144
 9329TIP3   OH249401   6.068   2.829  14.367 -0.3511 -0.3709 -0.0196
 9329TIP3    H149402   6.128   2.800  14.436 -0.9084  0.4907  0.8631
 9329TIP3    H249403   5.989   2.856  14.414 -0.1589  1.7965 -0.8093
 9330TIP3   OH249404   5.596   4.328  12.158 -0.2235 -0.4322 -0.1274
 9330TIP3    H149405   5.537   4.316  12.083 -0.0874  1.0618 -0.4963
 9330TIP3    H249406   5.541   4.368  12.225  0.2562  0.5641 -0.3192
 9331TIP3   OH249407   4.537   5.919  11.603  0.1331 -0.0497 -0.5114
 9331TIP3    H149408   4.614   5.961  11.639  1.2637 -0.7312 -2.0171
 9331TIP3    H249409   4.516   5.848  11.664  1.1600 -0.3242 -0.4667
 9332TIP3   OH249410   5.955   0.946   4.982  0.0224  0.5258 -0.3088
 9332TIP3    H149411   5.930   0.973   5.070  2.6537 -1.4018  1.1444
 9332TIP3    H249412   6.040   0.989   4.967  0.6138 -0.8460 -1.0289
 9333TIP3   OH249413   2.230   1.603  15.419 -0.0093  0.1823  0.2665
 9333TIP3    H149414   2.233   1.698  15.416  0.6863  0.1708  0.4230
 9333TIP3    H249415   2.321   1.576  15.409 -0.2871 -0.4928 -0.6361
 9334TIP3   OH249416   0.650   1.169  16.957  0.2624 -0.2656 -0.7278
 9334TIP3    H149417   0.665   1.260  16.933 -0.1349  0.9019  2.8070
 9334TIP3    H249418   0.563   1.148  16.924 -1.8430  2.4428  2.4881
 9335TIP3   OH249419   1.593   2.634  14.633  0.0523 -0.3307  0.3709
 9335TIP3    H149420   1.541   2.557  14.610  2.0484 -1.7802  0.4673
 9335TIP3    H249421   1.629   2.665  14.550 -1.8351  1.4316  0.1204
 9336TIP3   OH249422   1.923   6.250   4.584 -0.2197  0.4722  0.3685
 9336TIP3    H149423   1.914   6.211   4.497  1.5961  1.1753 -0.1778
 9336TIP3    H249424   1.844   6.223   4.631  0.3301 -2.8376 -0.3585
 9337TIP3   OH249425   0.452   4.161   5.516  0.2388 -0.6714 -0.0813
 9337TIP3    H149426   0.462   4.236   5.457 -0.3141  0.9000  1.7288
 9337TIP3    H249427   0.359   4.137   5.509  0.2039 -0.5731  0.0396
 9338TIP3   OH249428   4.434   0.065  13.437  0.2936  0.3361 -0.1532
 9338TIP3    H149429   4.480   0.149  13.437  2.6569 -0.8270  1.8919
 9338TIP3    H249430   4.501   0.000  13.459 -1.1927 -2.3019 -2.5866
 9339TIP3   OH249431   4.263   2.230   0.909  0.3063  0.3807  0.1000
 9339TIP3    H149432   4.234   2.140   0.892  0.1843  0.3480  0.4705
 9339TIP3    H249433   4.357   2.222   0.924  0.7198  0.6015 -1.9901
 9340TIP3   OH249434   3.717   6.110   4.102 -0.0224  0.0095  0.4621
 9340TIP3    H149435   3.756   6.128   4.016 -1.7724  0.4711 -0.2739
 9340TIP3    H249436   3.780   6.147   4.164  0.9250  0.3419 -0.6487
 9341TIP3   OH249437   5.437   4.420   4.176  0.1776 -0.0021  0.1357
 9341TIP3    H149438   5.380   4.447   4.104 -0.1054 -0.9624 -0.0208
 9341TIP3    H249439   5.424   4.325   4.182  1.7360 -0.2472  0.1221
 9342TIP3   OH249440   1.906   5.842  14.850  0.1894  0.3915  0.1130
 9342TIP3    H149441   1.885   5.925  14.893 -1.6188 -0.7135  1.5619
 9342TIP3    H249442   1.820   5.805  14.827  0.8732 -1.5412  0.4719
 9343TIP3   OH249443   5.544   1.794   3.538 -0.3990 -0.1482  0.4488
 9343TIP3    H149444   5.462   1.761   3.503 -1.0844  1.7208  0.1634
 9343TIP3    H249445   5.612   1.743   3.493 -1.3232  0.3023 -1.5755
 9344TIP3   OH249446   4.674   1.875  13.557  0.4688 -0.3826 -0.3192
 9344TIP3    H149447   4.706   1.785  13.547  1.6978  0.1149 -1.1237
 9344TIP3    H249448   4.747   1.922  13.597 -0.0297  0.3421 -0.2417
 9345TIP3   OH249449   4.973   2.474   3.188 -0.0249  0.2430  0.0451
 9345TIP3    H149450   5.066   2.456   3.195 -0.0241  0.6019  0.9477
 9345TIP3    H249451   4.949   2.517   3.270 -0.4593  2.5197 -1.1879
 9346TIP3   OH249452   3.667   5.288  12.985  0.5883  0.2434  0.5726
 9346TIP3    H149453   3.604   5.359  12.977 -0.8925 -0.7361  2.6204
 9346TIP3    H249454   3.640   5.241  13.064  2.0923 -2.0089 -0.1560
 9347TIP3   OH249455   1.883   2.673   2.622 -0.2526  0.1164 -0.3131
 9347TIP3    H149456   1.853   2.663   2.713 -1.3449 -0.4227 -0.7154
 9347TIP3    H249457   1.944   2.599   2.610 -1.0963 -0.5796 -0.4020
 9348TIP3   OH249458   5.459   2.284   1.774 -0.1508 -0.0509 -0.7149
 9348TIP3    H149459   5.480   2.339   1.698 -1.1591  0.0935 -0.8962
 9348TIP3    H249460   5.372   2.312   1.801 -1.5339 -2.7524 -1.9382
 9349TIP3   OH249461   6.074   6.094  16.292 -0.2441 -0.0995  0.0416
 9349TIP3    H149462   6.085   6.174  16.343 -1.5052  0.9908 -1.3082
 9349TIP3    H249463   6.001   6.048  16.335 -0.2492  0.0262  0.1688
 9350TIP3   OH249464   6.508   5.469   5.215  0.2630  0.1925 -0.3747
 9350TIP3    H149465   6.601   5.480   5.196  0.2613 -0.0433 -0.5256
 9350TIP3    H249466   6.497   5.376   5.232  0.2796  0.4109  0.9047
 9351TIP3   OH249467   6.083   0.985  17.143  0.1872 -0.3801 -0.2092
 9351TIP3    H149468   6.121   1.059  17.190 -0.8249  0.0146  0.0255
 9351TIP3    H249469   6.125   0.986  17.058  0.9336 -0.1692  0.1567
 9352TIP3   OH249470   2.023   4.961   4.412  0.5139 -0.4506  0.3556
 9352TIP3    H149471   2.052   4.981   4.323  2.1507  1.8743  1.2934
 9352TIP3    H249472   1.928   4.965   4.409  0.5102 -1.2255 -1.4303
 9353TIP3   OH249473   3.188   4.530  12.829  0.2564 -0.8012 -0.3961
 9353TIP3    H149474   3.198   4.624  12.815 -3.4412 -0.1992 -0.1249
 9353TIP3    H249475   3.193   4.519  12.924  0.4120 -0.8472 -0.4093
 9354TIP3   OH249476   3.976   4.476   5.718  0.4370 -0.0386  0.6290
 9354TIP3    H149477   3.978   4.555   5.664 -1.4590  0.6261  1.4126
 9354TIP3    H249478   4.016   4.503   5.801  0.8679 -0.2443  0.4860
 9355TIP3   OH249479   2.202   0.865   4.703  0.1944  0.4740 -1.0590
 9355TIP3    H149480   2.272   0.922   4.671  1.6762 -1.2712 -1.0964
 9355TIP3    H249481   2.144   0.854   4.629  0.7534  0.6842 -1.5357
 9356TIP3   OH249482   4.505   0.316   1.902 -0.1158  0.8976  0.1915
 9356TIP3    H149483   4.532   0.241   1.849 -1.9618  1.0444 -1.0425
 9356TIP3    H249484   4.497   0.389   1.840 -2.3818  1.0604  0.5645
 9357TIP3   OH249485   0.280   1.487  15.453  0.4341 -0.0472 -0.0747
 9357TIP3    H149486   0.273   1.565  15.398 -1.1461 -1.5968 -2.2810
 9357TIP3    H249487   0.232   1.509  15.533 -0.1948  1.1723 -0.7667
 9358TIP3   OH249488   4.250   0.346   3.925  0.6520 -1.0739  0.1197
 9358TIP3    H149489   4.268   0.252   3.918  2.0615 -0.8055 -0.1828
 9358TIP3    H249490   4.266   0.380   3.838  0.3170 -0.5174  0.2712
 9359TIP3   OH249491   0.828   5.604  12.405  0.4195 -0.7936  0.4306
 9359TIP3    H149492   0.834   5.593  12.500  1.2401  1.9953  0.7978
 9359TIP3    H249493   0.897   5.549  12.370  3.1886  1.4897  1.8836
 9360TIP3   OH249494   6.739   3.779   1.660 -0.2845 -0.4712 -0.3021
 9360TIP3    H149495   6.689   3.717   1.606 -0.1969 -0.7681 -0.0430
 9360TIP3    H249496   6.718   3.755   1.750 -0.7354  0.2719 -0.1985
 9361TIP3   OH249497   5.797   1.629  10.626 -0.3509  0.3081 -0.2578
 9361TIP3    H149498   5.702   1.616  10.627 -0.2903 -0.1575  0.0245
 9361TIP3    H249499   5.831   1.555  10.676  0.2462 -0.2152 -1.4088
 9362TIP3   OH249500   1.753   0.432  12.731  0.2078 -0.3876  0.1616
 9362TIP3    H149501   1.691   0.505  12.730 -2.7552 -2.6762  1.4817
 9362TIP3    H249502   1.787   0.428  12.641  0.2449  2.3445 -0.0283
 9363TIP3   OH249503   3.359   3.065  14.843 -0.0264 -0.6734  0.5333
 9363TIP3    H149504   3.350   2.990  14.900  0.8372 -1.3315 -0.1622
 9363TIP3    H249505   3.315   3.039  14.762  0.2335 -0.4224  0.3080
 9364TIP3   OH249506   2.081   4.258  15.872  0.6604 -0.3922  0.0432
 9364TIP3    H149507   2.098   4.174  15.830  0.1590 -0.1213 -0.7310
 9364TIP3    H249508   2.125   4.323  15.817  0.0823 -0.0404 -0.0197
 9365TIP3   OH249509   0.825   2.600  11.785 -0.2386 -0.0902 -0.5240
 9365TIP3    H149510   0.797   2.621  11.874  2.4808  2.6439 -0.1395
 9365TIP3    H249511   0.910   2.556  11.796  0.5817  1.0977 -1.7023
 9366TIP3   OH249512   0.244   4.905  16.309 -0.2245  0.2967 -0.1389
 9366TIP3    H149513   0.227   4.811  16.299 -0.9355  0.0034  2.7849
 9366TIP3    H249514   0.162   4.947  16.281 -0.8446 -0.1661  0.9139
 9367TIP3   OH249515   0.452   2.530   3.678 -0.4626 -0.2099  0.2446
 9367TIP3    H149516   0.426   2.500   3.591 -1.6228 -0.9652  0.8172
 9367TIP3    H249517   0.546   2.516   3.682 -0.0025  1.8184 -1.6209
 9368TIP3   OH249518   1.524   0.080  11.059  0.1950  0.4167  0.4072
 9368TIP3    H149519   1.607   0.092  11.013  0.2302  0.6535  0.5297
 9368TIP3    H249520   1.457   0.098  10.992  0.2374 -0.2025  0.1959
 9369TIP3   OH249521   0.465   5.372  15.045  0.3455  0.0277 -0.3683
 9369TIP3    H149522   0.443   5.316  15.119  1.2459  1.2287  0.8567
 9369TIP3    H249523   0.393   5.435  15.039  1.4256  1.4941  1.1365
 9370TIP3   OH249524   4.855   1.291  12.604  0.1093 -0.1062  0.2371
 9370TIP3    H149525   4.806   1.365  12.639 -0.0546 -0.3879  0.6166
 9370TIP3    H249526   4.791   1.244  12.549  0.3362  0.2764 -0.3616
 9371TIP3   OH249527   2.232   2.291  14.721  0.3014  0.3118 -0.4457
 9371TIP3    H149528   2.215   2.363  14.660 -0.8995  0.4745  0.0660
 9371TIP3    H249529   2.325   2.273  14.710  0.0787  0.1587 -2.5399
 9372TIP3   OH249530   3.399   3.980   4.640  0.0902  0.4547 -0.1873
 9372TIP3    H149531   3.342   4.054   4.661 -0.7299 -0.8952  2.9675
 9372TIP3    H249532   3.341   3.915   4.601 -0.5126 -0.5740  2.2113
 9373TIP3   OH249533   6.044   2.323  16.592  0.1322 -0.8288  0.1846
 9373TIP3    H149534   6.040   2.372  16.510 -2.8485  2.4471  2.0310
 9373TIP3    H249535   6.120   2.358  16.637  1.0631 -1.7587 -0.6231
 9374TIP3   OH249536   6.358   3.413   4.796 -0.1410 -0.1800 -0.5028
 9374TIP3    H149537   6.420   3.482   4.771  0.1799 -0.7575 -1.3342
 9374TIP3    H249538   6.274   3.443   4.762 -0.5006  0.9764  1.2913
 9375TIP3   OH249539   2.096   4.779  15.212  0.1094  0.6035  0.3862
 9375TIP3    H149540   2.112   4.814  15.125  2.7681 -2.2233 -0.4060
 9375TIP3    H249541   2.028   4.713  15.200  1.3376 -0.6533  0.1666
 9376TIP3   OH249542   3.302   4.467   3.069  0.1742  0.0998 -0.7280
 9376TIP3    H149543   3.283   4.452   2.976 -0.1765  1.8395 -0.9638
 9376TIP3    H249544   3.319   4.379   3.104 -1.5295 -0.8023 -2.0131
 9377TIP3   OH249545   3.665   2.402  15.020 -0.3762  0.1921 -0.4109
 9377TIP3    H149546   3.572   2.418  15.039 -0.7539  1.1471 -2.7428
 9377TIP3    H249547   3.710   2.424  15.101 -2.1171  0.3529  0.5634
 9378TIP3   OH249548   1.062   6.264  13.934  0.0359 -0.6207 -0.2566
 9378TIP3    H149549   1.077   6.187  13.879 -0.8898 -0.9967 -0.0029
 9378TIP3    H249550   1.150   6.300  13.948  0.5066 -1.6876 -0.3036
 9379TIP3   OH249551   0.848   1.803  12.067  0.7920  0.1029 -0.3143
 9379TIP3    H149552   0.856   1.790  11.973  2.3892  0.8420 -0.3146
 9379TIP3    H249553   0.906   1.738  12.106  0.6494  0.2335  0.1210
 9380TIP3   OH249554   0.098   2.806   5.749 -0.3987 -0.4605 -0.6054
 9380TIP3    H149555   0.121   2.809   5.842 -2.4881  0.0962 -0.0410
 9380TIP3    H249556   0.057   2.891   5.732  1.5914  0.2154 -2.5613
 9381TIP3   OH249557   5.185   0.536   1.818  0.2947 -0.6666  0.6514
 9381TIP3    H149558   5.149   0.562   1.733  0.0554  0.5519  1.0978
 9381TIP3    H249559   5.209   0.444   1.807 -0.6916 -0.8257 -0.4123
 9382TIP3   OH249560   2.853   3.562  12.764  0.5804  0.1120  0.8576
 9382TIP3    H149561   2.820   3.533  12.679 -0.2762 -0.9182  1.5076
 9382TIP3    H249562   2.774   3.576  12.817  1.0955  0.8557  1.4551
 9383TIP3   OH249563   3.293   1.685  16.274  0.0788  0.1072  0.3522
 9383TIP3    H149564   3.316   1.713  16.185  0.0943 -0.5196  0.1537
 9383TIP3    H249565   3.207   1.722  16.290  0.0414  0.1531  0.0443
 9384TIP3   OH249566   0.127   1.800   6.315  0.1013  0.2907  0.1412
 9384TIP3    H149567   0.195   1.801   6.382 -0.7686  3.2892  1.1373
 9384TIP3    H249568   0.173   1.818   6.233  0.7242  0.4384  0.5206
 9385TIP3   OH249569   0.064   3.343   2.888  0.2097  0.2807  0.0741
 9385TIP3    H149570   0.125   3.283   2.845 -0.3560  1.4252 -2.5043
 9385TIP3    H249571  -0.009   3.288   2.917  1.5866 -0.8362  1.6517
 9386TIP3   OH249572   2.438   2.802  11.153  0.6891 -0.2417  0.2889
 9386TIP3    H149573   2.440   2.715  11.115  1.3731  0.1172 -0.5444
 9386TIP3    H249574   2.519   2.808  11.203  0.1498 -0.4420  1.2053
 9387TIP3   OH249575   1.215   6.028   3.105  0.0513 -0.0811  0.2744
 9387TIP3    H149576   1.203   6.113   3.063  0.1873  0.7089  1.7678
 9387TIP3    H249577   1.294   5.992   3.065  0.6487  1.0172  0.4225
 9388TIP3   OH249578   1.356   5.692   4.661 -0.3178 -0.3289 -0.3918
 9388TIP3    H149579   1.328   5.773   4.619 -0.9244 -0.7342 -0.7757
 9388TIP3    H249580   1.451   5.701   4.670 -0.6530  1.7404  2.3149
 9389TIP3   OH249581   4.273   5.509  11.151 -0.1770 -0.1631  0.4884
 9389TIP3    H149582   4.236   5.445  11.090  1.1808 -1.0946  0.6013
 9389TIP3    H249583   4.284   5.460  11.233  0.2727  0.3949  0.7728
 9390TIP3   OH249584   1.462   2.155  16.383  0.0345 -0.1499  0.2272
 9390TIP3    H149585   1.527   2.095  16.348  0.9689  1.1062 -0.2645
 9390TIP3    H249586   1.497   2.181  16.468 -0.1259  0.0758  0.2260
 9391TIP3   OH249587   1.546   3.090  13.860 -0.0844 -0.5986 -0.3698
 9391TIP3    H149588   1.572   3.000  13.880  0.3479 -0.3186  0.3828
 9391TIP3    H249589   1.592   3.143  13.925  1.2946  0.3740 -2.0505
 9392TIP3   OH249590   5.110   1.947  12.756  0.2456  0.5242  0.8516
 9392TIP3    H149591   5.118   1.903  12.671 -0.5285  0.2714  0.8980
 9392TIP3    H249592   5.122   2.040  12.736 -0.5633  0.5356  0.3493
 9393TIP3   OH249593   2.234   3.402  10.743  0.2983  0.2044  0.4152
 9393TIP3    H149594   2.155   3.452  10.760  0.9109  0.9684  1.1104
 9393TIP3    H249595   2.227   3.376  10.652  0.0542  1.7425 -0.0285
 9394TIP3   OH249596   1.944   3.815  15.062 -0.5451 -0.1880 -0.5162
 9394TIP3    H149597   1.952   3.724  15.032  1.1065  0.0601 -0.9292
 9394TIP3    H249598   1.929   3.808  15.156 -0.9809 -0.8857 -0.6244
 9395TIP3   OH249599   1.486   0.009  14.711  0.2242  0.3348 -0.5426
 9395TIP3    H149600   1.579  -0.016  14.713 -0.1722 -1.2092 -0.6195
 9395TIP3    H249601   1.472   0.043  14.623  0.7640  0.8114 -0.4534
 9396TIP3   OH249602   1.749   3.490   2.081  0.5506 -0.4951 -0.1087
 9396TIP3    H149603   1.845   3.494   2.088  0.6691  0.5926 -1.6961
 9396TIP3    H249604   1.733   3.473   1.988 -0.8021 -2.0568  0.3853
 9397TIP3   OH249605   0.884   3.143  12.376  0.1944  0.3375 -0.3569
 9397TIP3    H149606   0.869   3.207  12.445 -0.8074  0.5667 -0.7646
 9397TIP3    H249607   0.915   3.065  12.421 -2.7810 -0.3836  0.7128
 9398TIP3   OH249608   4.053   5.385   3.290  0.0222 -0.0198 -0.4866
 9398TIP3    H149609   4.101   5.468   3.282 -0.8592  0.6314  0.6374
 9398TIP3    H249610   4.101   5.324   3.234  0.0872  1.5132 -2.2041
 9399TIP3   OH249611   1.938   2.928  16.060 -0.3989 -0.0919  0.2288
 9399TIP3    H149612   1.950   3.021  16.079  0.0933  0.0534 -0.7108
 9399TIP3    H249613   1.910   2.925  15.969  0.8686 -0.9275 -0.1621
 9400TIP3   OH249614   0.839   5.316  12.822 -0.1432 -0.2107  0.2629
 9400TIP3    H149615   0.800   5.339  12.906  1.9965  0.4654  1.1444
 9400TIP3    H249616   0.851   5.400  12.777 -0.0096 -0.4264 -0.1113
 9401TIP3   OH249617   2.265   0.982  16.736 -0.2433 -0.0808 -0.6166
 9401TIP3    H149618   2.211   0.903  16.736  2.2092 -1.9430  1.2379
 9401TIP3    H249619   2.298   0.988  16.826  0.7338  2.3152 -1.0606
 9402TIP3   OH249620   5.361   3.307  15.350  0.5268  0.4969 -0.6841
 9402TIP3    H149621   5.342   3.333  15.259  3.7542  0.3125 -1.5427
 9402TIP3    H249622   5.298   3.356  15.402 -0.2495  2.0730 -2.9151
 9403TIP3   OH249623   4.421   5.156  13.540  0.1473 -0.2456 -0.5171
 9403TIP3    H149624   4.410   5.118  13.453 -1.4997 -1.8857  0.3439
 9403TIP3    H249625   4.336   5.145  13.583  1.2007 -0.4762  1.6834
 9404TIP3   OH249626   4.248   4.216  13.953 -0.2069  0.1471  0.5540
 9404TIP3    H149627   4.330   4.261  13.971  0.0193  0.1137 -0.3423
 9404TIP3    H249628   4.259   4.130  13.994  0.6838 -0.2843 -0.5452
 9405TIP3   OH249629   4.030   0.849  14.434  0.2080  0.4135  0.1860
 9405TIP3    H149630   4.081   0.838  14.353 -0.2676  1.7704 -0.3358
 9405TIP3    H249631   3.979   0.929  14.419 -2.0082 -0.8083  0.7248
 9406TIP3   OH249632   3.807   0.770   0.191  0.4717  0.1797  0.0753
 9406TIP3    H149633   3.874   0.720   0.144 -0.0914  1.3632 -2.0769
 9406TIP3    H249634   3.794   0.720   0.272  2.0050 -1.5433 -0.6461
 9407TIP3   OH249635   0.785   1.864  15.992 -0.8383 -0.3863  0.8411
 9407TIP3    H149636   0.709   1.919  16.014 -3.1028 -2.1791 -1.7460
 9407TIP3    H249637   0.833   1.914  15.926 -0.5428  0.1818  1.4815
 9408TIP3   OH249638   0.451   5.537  12.067 -0.1244  0.3710  0.2083
 9408TIP3    H149639   0.465   5.493  12.151  0.0011  1.3522  0.7067
 9408TIP3    H249640   0.360   5.565  12.069 -0.5033 -0.7476 -0.5424
 9409TIP3   OH249641   2.347   4.672   3.682  0.4806 -1.2047 -0.5799
 9409TIP3    H149642   2.384   4.623   3.755  3.4746 -0.7164 -1.6375
 9409TIP3    H249643   2.392   4.756   3.684 -1.6286  0.0252 -1.2101
 9410TIP3   OH249644   2.141   0.196   0.628  0.6448 -0.1254 -0.0775
 9410TIP3    H149645   2.080   0.270   0.634 -0.8754 -1.1699 -1.5472
 9410TIP3    H249646   2.189   0.197   0.710  0.8768  2.6547 -0.1806
 9411TIP3   OH249647   4.458   2.914   2.666  0.3440  0.5087  0.0126
 9411TIP3    H149648   4.512   2.991   2.683  2.5202 -0.7586 -0.8723
 9411TIP3    H249649   4.446   2.874   2.752 -1.6667  2.2801  0.6547
 9412TIP3   OH249650   3.423   6.567   0.706 -0.2606  0.5492 -0.2843
 9412TIP3    H149651   3.452   6.653   0.736 -1.3685  0.0313  2.6164
 9412TIP3    H249652   3.346   6.548   0.760 -0.5332 -1.9302 -1.4217
 9413TIP3   OH249653   0.131   0.322   5.524 -0.5192 -0.4167  0.2581
 9413TIP3    H149654   0.053   0.366   5.558  0.1480  1.0658 -0.0559
 9413TIP3    H249655   0.115   0.313   5.430  0.5917  2.0141 -0.2441
 9414TIP3   OH249656   0.566   2.573   5.382 -0.5547  0.1432 -0.3105
 9414TIP3    H149657   0.537   2.496   5.333 -3.9086  1.4062 -0.6321
 9414TIP3    H249658   0.592   2.635   5.314 -1.1830  0.4484 -0.2812
 9415TIP3   OH249659   4.312   3.233  12.650 -0.1284  0.3643  0.0546
 9415TIP3    H149660   4.237   3.247  12.708 -0.3689  0.4882 -0.2809
 9415TIP3    H249661   4.383   3.206  12.708 -0.6876 -0.6953  0.2788
 9416TIP3   OH249662   2.357   0.151   4.253  0.3300  0.7829  0.1246
 9416TIP3    H149663   2.349   0.101   4.334  0.7479 -0.5443 -0.6209
 9416TIP3    H249664   2.281   0.125   4.201  0.4861  1.0114 -0.2214
 9417TIP3   OH249665   0.009   5.804   0.924  0.7270  0.6972  0.6495
 9417TIP3    H149666  -0.079   5.840   0.938  0.3237  0.0776 -0.1893
 9417TIP3    H249667   0.013   5.787   0.830  1.6872  0.5560  0.7112
 9418TIP3   OH249668   5.151   3.986  12.288 -0.5742 -0.3289 -0.2196
 9418TIP3    H149669   5.181   3.970  12.377 -1.8981 -0.2886  0.2560
 9418TIP3    H249670   5.200   4.063  12.259 -0.1406 -0.3396  0.4651
 9419TIP3   OH249671   5.603   1.479  15.462  0.4454  0.2295  0.5684
 9419TIP3    H149672   5.614   1.531  15.382  0.1606 -2.4787 -1.3553
 9419TIP3    H249673   5.508   1.480  15.477  0.3156 -0.5831 -0.1187
 9420TIP3   OH249674   6.684   6.646  14.690 -1.2010 -0.2818 -0.4569
 9420TIP3    H149675   6.696   6.654  14.785 -0.6537 -0.0057 -0.5431
 9420TIP3    H249676   6.773   6.639  14.656 -1.4118 -0.6521 -0.9294
 9421TIP3   OH249677   1.708   2.902  15.209 -0.5211  0.2529 -0.5778
 9421TIP3    H149678   1.720   2.915  15.115  0.6620  0.8761 -0.3575
 9421TIP3    H249679   1.792   2.868  15.240 -1.2858 -1.1386  0.0685
 9422TIP3   OH249680   0.305   0.029   4.868 -0.2675 -0.2434 -0.3374
 9422TIP3    H149681   0.322   0.123   4.874 -1.9583  0.0322  0.9647
 9422TIP3    H249682   0.392  -0.011   4.861  0.6063  1.2957  1.1239
 9423TIP3   OH249683   3.098   3.699  17.044  0.1001  0.2448 -0.1546
 9423TIP3    H149684   3.118   3.791  17.060 -0.8623  0.2836  0.8980
 9423TIP3    H249685   3.164   3.672  16.980 -0.5012  2.0561 -1.6562
 9424TIP3   OH249686   6.153   2.125  11.671  0.1200  0.1759 -0.1309
 9424TIP3    H149687   6.225   2.128  11.733 -1.3562  0.6144  1.6340
 9424TIP3    H249688   6.137   2.216  11.648 -0.6074  0.1720  0.3609
 9425TIP3   OH249689   3.831   4.451   0.664 -0.6976  0.0802 -0.0342
 9425TIP3    H149690   3.848   4.466   0.571  1.4865 -1.0856  0.1167
 9425TIP3    H249691   3.839   4.356   0.675 -1.6243  0.1213  1.2397
 9426TIP3   OH249692   2.437   4.086  13.581 -0.5310 -0.3604 -0.2051
 9426TIP3    H149693   2.350   4.121  13.563 -0.8077 -0.6079  0.5805
 9426TIP3    H249694   2.462   4.041  13.501 -0.4655  1.0064 -0.9838
 9427TIP3   OH249695   3.878   6.280  16.911  0.6576 -0.0768  0.0643
 9427TIP3    H149696   3.956   6.288  16.855  0.5406  1.8087  0.1187
 9427TIP3    H249697   3.805   6.297  16.852  0.3274 -0.8892  0.2250
 9428TIP3   OH249698   0.228   3.098   4.260  0.1308  0.2045  0.1814
 9428TIP3    H149699   0.234   3.089   4.165  0.1071  0.6486  0.1348
 9428TIP3    H249700   0.223   3.008   4.293 -2.9185  0.0189 -0.4278
 9429TIP3   OH249701   3.205   3.301  11.617 -0.5656  0.2331  0.1885
 9429TIP3    H149702   3.163   3.257  11.543  1.1113 -1.1721  0.0182
 9429TIP3    H249703   3.227   3.388  11.585 -0.3124 -0.1901 -0.8127
 9430TIP3   OH249704   3.239   2.003   4.861 -0.4253  0.0185  0.2853
 9430TIP3    H149705   3.148   2.013   4.889 -1.0963 -3.8999  0.1318
 9430TIP3    H249706   3.242   2.044   4.775 -2.1046  0.2015  0.2693
 9431TIP3   OH249707   1.707   5.974  13.485  0.0594  0.3383 -0.0652
 9431TIP3    H149708   1.758   5.933  13.416 -0.0172  1.0937 -0.5916
 9431TIP3    H249709   1.627   6.003  13.442 -0.8599 -0.8754  0.7578
 9432TIP3   OH249710   2.754   4.024   5.260  0.7092  0.4618  0.2540
 9432TIP3    H149711   2.726   4.097   5.204  2.3603  0.6251 -0.4249
 9432TIP3    H249712   2.807   4.065   5.329 -0.5465  0.1575  1.4317
 9433TIP3   OH249713   1.414   1.187  15.188  0.1898  0.2745  0.2439
 9433TIP3    H149714   1.357   1.161  15.260  2.2916 -2.2467  1.1358
 9433TIP3    H249715   1.467   1.259  15.223 -0.8400  1.0903  0.1606
 9434TIP3   OH249716   2.499   1.499  16.519  0.3424  0.7246 -0.1850
 9434TIP3    H149717   2.512   1.586  16.556  1.7036  0.8654 -0.9453
 9434TIP3    H249718   2.587   1.463  16.509 -0.1771 -0.6318 -0.1564
 9435TIP3   OH249719   3.440   4.870  17.186  0.1918 -0.3318 -0.3194
 9435TIP3    H149720   3.440   4.882  17.281 -1.0085  0.4088 -0.3949
 9435TIP3    H249721   3.437   4.775  17.174 -0.2448 -0.4142  0.3941
 9436TIP3   OH249722   2.487   1.942  14.141 -0.2022 -0.1283  0.1291
 9436TIP3    H149723   2.407   1.895  14.165 -0.5278 -0.0036 -0.6914
 9436TIP3    H249724   2.555   1.905  14.198 -0.8611 -0.1395  0.9327
 9437TIP3   OH249725   0.262   2.794  16.886  0.1503  0.0294  0.3814
 9437TIP3    H149726   0.338   2.750  16.923  0.9273 -0.0017 -1.2006
 9437TIP3    H249727   0.292   2.830  16.803 -0.6380  2.9618  1.2280
 9438TIP3   OH249728   2.388   0.363  15.833 -0.0517  0.0701 -0.2666
 9438TIP3    H149729   2.474   0.404  15.818  1.0649 -2.4950 -1.5031
 9438TIP3    H249730   2.390   0.336  15.925  0.4134  0.1487 -0.2492
 9439TIP3   OH249731   3.463   5.283   3.095 -0.4639 -0.0372  0.3583
 9439TIP3    H149732   3.529   5.308   3.031 -0.7430  1.0240  0.4645
 9439TIP3    H249733   3.513   5.262   3.174 -0.1148 -1.4104 -0.1929
 9440TIP3   OH249734   6.360   2.173  15.784 -0.6477  0.1341 -0.1057
 9440TIP3    H149735   6.371   2.096  15.840 -0.7088  0.9184  1.0220
 9440TIP3    H249736   6.297   2.146  15.718 -1.1256 -0.6064  0.6399
 9441TIP3   OH249737   5.304   5.815  15.748 -0.5863 -0.7346  0.0423
 9441TIP3    H149738   5.230   5.869  15.776 -0.7975 -1.3716  0.7251
 9441TIP3    H249739   5.342   5.863  15.674 -0.7500  0.3714  0.6589
 9442TIP3   OH249740   0.073   4.056   2.322  0.4266  0.5421  0.3410
 9442TIP3    H149741   0.041   4.045   2.233  2.5137  0.4541 -0.4515
 9442TIP3    H249742   0.033   3.984   2.371  0.1137 -0.0495 -0.7591
 9443TIP3   OH249743   6.669   1.965  16.881 -0.1516  0.2964  0.2309
 9443TIP3    H149744   6.597   2.016  16.845 -1.3681 -1.6403 -0.2448
 9443TIP3    H249745   6.712   1.927  16.805  1.6179  1.6410  0.4857
 9444TIP3   OH249746   3.092   6.644   6.211 -0.6297 -0.5447  0.7995
 9444TIP3    H149747   3.017   6.593   6.181  0.2990 -1.5326  0.0606
 9444TIP3    H249748   3.113   6.609   6.297 -1.3492  0.1306  1.2656
 9445TIP3   OH249749   6.186   3.467  15.238  0.3646 -0.8168  0.6626
 9445TIP3    H149750   6.246   3.536  15.210 -1.4550 -0.4545 -2.9185
 9445TIP3    H249751   6.104   3.513  15.258 -0.0095 -1.6908  1.2126
 9446TIP3   OH249752   1.038   6.144  15.326 -0.1855  0.3786  0.7617
 9446TIP3    H149753   1.055   6.227  15.371 -0.0748  0.9476 -0.3168
 9446TIP3    H249754   1.119   6.094  15.337  1.0096  1.7096 -1.3455
 9447TIP3   OH249755   0.339   5.058  13.312 -0.0031 -0.0446  0.0988
 9447TIP3    H149756   0.335   5.120  13.239 -0.3146 -0.7913 -0.5333
 9447TIP3    H249757   0.429   5.065  13.344  0.9485 -1.5476 -2.0262
 9448TIP3   OH249758   4.966   0.730  14.831 -0.4779 -0.1231 -0.1819
 9448TIP3    H149759   5.018   0.736  14.751 -1.4290  0.5163 -0.7569
 9448TIP3    H249760   5.022   0.680  14.891  1.1722  1.2789 -0.4799
 9449TIP3   OH249761   1.791   3.443  16.183 -0.3309  0.0357  0.5673
 9449TIP3    H149762   1.785   3.387  16.105  0.8982 -0.9984  1.1852
 9449TIP3    H249763   1.745   3.523  16.158  0.6993  0.0517 -1.5196
 9450TIP3   OH249764   2.496   4.855  11.506  0.1627 -0.3770 -0.2096
 9450TIP3    H149765   2.489   4.798  11.583  0.3632 -0.4215 -0.2224
 9450TIP3    H249766   2.423   4.829  11.450 -0.1690 -0.1330  0.1018
 9451TIP3   OH249767   6.194   0.662  15.838  0.0457  0.1465 -0.7417
 9451TIP3    H149768   6.287   0.666  15.860 -0.1882  0.5176  0.2610
 9451TIP3    H249769   6.177   0.569  15.824 -0.2170 -0.5255  2.9485
 9452TIP3   OH249770   5.155   1.487   4.812 -0.2570 -0.2464 -0.2333
 9452TIP3    H149771   5.065   1.473   4.782 -0.6707  0.1083  0.7743
 9452TIP3    H249772   5.209   1.442   4.748 -0.9730  1.6556 -2.2992
 9453TIP3   OH249773   5.458   6.240  14.019  0.1738  0.1193 -0.7631
 9453TIP3    H149774   5.534   6.184  14.038 -1.5120 -1.6911  1.2597
 9453TIP3    H249775   5.385   6.195  14.061 -1.6123  3.0729 -0.4613
 9454TIP3   OH249776   0.825   4.910   5.442 -0.1137 -0.5155  0.2409
 9454TIP3    H149777   0.846   4.995   5.403  1.9576 -1.1762 -0.2058
 9454TIP3    H249778   0.823   4.926   5.536  0.2250  0.0308  0.1572
 9455TIP3   OH249779   1.509   4.171  16.008  0.0998 -0.3868  0.0162
 9455TIP3    H149780   1.502   4.187  15.914  0.6234 -1.4780 -0.2303
 9455TIP3    H249781   1.546   4.251  16.044 -0.2518  0.1005 -0.6799
 9456TIP3   OH249782   4.850   5.005  17.137 -0.0998 -0.1524 -0.1508
 9456TIP3    H149783   4.847   4.948  17.214 -1.2785 -0.2708 -0.2605
 9456TIP3    H249784   4.919   5.068  17.156 -1.1357  0.5455  1.5514
 9457TIP3   OH249785   5.514   1.088   0.897 -0.7197 -0.8306  0.3456
 9457TIP3    H149786   5.463   1.144   0.839  0.0396 -1.0725 -0.5784
 9457TIP3    H249787   5.563   1.148   0.952 -0.3258 -0.5875 -0.2689
 9458TIP3   OH249788   1.419   0.101   1.728 -0.2663 -0.2507 -0.1175
 9458TIP3    H149789   1.325   0.088   1.730 -0.1769 -0.8991  1.5973
 9458TIP3    H249790   1.440   0.143   1.811  1.0860 -1.2382  0.0921
 9459TIP3   OH249791   1.093   5.076   0.568 -0.4520 -0.6838 -0.9317
 9459TIP3    H149792   0.998   5.074   0.582 -0.3260  1.4724  0.8726
 9459TIP3    H249793   1.122   4.987   0.587 -2.1377 -1.5192 -1.9888
 9460TIP3   OH249794   3.139   3.065  15.821  0.0536  0.0991 -0.0105
 9460TIP3    H149795   3.065   3.008  15.800 -0.3625  0.9879 -1.0585
 9460TIP3    H249796   3.142   3.128  15.750 -0.1601  2.0684  1.6406
 9461TIP3   OH249797   6.064   5.943   0.357 -0.7508  0.2693  0.0761
 9461TIP3    H149798   5.987   5.990   0.387  0.5456  2.1920  0.6001
 9461TIP3    H249799   6.094   5.992   0.280 -1.1608 -1.6519 -1.3843
 9462TIP3   OH249800   5.568   6.680   5.117  0.0136  0.3874  0.2736
 9462TIP3    H149801   5.617   6.746   5.068  0.8098  0.3638  1.0100
 9462TIP3    H249802   5.553   6.721   5.202  0.8896 -0.5331  0.8893
 9463TIP3   OH249803   2.073   4.066  16.531 -0.3644  0.6950 -0.2513
 9463TIP3    H149804   2.161   4.076  16.569 -0.2050  0.3772 -0.5241
 9463TIP3    H249805   2.028   4.147  16.553  0.4676  1.4854 -1.3105
 9464TIP3   OH249806   3.357   3.267  12.214  0.3185  0.2921  0.0692
 9464TIP3    H149807   3.381   3.242  12.303  0.2611 -0.5464 -0.1469
 9464TIP3    H249808   3.361   3.186  12.164  1.6339  0.9562 -0.9854
 9465TIP3   OH249809   6.203   4.215  11.245  1.1092  0.0222  0.4886
 9465TIP3    H149810   6.293   4.183  11.237  0.8210 -0.8977  0.8700
 9465TIP3    H249811   6.213   4.308  11.266  1.9550  0.2204 -0.6517
 9466TIP3   OH249812   4.648   2.659   0.668 -0.4124 -0.1522 -0.9781
 9466TIP3    H149813   4.743   2.658   0.659 -0.1145 -0.5437  1.4903
 9466TIP3    H249814   4.627   2.747   0.699 -0.7690 -0.3233 -0.7207
 9467TIP3   OH249815   1.554   1.441   4.184  0.0685  0.8160 -0.0219
 9467TIP3    H149816   1.623   1.375   4.183 -0.1054  0.5793  1.3713
 9467TIP3    H249817   1.478   1.397   4.146 -0.1190  0.1111  1.1418
 9468TIP3   OH249818   1.563   1.706   3.059 -0.3531 -0.4470  0.3001
 9468TIP3    H149819   1.556   1.733   2.967 -1.0105 -2.8582 -0.4315
 9468TIP3    H249820   1.623   1.631   3.057 -0.2417 -0.4241  1.8799
 9469TIP3   OH249821   3.456   4.490   4.317  0.1144  0.1674 -0.1029
 9469TIP3    H149822   3.483   4.581   4.328  1.0534  0.2164 -2.3162
 9469TIP3    H249823   3.481   4.467   4.227 -0.8326 -2.0344  0.1054
 9470TIP3   OH249824   0.524   3.157  11.759  0.5023  0.6284  0.3237
 9470TIP3    H149825   0.429   3.158  11.761  0.4708  0.7492 -0.6536
 9470TIP3    H249826   0.546   3.077  11.710  0.8626  1.1759 -0.4384
 9471TIP3   OH249827   3.381   4.951  15.415  0.1067 -0.2974  0.9439
 9471TIP3    H149828   3.377   4.904  15.332 -0.6653  4.0748 -1.8123
 9471TIP3    H249829   3.294   4.942  15.453 -0.6292  0.3590 -0.5042
 9472TIP3   OH249830   4.775   5.089  12.072 -0.2533 -0.5535 -0.2921
 9472TIP3    H149831   4.718   5.048  12.008 -1.3302 -0.8081  0.8014
 9472TIP3    H249832   4.825   5.017  12.110  1.1055 -0.3006 -1.4725
 9473TIP3   OH249833   3.546   2.474  12.350 -0.1394  0.8864  0.5273
 9473TIP3    H149834   3.497   2.483  12.268 -0.4341  1.2265  0.7360
 9473TIP3    H249835   3.549   2.380  12.366  0.4813  0.7746 -0.2027
 9474TIP3   OH249836   0.519   0.154   1.413  0.0502  0.0884 -0.1055
 9474TIP3    H149837   0.456   0.226   1.413  0.2490  0.2809  1.0726
 9474TIP3    H249838   0.474   0.084   1.461  0.2306 -0.2355 -0.4082
 9475TIP3   OH249839   1.085   1.228  12.278 -0.9208 -0.2124 -0.6396
 9475TIP3    H149840   1.081   1.319  12.305 -1.2390 -0.8375  1.6492
 9475TIP3    H249841   1.172   1.219  12.237  0.0457  0.6341  1.1168
 9476TIP3   OH249842   6.463   1.010   2.267 -0.3740 -0.0466 -0.0163
 9476TIP3    H149843   6.388   1.035   2.322 -2.1212 -1.4852 -1.6224
 9476TIP3    H249844   6.491   0.925   2.302  1.2490  0.9066  1.1987
 9477TIP3   OH249845   4.124   6.629  16.666 -0.2939  0.1750  0.1330
 9477TIP3    H149846   4.028   6.630  16.675 -0.2815  0.3872  0.2456
 9477TIP3    H249847   4.154   6.693  16.730 -0.1963  1.6147 -1.3111
 9478TIP3   OH249848   6.635   4.357  10.524  0.3456  0.0290 -0.0286
 9478TIP3    H149849   6.584   4.298  10.469 -0.1044  0.2722  0.1168
 9478TIP3    H249850   6.656   4.306  10.602  2.1354 -0.7574 -0.9759
 9479TIP3   OH249851   1.971   3.431   3.243 -0.2487 -0.5242 -0.0527
 9479TIP3    H149852   2.057   3.389   3.250  0.0120 -0.0605 -0.4184
 9479TIP3    H249853   1.961   3.451   3.150 -0.7555 -0.5729 -0.0144
 9480TIP3   OH249854   2.059   2.617   5.642 -0.0907 -0.3456  0.1768
 9480TIP3    H149855   2.042   2.673   5.566 -0.5022  0.2027  0.6676
 9480TIP3    H249856   1.975   2.576   5.660 -0.1807  0.0935  0.7850
 9481TIP3   OH249857   1.470   5.350  13.402  0.6357 -0.0383  0.1843
 9481TIP3    H149858   1.496   5.379  13.489 -1.9593 -0.2468  1.1278
 9481TIP3    H249859   1.403   5.282  13.419  0.0949 -0.1013 -1.9539
 9482TIP3   OH249860   5.655   0.567   0.040 -0.3996 -0.3789  0.4915
 9482TIP3    H149861   5.585   0.627   0.014  0.3871 -0.0834 -1.1132
 9482TIP3    H249862   5.713   0.620   0.095  0.1915  0.3221 -0.7613
 9483TIP3   OH249863   4.251   4.710   3.839  0.3022 -0.2559 -0.2304
 9483TIP3    H149864   4.223   4.701   3.930  1.1533 -0.2078  0.0442
 9483TIP3    H249865   4.346   4.721   3.844  0.1525  1.7586 -0.9946
 9484TIP3   OH249866   5.497   6.158   0.699  0.0622 -0.5650 -0.5475
 9484TIP3    H149867   5.422   6.172   0.756  0.6960  0.9853 -0.0259
 9484TIP3    H249868   5.478   6.208   0.620  0.5088 -0.2166 -0.4393
 9485TIP3   OH249869   1.568   4.904   5.299  0.4863 -0.1641 -0.1395
 9485TIP3    H149870   1.543   4.907   5.392 -0.4435 -1.7875 -0.3055
 9485TIP3    H249871   1.488   4.925   5.251 -0.6221 -4.5138 -0.6416
 9486TIP3   OH249872   1.025   5.397   2.985 -0.6879 -0.0381 -0.0830
 9486TIP3    H149873   0.992   5.455   3.053  0.1292  0.1287  0.1864
 9486TIP3    H249874   1.047   5.454   2.912  0.3440  0.0351  0.2714
 9487TIP3   OH249875   4.847   3.519   4.017 -0.3056 -0.3783 -0.2097
 9487TIP3    H149876   4.814   3.493   4.103  0.4280  0.5918  0.3837
 9487TIP3    H249877   4.939   3.543   4.032  0.0694 -0.9356 -1.4106
 9488TIP3   OH249878   1.114   0.701  12.392  0.1679  0.1444 -0.0935
 9488TIP3    H149879   1.158   0.666  12.315 -0.3290 -0.9962  0.1238
 9488TIP3    H249880   1.073   0.782  12.361  1.4207  0.6192 -0.5719
 9489TIP3   OH249881   0.299   0.341  16.993 -0.6284  0.0250  0.1480
 9489TIP3    H149882   0.375   0.398  16.999 -1.4747  1.3396 -1.0910
 9489TIP3    H249883   0.226   0.394  17.026 -1.4397 -0.2977 -1.0673
 9490TIP3   OH249884   1.030   0.726  14.740  0.4447  0.4447  0.2601
 9490TIP3    H149885   1.068   0.697  14.658 -0.8365  0.7445 -0.4610
 9490TIP3    H249886   1.000   0.645  14.782  1.8021  0.2082  0.8270
 9491TIP3   OH249887   3.375   5.503   2.103 -0.1751  0.2887  0.4135
 9491TIP3    H149888   3.304   5.567   2.096 -0.6984 -0.2090  1.0618
 9491TIP3    H249889   3.446   5.540   2.052 -0.3234  1.5900  1.1276
 9492TIP3   OH249890   6.622   4.302   5.843 -0.1254  0.8259  0.0178
 9492TIP3    H149891   6.692   4.317   5.779  0.3473 -2.7093 -0.5260
 9492TIP3    H249892   6.665   4.311   5.928  0.2957  1.4175 -0.2548
 9493TIP3   OH249893   5.169   6.479   1.788 -0.1849 -0.4443 -0.6718
 9493TIP3    H149894   5.146   6.425   1.864  0.7960  0.3029  0.1903
 9493TIP3    H249895   5.261   6.458   1.771 -0.3983 -0.6005 -1.6594
 9494TIP3   OH249896   5.820   2.776   0.699 -0.4928 -0.1036  0.1434
 9494TIP3    H149897   5.907   2.814   0.714 -0.6103  2.1042 -3.4639
 9494TIP3    H249898   5.835   2.704   0.637 -1.1176 -0.4857  0.4235
 9495TIP3   OH249899   2.290   0.083  12.990 -0.0474  0.6031  0.0523
 9495TIP3    H149900   2.242   0.062  13.070 -1.3795 -1.5999 -1.2252
 9495TIP3    H249901   2.380   0.057  13.008 -0.0931  1.1481  1.1674
 9496TIP3   OH249902   3.452   0.620  15.293  0.3333  0.6379  0.8233
 9496TIP3    H149903   3.416   0.691  15.346 -0.4147 -0.6185  2.0724
 9496TIP3    H249904   3.409   0.541  15.326  1.5108 -0.4752 -0.1818
 9497TIP3   OH249905   3.633   2.728   2.353  0.3165 -0.1089  0.0969
 9497TIP3    H149906   3.541   2.723   2.329  0.2904  0.4200  0.0719
 9497TIP3    H249907   3.680   2.721   2.270  0.2640  0.5203  0.0057
 9498TIP3   OH249908   5.462   1.573  14.434 -0.2438  0.6167 -0.0221
 9498TIP3    H149909   5.481   1.660  14.467  0.5894 -0.0109  1.2285
 9498TIP3    H249910   5.479   1.515  14.508 -1.3886 -0.5583 -0.6349
 9499TIP3   OH249911   5.871   4.438   1.280  0.5369  0.3794 -0.0170
 9499TIP3    H149912   5.793   4.426   1.226 -0.0259  1.3797  0.5582
 9499TIP3    H249913   5.866   4.529   1.310  0.9413 -0.0951  1.5591
 9500TIP3   OH249914   5.577   1.017   3.619  0.1697 -0.8230  0.1628
 9500TIP3    H149915   5.603   0.970   3.540 -0.0177 -0.8398  0.1126
 9500TIP3    H249916   5.642   1.087   3.627  0.2983 -0.9327  0.0967
 9501TIP3   OH249917   1.051   0.957  13.244  0.6063 -0.1241 -0.7745
 9501TIP3    H149918   1.141   0.942  13.275 -0.1786 -0.1823  1.6761
 9501TIP3    H249919   1.020   0.870  13.218  0.3522 -0.6558  1.1292
 9502TIP3   OH249920   6.456   2.899  14.364  0.1695 -0.2728 -0.0786
 9502TIP3    H149921   6.417   2.909  14.450 -0.5122 -0.4631 -0.3598
 9502TIP3    H249922   6.382   2.903  14.303  0.7823  1.3523 -0.7721
 9503TIP3   OH249923   6.604   1.161   3.799 -0.0658  0.4195  0.3446
 9503TIP3    H149924   6.512   1.135   3.792  0.1464 -0.2579 -0.0437
 9503TIP3    H249925   6.603   1.237   3.857 -1.0989  1.6911 -1.2555
 9504TIP3   OH249926   0.305   1.124   1.826 -0.4284  0.3989  0.5029
 9504TIP3    H149927   0.244   1.087   1.891 -1.0813  2.0116  0.8676
 9504TIP3    H249928   0.284   1.079   1.745  0.6056 -1.8916  1.4193
 9505TIP3   OH249929   6.742   5.197  10.858  0.3686 -0.1060  0.3895
 9505TIP3    H149930   6.660   5.151  10.877  1.0664 -2.1001 -1.0060
 9505TIP3    H249931   6.749   5.194  10.763  1.7040  0.6862  0.4470
 9506TIP3   OH249932   0.077   3.897  15.625  0.6537  0.1827  0.1360
 9506TIP3    H149933   0.139   3.858  15.687  0.6667 -0.3492 -0.2095
 9506TIP3    H249934   0.055   3.826  15.565  0.8631  0.7663 -0.6488
 9507TIP3   OH249935   3.418   5.146   2.715 -0.2814 -0.1326  0.3933
 9507TIP3    H149936   3.388   5.164   2.626  0.7139 -1.4618 -0.2399
 9507TIP3    H249937   3.338   5.129   2.765 -0.8933  1.1629 -0.0796
 9508TIP3   OH249938   6.397   3.875   0.193  0.3142  0.2264  0.6597
 9508TIP3    H149939   6.402   3.780   0.206  1.0162 -0.3626 -2.8945
 9508TIP3    H249940   6.488   3.904   0.193  0.1183  0.8845  1.3853
 9509TIP3   OH249941   6.590   4.514  15.652 -0.4261  0.3946 -1.0437
 9509TIP3    H149942   6.565   4.600  15.619 -2.1396 -0.2896 -1.6167
 9509TIP3    H249943   6.591   4.458  15.575  1.6275  0.0566 -0.8276
 9510TIP3   OH249944   4.045   1.955   5.451 -0.1359 -0.2914 -0.2907
 9510TIP3    H149945   4.002   1.893   5.392 -0.2094 -0.2782 -0.2517
 9510TIP3    H249946   4.072   2.027   5.395  1.9849 -1.3654 -0.7412
 9511TIP3   OH249947   0.746   3.900   0.294 -0.3117  0.1750  0.5989
 9511TIP3    H149948   0.793   3.963   0.240  1.5078 -1.2918  0.3651
 9511TIP3    H249949   0.769   3.815   0.256 -2.2565 -0.6811  1.2170
 9512TIP3   OH249950   5.832   0.237   5.427 -0.1325 -0.1640 -0.0034
 9512TIP3    H149951   5.865   0.235   5.516 -1.1521 -0.9623  0.3691
 9512TIP3    H249952   5.848   0.327   5.398 -2.2923  0.9508  1.9620
 9513TIP3   OH249953   6.776   0.322  13.774 -0.0719  0.0405 -0.1472
 9513TIP3    H149954   6.723   0.286  13.845  0.5077 -0.1282  0.1981
 9513TIP3    H249955   6.786   0.414  13.796  0.7920 -0.1856  0.4115
 9514TIP3   OH249956   4.306   5.676   4.686 -0.3575  0.8315 -0.2896
 9514TIP3    H149957   4.251   5.683   4.608 -1.0210 -1.2583 -0.0523
 9514TIP3    H249958   4.351   5.761   4.690  0.0674  0.8706 -3.1857
 9515TIP3   OH249959   1.036   1.345  13.652  0.2468  0.0151  0.4699
 9515TIP3    H149960   0.962   1.391  13.692  0.8471 -0.2365  1.9597
 9515TIP3    H249961   1.035   1.258  13.692  0.4166 -0.5424 -0.6902
 9516TIP3   OH249962   3.310   2.356   5.363  0.0964 -0.0045 -0.0800
 9516TIP3    H149963   3.387   2.409   5.385  0.7760 -1.0340  0.0623
 9516TIP3    H249964   3.343   2.267   5.356 -1.0948 -0.4687 -0.0022
 9517TIP3   OH249965   5.062   4.784   3.745  0.1047 -0.3345 -0.1843
 9517TIP3    H149966   5.104   4.699   3.731 -0.4803 -0.4698 -1.2005
 9517TIP3    H249967   5.029   4.780   3.834  2.3666 -0.1557  0.7436
 9518TIP3   OH249968   4.515   3.636  10.992 -0.2810 -0.5171  0.0289
 9518TIP3    H149969   4.437   3.642  10.936  0.1392  0.0128 -0.5128
 9518TIP3    H249970   4.572   3.573  10.949  0.2621  0.2675 -0.4303
 9519TIP3   OH249971   6.493   4.247  12.888 -0.0598 -0.2788 -0.0453
 9519TIP3    H149972   6.505   4.256  12.983  0.0956  0.2504 -0.1081
 9519TIP3    H249973   6.422   4.185  12.878  0.8956 -1.4905  0.4009
 9520TIP3   OH249974   3.783   4.040   1.599  0.0785 -0.1671 -0.8867
 9520TIP3    H149975   3.736   4.095   1.661 -0.1810 -1.0064 -0.3337
 9520TIP3    H249976   3.762   3.951   1.625 -1.0719 -0.5600 -2.9560
 9521TIP3   OH249977   1.866   0.881   2.313 -0.6601  0.3129 -0.7057
 9521TIP3    H149978   1.950   0.918   2.286 -1.2382  0.6468 -2.1113
 9521TIP3    H249979   1.811   0.957   2.332 -0.8032  0.1003 -0.2365
 9522TIP3   OH249980   3.675   3.010   2.072  0.0164 -0.1735  0.3516
 9522TIP3    H149981   3.683   2.915   2.063  1.7598  0.0540 -1.2785
 9522TIP3    H249982   3.752   3.045   2.026 -1.4817  2.0921 -0.6170
 9523TIP3   OH249983   6.722   2.586  15.725 -0.1950 -0.2995 -0.3625
 9523TIP3    H149984   6.812   2.555  15.728  0.2102  0.8714 -0.0276
 9523TIP3    H249985   6.685   2.545  15.647  0.6747 -0.6331 -0.6136
 9524TIP3   OH249986   2.996   3.472  16.458  0.1079  0.3564 -0.1560
 9524TIP3    H149987   2.931   3.434  16.399  1.1802  2.0637 -2.5861
 9524TIP3    H249988   3.058   3.516  16.401  1.2633  2.1001  2.2576
 9525TIP3   OH249989   3.037   2.415  13.479 -0.4145  0.1134 -0.1087
 9525TIP3    H149990   3.046   2.457  13.394  0.1046  0.4241  0.0942
 9525TIP3    H249991   3.102   2.458  13.535 -0.1190 -0.7039  0.2038
 9526TIP3   OH249992   3.003   4.948  15.154 -0.2056 -0.1177 -0.0935
 9526TIP3    H149993   3.063   5.023  15.149 -0.4381  0.2294  1.6134
 9526TIP3    H249994   3.010   4.905  15.069  0.7417  1.2303 -0.7253
 9527TIP3   OH249995   0.464   4.119  11.984 -0.1143 -0.1811  0.5663
 9527TIP3    H149996   0.379   4.092  11.950  0.4608 -1.4669  0.1047
 9527TIP3    H249997   0.492   4.190  11.926 -0.4421 -0.4009  0.1351
 9528TIP3   OH249998   5.719   0.831  17.067  0.0042  0.7006  0.6608
 9528TIP3    H149999   5.726   0.901  17.002  1.8475 -0.2965 -0.2980
 9528TIP3    H250000   5.629   0.837  17.099 -0.2076  2.8048 -0.1585
 9529TIP3   OH250001   1.556   4.370  14.009  0.2990  0.0098  0.3690
 9529TIP3    H150002   1.606   4.435  13.961 -0.0967  0.8394  1.0452
 9529TIP3    H250003   1.614   4.344  14.081  0.0748  0.3617  0.6776
 9530TIP3   OH250004   3.455   3.899   5.132 -0.0004  0.5572 -0.8670
 9530TIP3    H150005   3.456   3.995   5.134 -1.2928  0.5714  0.3096
 9530TIP3    H250006   3.400   3.877   5.057 -0.2216  0.7479 -0.7625
 9531TIP3   OH250007   4.574   6.261   3.587 -0.0253 -0.4162 -0.0781
 9531TIP3    H150008   4.597   6.240   3.677  1.8256  1.2114 -0.0939
 9531TIP3    H250009   4.554   6.354   3.588  1.3097 -0.0646 -1.5201
 9532TIP3   OH250010   4.861   5.184  14.688  0.3236  0.3260  0.3710
 9532TIP3    H150011   4.934   5.152  14.740  0.8087  1.4967  0.4561
 9532TIP3    H250012   4.784   5.139  14.723  0.9082 -0.3738  0.7664
 9533TIP3   OH250013   5.428   4.503   1.854 -0.0676  0.3846 -0.8126
 9533TIP3    H150014   5.429   4.520   1.760 -0.1172  1.0033 -0.7049
 9533TIP3    H250015   5.502   4.552   1.888 -0.4779  0.7493 -0.4352
 9534TIP3   OH250016   2.270   4.186  11.677 -0.4551 -0.3619  0.4446
 9534TIP3    H150017   2.274   4.102  11.631  0.4834 -0.8929  1.4341
 9534TIP3    H250018   2.192   4.180  11.732  0.4973 -1.3147  1.7736
 9535TIP3   OH250019   1.363   4.401   2.178  0.1687 -0.5190 -0.2055
 9535TIP3    H150020   1.329   4.355   2.255 -1.3869  0.9380  0.0454
 9535TIP3    H250021   1.326   4.355   2.103  1.0762 -1.4783 -0.0879
 9536TIP3   OH250022   3.735   4.666   3.060  0.5867 -0.6308  0.3876
 9536TIP3    H150023   3.759   4.749   3.018 -0.0203 -0.8635 -0.4367
 9536TIP3    H250024   3.641   4.674   3.078  0.6183 -0.9606  0.7140
 9537TIP3   OH250025   4.574   1.121   5.878  0.3898  0.5781  0.1799
 9537TIP3    H150026   4.557   1.211   5.851 -1.7149 -0.2304 -1.5313
 9537TIP3    H250027   4.655   1.097   5.833  0.0105  1.0895 -0.8129
 9538TIP3   OH250028   3.098   3.454  11.862  0.4146 -0.2269 -0.5375
 9538TIP3    H150029   3.179   3.444  11.912  0.0982  0.5439  0.1501
 9538TIP3    H250030   3.115   3.410  11.779  0.8890 -1.7158  0.3074
 9539TIP3   OH250031   0.070   2.363  14.414 -0.0748  0.4421  0.0087
 9539TIP3    H150032   0.091   2.360  14.507  0.6321 -0.4111 -0.1589
 9539TIP3    H250033   0.078   2.272  14.385  2.1180  0.9990 -1.3654
 9540TIP3   OH250034   5.517   1.480   1.006  0.1827 -0.3597 -0.6161
 9540TIP3    H150035   5.454   1.413   0.979  0.4955 -0.8504 -0.1507
 9540TIP3    H250036   5.462   1.555   1.032 -0.1136  0.2563 -2.8630
 9541TIP3   OH250037   3.688   3.049   0.759  0.4098  0.0209  0.7298
 9541TIP3    H150038   3.719   2.959   0.770  0.5339 -0.0666 -0.2854
 9541TIP3    H250039   3.763   3.104   0.783  0.7741 -0.1687  0.0325
 9542TIP3   OH250040   2.319   0.585   3.741 -0.5539 -0.5933  0.2756
 9542TIP3    H150041   2.413   0.605   3.743 -1.0704  2.2816  0.4719
 9542TIP3    H250042   2.313   0.505   3.689  1.8444  0.3933 -1.7856
 9543TIP3   OH250043   6.462   0.624  15.848 -0.0681 -0.0825  0.2109
 9543TIP3    H150044   6.491   0.551  15.794  2.2039  0.6326  0.3719
 9543TIP3    H250045   6.539   0.650  15.897 -0.8143  2.3478  0.2420
 9544TIP3   OH250046   5.305   1.670  16.264 -0.4261  0.3910  0.6451
 9544TIP3    H150047   5.310   1.649  16.170  1.1383 -0.2609  0.8566
 9544TIP3    H250048   5.390   1.707  16.286 -0.4366 -0.3263  2.0088
 9545TIP3   OH250049   5.681   3.939   5.814  0.3449  0.2434  0.6655
 9545TIP3    H150050   5.630   3.882   5.757  1.7981 -0.0382 -0.4222
 9545TIP3    H250051   5.732   3.879   5.869  1.5744  0.4365 -0.2032
 9546TIP3   OH250052   1.623   0.760   0.540  0.2758 -0.5984  0.3236
 9546TIP3    H150053   1.560   0.711   0.488 -1.4030 -0.2117  1.9003
 9546TIP3    H250054   1.570   0.809   0.603  2.1377 -0.0746  1.5827
 9547TIP3   OH250055   4.238   3.170   1.146 -0.3823 -0.4113  0.0295
 9547TIP3    H150056   4.327   3.134   1.153  0.8961  1.6576 -3.1667
 9547TIP3    H250057   4.212   3.149   1.056 -1.9162  1.5186 -0.0207
 9548TIP3   OH250058   6.275   6.504  11.173 -0.2133 -0.2241  0.2321
 9548TIP3    H150059   6.195   6.524  11.124 -0.3059 -0.2199  0.3826
 9548TIP3    H250060   6.303   6.418  11.141 -0.8558 -0.6994  0.9187
 9549TIP3   OH250061   4.669   2.186   2.494 -0.5782  0.4093 -0.5332
 9549TIP3    H150062   4.663   2.280   2.509  0.7743  0.5878 -0.9322
 9549TIP3    H250063   4.600   2.167   2.431  0.1296  1.4257 -1.6489
 9550TIP3   OH250064   6.607   4.972  11.968 -0.3944 -0.4430 -0.7190
 9550TIP3    H150065   6.645   5.060  11.967 -0.9824 -0.1399 -2.9280
 9550TIP3    H250066   6.516   4.986  11.995  0.1072 -0.7272  1.2533
 9551TIP3   OH250067   4.714   2.532  12.958  0.1345 -0.4235  0.7786
 9551TIP3    H150068   4.632   2.522  12.910  0.5493 -0.4413  0.0509
 9551TIP3    H250069   4.751   2.614  12.925  0.6491 -0.6746  0.7182
 9552TIP3   OH250070   3.350   3.731  13.092  0.5393 -0.2664  0.2654
 9552TIP3    H150071   3.387   3.770  13.171  2.2199 -0.6400 -0.2959
 9552TIP3    H250072   3.330   3.641  13.117 -1.7168  0.3843  1.0613
 9553TIP3   OH250073   2.075   0.771   5.748  0.3278  0.4520 -0.3296
 9553TIP3    H150074   2.135   0.748   5.818 -0.5195 -0.9694 -0.0377
 9553TIP3    H250075   1.998   0.806   5.792  0.4627  1.1680 -0.6458
 9554TIP3   OH250076   5.994   4.619  15.058 -1.0601 -0.0898  0.0491
 9554TIP3    H150077   6.023   4.549  15.117 -1.0221 -0.1993 -0.1002
 9554TIP3    H250078   5.976   4.693  15.116 -2.0486 -0.5266  0.3278
 9555TIP3   OH250079   0.178   4.313  16.377 -0.4336 -0.0253  0.0140
 9555TIP3    H150080   0.190   4.234  16.325 -2.3373  0.2588 -0.9471
 9555TIP3    H250081   0.197   4.286  16.467  2.4862 -0.6377 -0.6657
 9556TIP3   OH250082   1.536   5.318   1.575  0.6754 -0.5583  0.1698
 9556TIP3    H150083   1.441   5.307   1.583  0.5190  0.7578  0.3005
 9556TIP3    H250084   1.571   5.230   1.591 -0.5582 -1.2854 -0.8283
 9557TIP3   OH250085   1.489   4.055  16.262  0.1517  0.1086 -0.1531
 9557TIP3    H150086   1.475   4.083  16.172 -1.1521 -1.4906 -0.5032
 9557TIP3    H250087   1.584   4.046  16.270  0.2920  0.3385 -1.3395
 9558TIP3   OH250088   0.025   1.831  16.688  0.4984 -0.4443 -0.3742
 9558TIP3    H150089   0.099   1.775  16.709  0.5420 -0.4956 -0.6689
 9558TIP3    H250090   0.009   1.818  16.595 -0.6285 -1.3372 -0.0754
 9559TIP3   OH250091   3.048   3.489   4.552  0.1397 -0.2755 -0.1874
 9559TIP3    H150092   3.080   3.521   4.636 -0.7560 -0.8335  0.3908
 9559TIP3    H250093   2.953   3.505   4.556  0.0590 -0.5352 -0.9859
 9560TIP3   OH250094   4.891   3.317  12.881 -0.1127  0.4480 -0.1401
 9560TIP3    H150095   4.836   3.240  12.896  0.4409  0.3053  1.3673
 9560TIP3    H250096   4.851   3.361  12.806 -0.5500 -1.1963 -0.9220
 9561TIP3   OH250097   3.209   0.818   1.909  0.1751  0.2160 -0.5021
 9561TIP3    H150098   3.273   0.760   1.867  0.5988  1.7798 -2.1267
 9561TIP3    H250099   3.140   0.759   1.939  0.7671 -1.1952 -1.7619
 9562TIP3   OH250100   1.122   3.653  12.825 -0.0387 -0.1578 -0.0644
 9562TIP3    H150101   1.143   3.572  12.872 -1.1589  0.0516  0.8112
 9562TIP3    H250102   1.051   3.693  12.874  0.1200  1.0994 -0.7985
 9563TIP3   OH250103   6.289   0.386   5.608 -0.4715  0.0695  0.2309
 9563TIP3    H150104   6.250   0.301   5.586 -1.7412  0.5796  0.4558
 9563TIP3    H250105   6.300   0.430   5.523 -0.3198 -0.1048  0.1604
 9564TIP3   OH250106   5.825   1.634   4.550  0.2738  0.4217 -0.2170
 9564TIP3    H150107   5.813   1.729   4.561  2.1517  0.4814  2.1112
 9564TIP3    H250108   5.741   1.596   4.575 -0.0864  1.4138  0.1393
 9565TIP3   OH250109   4.197   3.577  11.037 -0.7764 -0.0982  0.3558
 9565TIP3    H150110   4.243   3.600  10.956  1.2565 -1.2276  1.1143
 9565TIP3    H250111   4.109   3.610  11.025  0.1808  2.1011 -1.2505
 9566TIP3   OH250112   0.470   2.060   5.832  0.1693  0.8303  0.0793
 9566TIP3    H150113   0.561   2.040   5.853  0.6137  0.0502 -2.2561
 9566TIP3    H250114   0.428   1.975   5.822 -0.9053  1.1853  1.3625
 9567TIP3   OH250115   5.366   0.816  11.632  0.0930 -0.0296  0.0408
 9567TIP3    H150116   5.325   0.736  11.600  1.2170 -0.4986 -0.2687
 9567TIP3    H250117   5.316   0.886  11.590 -0.4914 -0.5753 -0.1931
 9568TIP3   OH250118   3.919   3.680   3.857 -0.1347 -0.7076  0.0665
 9568TIP3    H150119   3.921   3.672   3.952  1.2339  0.3499  0.1598
 9568TIP3    H250120   3.997   3.635   3.827 -0.8164 -1.4696 -0.6150
 9569TIP3   OH250121   2.615   5.094  14.653 -0.0654  0.2491  0.2701
 9569TIP3    H150122   2.580   5.069  14.739  3.2755 -1.5821  1.2866
 9569TIP3    H250123   2.677   5.165  14.672 -1.3094  1.8085 -1.1276
 9570TIP3   OH250124   3.371   0.525   1.988 -0.3765  0.2863  0.5394
 9570TIP3    H150125   3.322   0.539   1.907 -0.7967  0.6510  0.8507
 9570TIP3    H250126   3.461   0.508   1.959 -0.5539  0.2513 -0.0073
 9571TIP3   OH250127   3.652   5.311  12.647 -0.2194  0.1342  0.5609
 9571TIP3    H150128   3.657   5.407  12.653  0.2230  0.0871  1.0118
 9571TIP3    H250129   3.649   5.281  12.738 -0.1892 -0.2879  0.4245
 9572TIP3   OH250130   1.326   4.294  13.519  0.1423  0.0039  0.2108
 9572TIP3    H150131   1.294   4.328  13.602  1.6463 -0.7641  1.1346
 9572TIP3    H250132   1.249   4.297  13.461 -1.4010 -0.9663  2.0798
 9573TIP3   OH250133   5.251   0.298  15.040  0.2212  0.1763  0.0380
 9573TIP3    H150134   5.206   0.349  15.108  1.5903  1.1194  0.2866
 9573TIP3    H250135   5.208   0.321  14.959  1.8361  3.1238 -0.1074
 9574TIP3   OH250136   6.052   2.140   2.940 -0.2100  0.1678 -0.0914
 9574TIP3    H150137   6.058   2.091   2.858  0.3438  0.6343 -0.3379
 9574TIP3    H250138   6.041   2.073   3.008 -0.7524 -0.2173 -0.5504
 9575TIP3   OH250139   3.428   4.156   2.615  0.5376 -0.2418 -0.0584
 9575TIP3    H150140   3.466   4.239   2.587 -0.1541  1.3810  3.2745
 9575TIP3    H250141   3.333   4.173   2.616  0.3877 -1.0634  0.6175
 9576TIP3   OH250142   2.673   6.487   4.066  0.3355 -0.3032 -0.4694
 9576TIP3    H150143   2.716   6.443   4.139 -2.7213 -1.2455  0.9440
 9576TIP3    H250144   2.690   6.430   3.991 -0.7061 -2.1702  0.6269
 9577TIP3   OH250145   0.121   1.252  16.269 -0.4881 -0.3374 -0.1882
 9577TIP3    H150146   0.166   1.182  16.220  2.0763  0.6549  0.5983
 9577TIP3    H250147   0.029   1.228  16.264  0.0711 -2.5463 -1.8889
 9578TIP3   OH250148   2.795   0.775   0.359 -0.0451 -0.0324 -0.1279
 9578TIP3    H150149   2.799   0.870   0.365  0.5143 -0.1238  1.3727
 9578TIP3    H250150   2.868   0.751   0.303  0.0436  0.3956 -0.1993
 9579TIP3   OH250151   1.760   5.567   2.034  0.1457  0.1578 -0.2573
 9579TIP3    H150152   1.770   5.631   1.964  1.4371  0.6680  0.3757
 9579TIP3    H250153   1.807   5.604   2.108 -1.3883 -0.2466  0.9927
 9580TIP3   OH250154   2.515   1.969   3.798  0.3087 -0.0977  0.4994
 9580TIP3    H150155   2.574   2.029   3.753  0.2687  0.1811  0.8143
 9580TIP3    H250156   2.454   1.940   3.731 -0.6384  1.4120  0.6696
 9581TIP3   OH250157   4.543   0.745  11.604  0.7122  0.2064  0.1034
 9581TIP3    H150158   4.571   0.728  11.694 -0.0799  1.9001  0.7034
 9581TIP3    H250159   4.451   0.718  11.602  1.3200 -2.0399 -0.8971
 9582TIP3   OH250160   0.019   2.048  13.632 -0.2814  0.1325  0.0170
 9582TIP3    H150161  -0.050   2.027  13.695 -1.1074 -1.1751 -1.2682
 9582TIP3    H250162  -0.024   2.103  13.567  0.5905  1.5500  0.5832
 9583TIP3   OH250163   0.059   1.122   3.534 -0.7487  0.4809  0.0414
 9583TIP3    H150164   0.003   1.193   3.566  0.8785  1.0544  1.8049
 9583TIP3    H250165   0.146   1.162   3.528  0.1652 -1.2953  0.8557
 9584TIP3   OH250166   0.299   3.931   5.362 -0.0171 -0.2978 -0.5541
 9584TIP3    H150167   0.287   3.918   5.456  1.1556 -0.9343 -0.4691
 9584TIP3    H250168   0.338   3.849   5.331  1.9821  0.7975 -1.1247
 9585TIP3   OH250169   6.078   1.910   3.080  0.8103 -0.3723 -0.0304
 9585TIP3    H150170   6.125   1.831   3.051  0.2946 -0.7656  0.1841
 9585TIP3    H250171   6.119   1.932   3.164  2.5829  1.0085 -1.2045
 9586TIP3   OH250172   5.895   6.604  16.899 -0.4481  0.7695 -0.2322
 9586TIP3    H150173   5.852   6.530  16.856  1.2487 -0.4246  0.0310
 9586TIP3    H250174   5.929   6.657  16.828 -1.4042  1.1566 -0.4165
 9587TIP3   OH250175   5.016   5.118  13.994  0.6054 -0.3186  0.1782
 9587TIP3    H150176   5.058   5.202  14.012 -0.8219  1.0612 -2.3354
 9587TIP3    H250177   5.088   5.060  13.971  1.5147  0.6144  0.5870
 9588TIP3   OH250178   3.829   4.206  14.356 -0.5831  0.1681 -0.1099
 9588TIP3    H150179   3.766   4.201  14.284 -0.4924  0.6387 -0.2268
 9588TIP3    H250180   3.915   4.205  14.313 -0.5315  0.6300 -0.0253
 9589TIP3   OH250181   4.809   1.953   2.916 -0.5412  0.0059 -0.0597
 9589TIP3    H150182   4.891   2.001   2.904  0.9087 -2.4225 -0.3298
 9589TIP3    H250183   4.791   1.914   2.831 -0.0443 -2.3263  0.8321
 9590TIP3   OH250184   6.497   3.885   1.077  0.0629 -0.6450 -0.0866
 9590TIP3    H150185   6.502   3.929   0.992 -0.0764 -0.0766  0.1946
 9590TIP3    H250186   6.562   3.815   1.071 -0.3701 -0.9800 -0.8719
 9591TIP3   OH250187   3.009   2.485  15.475 -0.2863 -0.0458  0.2623
 9591TIP3    H150188   2.994   2.391  15.465  2.6551 -0.5066 -0.7644
 9591TIP3    H250189   2.988   2.503  15.567  0.2997 -1.9801  0.8304
 9592TIP3   OH250190   3.565   3.491   0.575  0.5774  0.2927 -0.1561
 9592TIP3    H150191   3.642   3.480   0.519  2.8502 -0.0464  2.7335
 9592TIP3    H250192   3.538   3.401   0.596 -0.9643  0.4021 -1.4677
 9593TIP3   OH250193   5.802   4.780   0.735  0.0394  0.0780 -0.0082
 9593TIP3    H150194   5.767   4.690   0.736  0.3225 -0.2351 -3.6579
 9593TIP3    H250195   5.849   4.789   0.817 -0.5066 -2.9099  0.7435
 9594TIP3   OH250196   0.184   3.125   0.600 -0.2984 -0.1281 -0.0980
 9594TIP3    H150197   0.229   3.161   0.523  0.5797  0.2367  0.5651
 9594TIP3    H250198   0.132   3.052   0.566  0.1126 -0.0045 -1.0238
 9595TIP3   OH250199   0.754   2.286   9.069 -0.0802  0.0628  0.1182
 9595TIP3    H150200   0.848   2.268   9.078 -0.2432 -1.0500 -0.2972
 9595TIP3    H250201   0.712   2.212   9.112 -0.7768 -0.3215 -1.1738
 9596TIP3   OH250202   1.618   2.977   0.844  0.3468  0.3854 -0.3273
 9596TIP3    H150203   1.553   2.988   0.774  0.2261  2.2315  0.0263
 9596TIP3    H250204   1.583   3.029   0.917  2.2560  1.5490 -0.1823
 9597TIP3   OH250205   0.581   4.345  13.655  0.6737 -0.6752  0.0370
 9597TIP3    H150206   0.609   4.335  13.565 -2.0498  0.5395 -1.0565
 9597TIP3    H250207   0.490   4.315  13.656 -0.5402  2.5383  1.5023
 9598TIP3   OH250208   2.514   6.286  16.010 -0.0662 -0.6800  0.0926
 9598TIP3    H150209   2.601   6.326  16.014  0.4205 -1.7120  0.1844
 9598TIP3    H250210   2.457   6.356  15.979  1.0711 -0.3801 -1.4854
 9599TIP3   OH250211   1.511   5.054  15.931  0.0188 -0.1854 -0.1308
 9599TIP3    H150212   1.553   5.038  16.016  0.1917  2.9855  0.5207
 9599TIP3    H250213   1.435   5.108  15.953 -2.0928 -2.3589 -1.7130
 9600TIP3   OH250214   4.509   6.022   4.080 -0.1990  0.5959 -0.6748
 9600TIP3    H150215   4.484   6.012   3.988 -1.6430 -0.6187 -0.1994
 9600TIP3    H250216   4.532   5.933   4.108  1.5042  1.1542 -0.1725
 9601TIP3   OH250217   1.396   2.087   6.238 -0.2133 -0.0908  0.5141
 9601TIP3    H150218   1.433   2.175   6.245  0.5922 -0.3859  0.1462
 9601TIP3    H250219   1.341   2.078   6.315  1.5931 -0.1215  1.8842
 9602TIP3   OH250220   0.617   1.498  11.427  0.3815 -0.5330 -0.7783
 9602TIP3    H150221   0.543   1.448  11.394 -1.3329  1.2050  0.2034
 9602TIP3    H250222   0.608   1.584  11.386 -0.5310  0.9820  2.2892
 9603TIP3   OH250223   3.281   0.078   3.150  0.3478  0.4563 -0.1043
 9603TIP3    H150224   3.213   0.135   3.185  0.5174 -0.0935  1.1782
 9603TIP3    H250225   3.312   0.123   3.071  0.4079  2.0792  0.8038
 9604TIP3   OH250226   1.543   3.791   4.281  1.0192 -0.0568  0.1508
 9604TIP3    H150227   1.489   3.837   4.345  1.4200  1.7499 -0.7348
 9604TIP3    H250228   1.483   3.730   4.239 -0.0490  1.0131  0.0583
 9605TIP3   OH250229   6.190   1.946   3.322  0.2267  0.1247 -0.6880
 9605TIP3    H150230   6.234   1.870   3.358 -2.5430 -0.2420  2.4645
 9605TIP3    H250231   6.254   2.017   3.329  1.4749 -1.0525  0.2846
 9606TIP3   OH250232   0.089   4.837  15.109  0.0471 -0.2477 -0.1389
 9606TIP3    H150233   0.124   4.865  15.025  1.7220 -0.4322  0.4615
 9606TIP3    H250234  -0.006   4.842  15.098  0.2196 -0.4658 -2.0928
 9607TIP3   OH250235   0.680   0.564  15.413  1.1040  0.8743  0.3783
 9607TIP3    H150236   0.600   0.613  15.394  0.1092 -0.7638  0.0940
 9607TIP3    H250237   0.744   0.631  15.438  0.1723  2.4109 -1.1065
 9608TIP3   OH250238   6.150   1.839  15.477  0.0449 -0.4372 -0.6382
 9608TIP3    H150239   6.099   1.851  15.397 -0.7964 -1.3895 -0.2557
 9608TIP3    H250240   6.223   1.783  15.450  0.0834 -0.2881 -0.8526
 9609TIP3   OH250241   5.338   0.016   1.978 -0.0743 -0.1738 -0.3284
 9609TIP3    H150242   5.400   0.073   2.024 -0.5987 -0.3621  0.6459
 9609TIP3    H250243   5.323  -0.056   2.039 -1.8680  0.2866 -0.1783
 9610TIP3   OH250244   1.628   1.970   4.330 -0.2987  0.2607  0.1676
 9610TIP3    H150245   1.616   1.877   4.348 -0.2941  0.0488 -0.8634
 9610TIP3    H250246   1.542   1.999   4.300 -0.2408  0.5360  0.2702
 9611TIP3   OH250247   4.704   0.868  13.919 -0.2756  0.6813  0.3396
 9611TIP3    H150248   4.622   0.842  13.876 -0.6142  0.9812  0.7992
 9611TIP3    H250249   4.701   0.826  14.004  0.6684 -0.3950 -0.1247
 9612TIP3   OH250250   0.921   2.815   0.480  0.6539 -0.3900  0.1603
 9612TIP3    H150251   0.950   2.724   0.492  0.7528 -0.2890  0.7462
 9612TIP3    H250252   1.001   2.866   0.488  0.5196 -0.2122  0.3849
 9613TIP3   OH250253   0.050   3.664   3.391 -0.4364  0.3439  0.0573
 9613TIP3    H150254   0.098   3.648   3.472  1.2255  0.7527 -0.7913
 9613TIP3    H250255   0.102   3.731   3.346 -1.1793 -0.0629 -1.4501
 9614TIP3   OH250256   5.177   0.167  16.233  0.1628 -0.0070 -0.5507
 9614TIP3    H150257   5.103   0.197  16.180 -0.2172  1.4062  0.7127
 9614TIP3    H250258   5.196   0.240  16.292  0.1431 -1.7000  1.7034
 9615TIP3   OH250259   0.730   4.677   2.636  0.0412  0.3678  0.4875
 9615TIP3    H150260   0.771   4.762   2.624 -0.2439  0.3958 -0.3719
 9615TIP3    H250261   0.664   4.691   2.704 -0.6962  1.0858 -0.3504
 9616TIP3   OH250262   3.442   5.547   1.119 -0.2417  0.7342  0.2247
 9616TIP3    H150263   3.427   5.584   1.206  2.4719  1.2463  0.5707
 9616TIP3    H250264   3.535   5.525   1.118 -0.6404 -1.2928 -1.8190
 9617TIP3   OH250265   2.398   0.029   3.133 -0.0318 -0.2019  0.7192
 9617TIP3    H150266   2.358   0.010   3.048 -1.2166  1.4370  0.8558
 9617TIP3    H250267   2.324   0.037   3.193  0.5977  1.1549  1.3641
 9618TIP3   OH250268   2.534   3.091   1.690  0.2691 -0.2853 -0.0134
 9618TIP3    H150269   2.549   3.087   1.595  0.3494 -0.6751  0.0128
 9618TIP3    H250270   2.476   3.166   1.702  1.0260  0.3558 -0.2647
 9619TIP3   OH250271   1.141   1.522  11.126 -0.0892 -0.1243  0.1050
 9619TIP3    H150272   1.149   1.431  11.155  1.7576  0.4299  1.5232
 9619TIP3    H250273   1.123   1.516  11.032  0.9975 -1.9478 -0.0332
 9620TIP3   OH250274   0.663   3.120   0.637  0.1833  0.2445  0.0806
 9620TIP3    H150275   0.605   3.188   0.603  1.2274  0.7344 -0.7637
 9620TIP3    H250276   0.616   3.084   0.712 -1.9703 -0.4788 -1.5120
 9621TIP3   OH250277   4.601   6.058   0.798 -0.1767  0.5146 -0.2096
 9621TIP3    H150278   4.532   6.117   0.829  1.2057  2.0971  0.0511
 9621TIP3    H250279   4.648   6.109   0.731  0.3588 -0.7435 -0.8241
 9622TIP3   OH250280   0.173   3.890   3.325 -0.2843 -0.1457  0.0404
 9622TIP3    H150281   0.195   3.862   3.237 -0.5363  1.1337 -0.4544
 9622TIP3    H250282   0.257   3.892   3.372  0.1029  0.7924 -0.6640
 9623TIP3   OH250283   3.270   0.367  15.399 -0.0432 -0.1602 -0.2151
 9623TIP3    H150284   3.243   0.386  15.489  1.1493 -1.6070  0.4821
 9623TIP3    H250285   3.209   0.299  15.369 -0.3628  0.2340 -0.4805
 9624TIP3   OH250286   4.367   6.629   4.848 -0.3162  0.1585  0.2740
 9624TIP3    H150287   4.441   6.573   4.826  1.7952  2.1077  1.9258
 9624TIP3    H250288   4.297   6.568   4.874  0.4551 -1.7582 -1.7986
 9625TIP3   OH250289   6.028   4.160   1.017  0.1318  0.4373 -0.4506
 9625TIP3    H150290   5.949   4.211   0.997 -0.2497  0.5493  1.1872
 9625TIP3    H250291   6.000   4.069   1.009  0.1728  0.4736 -1.0579
 9626TIP3   OH250292   3.306   4.547   3.703 -0.3552 -0.5539 -0.0688
 9626TIP3    H150293   3.368   4.476   3.689 -0.1159 -0.0233 -1.9523
 9626TIP3    H250294   3.234   4.529   3.644  0.4270  1.5312 -1.7852
 9627TIP3   OH250295   2.651   0.755  15.215  0.3784 -0.7359  0.5836
 9627TIP3    H150296   2.738   0.774  15.250  0.2012 -1.4464  1.4479
 9627TIP3    H250297   2.666   0.684  15.152  0.5676 -0.0949 -0.1092
 9628TIP3   OH250298   1.656   6.790  12.788 -0.5562 -0.2167 -0.2385
 9628TIP3    H150299   1.630   6.750  12.871  0.6767  1.4372  1.0049
 9628TIP3    H250300   1.595   6.863  12.777  1.1674  1.4749  0.8666
 9629TIP3   OH250301   3.509   2.357   4.013  0.1810  0.1151  0.1241
 9629TIP3    H150302   3.508   2.298   4.088  1.6398 -2.6694 -1.8584
 9629TIP3    H250303   3.571   2.425   4.036 -0.4420  0.1242  1.9250
 9630TIP3   OH250304   3.629   4.980   4.995 -0.1215 -0.6002  0.1582
 9630TIP3    H150305   3.635   5.045   5.066  1.5980 -1.6727  1.0761
 9630TIP3    H250306   3.547   4.934   5.011 -0.0461 -0.4278  1.1289
 9631TIP3   OH250307   1.139   3.662  14.524 -0.6048 -0.0276  0.4324
 9631TIP3    H150308   1.221   3.615  14.514 -0.5356  0.1523  0.1649
 9631TIP3    H250309   1.072   3.601  14.494 -0.2947  1.0471 -2.7942
 9632TIP3   OH250310   6.024   5.147   6.087 -0.2292 -0.2110 -0.4248
 9632TIP3    H150311   6.115   5.130   6.062  0.0070 -3.7342  1.9743
 9632TIP3    H250312   5.972   5.121   6.011  0.7055 -0.2421 -1.0615
 9633TIP3   OH250313   0.134   2.491  13.576 -0.7912 -0.3625 -0.9437
 9633TIP3    H150314   0.125   2.435  13.499 -0.5012 -0.9404 -0.5581
 9633TIP3    H250315   0.157   2.577  13.541  0.3330 -0.8550 -1.4505
 9634TIP3   OH250316   0.877   5.306  13.316 -0.7527 -0.4235  0.4771
 9634TIP3    H150317   0.851   5.374  13.254 -0.2196 -1.1199 -0.5515
 9634TIP3    H250318   0.858   5.343  13.402  3.6930  2.9294  0.3480
 9635TIP3   OH250319   5.417   2.714  13.526  0.4205 -0.1233 -0.8584
 9635TIP3    H150320   5.408   2.628  13.484  2.9366 -1.5855  1.2889
 9635TIP3    H250321   5.444   2.773  13.456  0.7393 -1.5901 -2.0119
 9636TIP3   OH250322   0.440   2.508   4.128  0.5715  0.3299  0.4851
 9636TIP3    H150323   0.413   2.549   4.046 -0.6110  0.0472  0.7191
 9636TIP3    H250324   0.440   2.414   4.109  0.6401  0.2818  0.7140
 9637TIP3   OH250325   2.797   1.937  13.728  0.2875  0.0206  0.1243
 9637TIP3    H150326   2.722   1.919  13.784  1.3055  2.9224  2.7007
 9637TIP3    H250327   2.764   1.999  13.663  0.3469  1.1887  1.1693
 9638TIP3   OH250328   1.317   0.286   3.594 -0.1667  0.2362  0.3715
 9638TIP3    H150329   1.322   0.364   3.539  1.1214  0.4070  0.6848
 9638TIP3    H250330   1.339   0.214   3.535  0.9091  0.3848  0.5707
 9639TIP3   OH250331   0.380   6.544   2.721  0.2496 -0.8493  0.3374
 9639TIP3    H150332   0.385   6.486   2.797 -0.6443 -1.9424 -0.4099
 9639TIP3    H250333   0.471   6.563   2.700  0.5216  0.4555  2.3736
 9640TIP3   OH250334   0.871   1.747  12.393 -0.1900 -0.6754  0.3561
 9640TIP3    H150335   0.866   1.825  12.337 -0.8519 -0.5357  0.6030
 9640TIP3    H250336   0.893   1.781  12.480 -0.4503 -0.7700  0.4580
 9641TIP3   OH250337   6.729   1.318  15.840  0.1274 -0.0552  0.4699
 9641TIP3    H150338   6.817   1.356  15.839 -0.6112  1.7279 -0.4899
 9641TIP3    H250339   6.744   1.223  15.848  2.1495  0.1415 -0.5212
 9642TIP3   OH250340   6.610   4.363   3.667  0.3115  0.0158 -0.7106
 9642TIP3    H150341   6.646   4.402   3.747 -0.4336  1.0100 -0.8384
 9642TIP3    H250342   6.592   4.272   3.691  0.3308  0.2378  0.1846
 9643TIP3   OH250343   6.124   4.659   6.640  0.1586  0.0559 -0.2249
 9643TIP3    H150344   6.036   4.668   6.603 -0.5806 -1.9111  0.9087
 9643TIP3    H250345   6.156   4.749   6.648 -0.9601  0.7181 -2.4388
 9644TIP3   OH250346   0.362   4.340   2.285 -0.5151 -0.0359  0.0345
 9644TIP3    H150347   0.296   4.409   2.289  0.2033  0.9331 -2.8294
 9644TIP3    H250348   0.445   4.387   2.279  0.1004 -1.1650 -0.6158
 9645TIP3   OH250349   0.240   1.199   2.365 -0.2095 -0.1798 -0.2097
 9645TIP3    H150350   0.244   1.104   2.373 -0.8631 -0.2003 -0.0366
 9645TIP3    H250351   0.233   1.231   2.455  0.5056  0.0622 -0.2371
 9646TIP3   OH250352   3.773   5.072  12.808  0.5201  0.0673  0.5026
 9646TIP3    H150353   3.856   5.106  12.773  1.3443 -0.4585  1.8568
 9646TIP3    H250354   3.781   5.083  12.902 -2.6903  3.8584  0.6073
 9647TIP3   OH250355   2.027   4.209  13.215  0.1698 -0.1970 -0.5424
 9647TIP3    H150356   2.021   4.116  13.238 -1.5922  0.1418  0.4522
 9647TIP3    H250357   1.961   4.221  13.148 -0.7496  0.6658  0.4925
 9648TIP3   OH250358   2.051   0.092  14.144 -0.1552 -0.7093 -0.2165
 9648TIP3    H150359   2.087   0.006  14.165  0.1432 -0.4785  0.2381
 9648TIP3    H250360   1.962   0.074  14.114 -0.0012 -1.1984 -0.3955
 9649TIP3   OH250361   6.154   4.386   0.898  0.1818 -0.1346 -0.3940
 9649TIP3    H150362   6.119   4.300   0.921  0.8777 -0.5981 -1.0251
 9649TIP3    H250363   6.081   4.431   0.856 -0.6142  0.1235  1.1788
 9650TIP3   OH250364   4.405   5.298   2.332  0.5557  0.2883 -0.2862
 9650TIP3    H150365   4.464   5.330   2.400  1.2841  0.0620 -0.7974
 9650TIP3    H250366   4.340   5.367   2.322  0.7589  0.5635  0.2573
 9651TIP3   OH250367   6.305   1.588   1.070 -0.2448 -0.0354 -0.4096
 9651TIP3    H150368   6.389   1.626   1.096 -0.6793  0.5598  0.1698
 9651TIP3    H250369   6.271   1.548   1.150 -0.6879  0.0628 -0.5439
 9652TIP3   OH250370   3.105   5.580   4.401  0.2909  0.5855 -0.4662
 9652TIP3    H150371   3.137   5.569   4.491  1.4473  0.7466 -0.8327
 9652TIP3    H250372   3.047   5.656   4.405 -0.3892  0.0319  0.3116
 9653TIP3   OH250373   5.293   1.743   4.676 -0.1030  0.5116  0.0094
 9653TIP3    H150374   5.222   1.713   4.733  0.1928  0.4295  0.3394
 9653TIP3    H250375   5.250   1.764   4.593 -0.3718 -0.5434 -0.1328
 9654TIP3   OH250376   5.822   6.744  12.510 -0.0033 -0.1004  0.1124
 9654TIP3    H150377   5.870   6.797  12.574 -1.8287 -0.1508  1.6368
 9654TIP3    H250378   5.839   6.654  12.536 -1.2514 -0.1137  0.9978
 9655TIP3   OH250379   2.108   1.048  11.243 -0.3225 -0.0135 -0.0647
 9655TIP3    H150380   2.186   1.091  11.278 -0.4859  0.2323  0.0029
 9655TIP3    H250381   2.039   1.114  11.250  0.0892  0.8405 -2.8466
 9656TIP3   OH250382   4.337   3.999  15.745  0.4222 -0.1359 -0.2704
 9656TIP3    H150383   4.348   4.067  15.811 -2.1626  2.8953 -2.6433
 9656TIP3    H250384   4.374   4.037  15.665 -0.9488 -1.6055 -1.6635
 9657TIP3   OH250385   4.453   0.484  10.732 -0.3954 -0.2414 -0.2775
 9657TIP3    H150386   4.385   0.507  10.796 -2.1446  1.8543 -2.6991
 9657TIP3    H250387   4.409   0.425  10.671  0.2535  0.3599 -1.3423
 9658TIP3   OH250388   0.636   5.964  10.672  0.5984 -0.4704 -0.2563
 9658TIP3    H150389   0.603   6.042  10.718 -1.1981 -2.1339  1.4508
 9658TIP3    H250390   0.573   5.951  10.601 -1.2250 -2.2588  1.5542
 9659TIP3   OH250391   0.002   6.208  17.053  0.3679  0.4534 -0.0073
 9659TIP3    H150392   0.024   6.120  17.084  3.1044  0.7476 -0.8415
 9659TIP3    H250393  -0.033   6.253  17.130  0.1535 -0.9687  0.7553
 9660TIP3   OH250394   1.966   2.056   0.023  1.0250  0.6971 -0.1698
 9660TIP3    H150395   1.944   2.071  -0.069 -1.6799  0.0041  0.2737
 9660TIP3    H250396   1.935   2.134   0.068  0.3175  0.1086  0.3893
 9661TIP3   OH250397   5.877   3.886   0.341 -0.0868  0.5606  0.0072
 9661TIP3    H150398   5.840   3.852   0.422 -0.6149  2.0110  0.4001
 9661TIP3    H250399   5.913   3.809   0.297 -1.2919 -0.5068  0.8169
 9662TIP3   OH250400   5.810   5.125   3.967 -0.3296  0.2310 -0.3406
 9662TIP3    H150401   5.804   5.046   3.914  0.6781  0.9732 -1.5909
 9662TIP3    H250402   5.873   5.181   3.922  0.5424  0.9185  1.6161
 9663TIP3   OH250403   3.596   3.778  10.798  0.3699 -0.1275 -0.5613
 9663TIP3    H150404   3.680   3.787  10.754  0.5375  0.6728 -0.0953
 9663TIP3    H250405   3.554   3.864  10.787  0.0972 -0.1584  0.1756
 9664TIP3   OH250406   3.086   2.203   5.753  0.2658  0.3944  0.6532
 9664TIP3    H150407   3.108   2.112   5.731 -1.6997 -0.1614  0.7196
 9664TIP3    H250408   3.077   2.202   5.849 -0.3835  0.4747  0.5996
 9665TIP3   OH250409   0.690   0.599   1.063  0.0743 -0.3743  0.0801
 9665TIP3    H150410   0.707   0.648   0.982 -0.7507  0.6486  0.5085
 9665TIP3    H250411   0.771   0.550   1.078  0.7554  0.4959 -0.6185
 9666TIP3   OH250412   3.293   5.036  12.670 -0.4811  0.5225  0.0629
 9666TIP3    H150413   3.346   5.115  12.662 -0.0208  0.3246  0.9747
 9666TIP3    H250414   3.278   5.007  12.580  0.8362  0.6634 -0.2260
 9667TIP3   OH250415   1.225   5.278  15.683 -0.0620 -0.1015  0.0454
 9667TIP3    H150416   1.201   5.197  15.639  0.5533 -1.1000  1.4672
 9667TIP3    H250417   1.151   5.337  15.666 -0.9433 -1.2447 -0.2547
 9668TIP3   OH250418   5.165   3.773   3.669 -0.1491 -0.2800 -0.3415
 9668TIP3    H150419   5.235   3.709   3.653  1.0808  0.7110  0.7691
 9668TIP3    H250420   5.094   3.746   3.612 -0.1278 -3.3144  0.8896
 9669TIP3   OH250421   5.769   0.091   0.100 -0.5982 -0.2298  0.0345
 9669TIP3    H150422   5.716   0.047   0.166 -2.5389  0.5461 -0.9324
 9669TIP3    H250423   5.736   0.058   0.017  0.8288 -0.1265 -0.5943
 9670TIP3   OH250424   4.758   5.740  13.155  0.6331 -0.0879  0.3347
 9670TIP3    H150425   4.722   5.781  13.076  1.3564 -0.0809  0.0061
 9670TIP3    H250426   4.796   5.658  13.125  3.6399  1.2766  0.0985
 9671TIP3   OH250427   5.106   4.444   5.924  1.0841 -0.2156 -0.5365
 9671TIP3    H150428   5.067   4.515   5.975  4.4595  1.6165 -0.1740
 9671TIP3    H250429   5.185   4.420   5.973 -0.6045 -5.5558  0.2421
 9672TIP3   OH250430   6.468   0.731  11.060 -0.6101  0.1014 -0.3756
 9672TIP3    H150431   6.374   0.735  11.046 -0.6462 -0.7049 -0.4277
 9672TIP3    H250432   6.502   0.690  10.981 -0.2060  0.4862 -0.4014
 9673TIP3   OH250433   4.127   4.851   1.589 -0.1513  0.6163 -0.1408
 9673TIP3    H150434   4.107   4.880   1.500  0.2416 -3.5181 -1.7829
 9673TIP3    H250435   4.213   4.811   1.583 -0.7493 -1.1081  1.7120
 9674TIP3   OH250436   3.890   1.763  13.165  0.6496  0.0723  0.2575
 9674TIP3    H150437   3.928   1.771  13.078 -1.0215 -0.5087 -0.5827
 9674TIP3    H250438   3.961   1.730  13.220  1.3332 -1.1249 -1.2578
 9675TIP3   OH250439   4.042   1.182  11.600  0.3746  0.0810  0.1978
 9675TIP3    H150440   3.960   1.176  11.551  0.4841 -1.2930  0.1471
 9675TIP3    H250441   4.089   1.254  11.559 -0.9868  1.1961  0.5238
 9676TIP3   OH250442   3.444   3.010   4.553 -0.2951  0.3854 -0.2697
 9676TIP3    H150443   3.440   2.960   4.472 -1.3403 -1.6168  0.9255
 9676TIP3    H250444   3.353   3.012   4.584  0.0346  1.3930  0.6935
 9677TIP3   OH250445   6.573   5.365  15.552 -0.5491  0.1612 -0.4214
 9677TIP3    H150446   6.605   5.376  15.642 -2.7805 -2.1682  0.7594
 9677TIP3    H250447   6.523   5.445  15.535  1.2931  1.4129 -0.3350
 9678TIP3   OH250448   0.009   1.032  14.593  0.1351 -0.1072 -0.2007
 9678TIP3    H150449  -0.085   1.038  14.575 -0.0512 -0.2753  0.6801
 9678TIP3    H250450   0.015   0.975  14.670  0.8579  1.0824  0.6447
 9679TIP3   OH250451   6.046   5.872  10.721  0.3562 -0.8961  0.0755
 9679TIP3    H150452   6.133   5.879  10.762  1.2243  0.4983 -1.8668
 9679TIP3    H250453   6.003   5.955  10.742 -0.0449 -1.0886  0.0147
 9680TIP3   OH250454   6.594   2.127   4.806 -0.1162 -0.2049 -0.2940
 9680TIP3    H150455   6.669   2.177   4.775  0.2381 -0.7949 -0.4098
 9680TIP3    H250456   6.530   2.193   4.832  1.2214  0.3895  1.7886
 9681TIP3   OH250457   1.747   4.086  16.374  0.0521 -0.6508  0.1931
 9681TIP3    H150458   1.785   4.021  16.433  1.0743  0.4249  0.7695
 9681TIP3    H250459   1.784   4.169  16.403 -1.1877  0.2004 -0.5427
 9682TIP3   OH250460   6.214   3.140   2.751 -0.5049 -0.7103  0.0687
 9682TIP3    H150461   6.262   3.207   2.800 -1.2627  1.0748 -1.5058
 9682TIP3    H250462   6.279   3.105   2.689  0.3422 -2.6850  1.9482
 9683TIP3   OH250463   0.183   6.516  12.130 -0.2758 -0.0381 -0.0712
 9683TIP3    H150464   0.118   6.487  12.065 -1.7146 -0.8347  1.6399
 9683TIP3    H250465   0.254   6.452  12.122 -1.6491 -1.8053  0.9218
 9684TIP3   OH250466   5.617   0.057  13.669 -0.1413  0.5091 -0.5471
 9684TIP3    H150467   5.590  -0.015  13.726 -2.0875  0.6724 -1.2105
 9684TIP3    H250468   5.701   0.029  13.633 -0.1216 -0.7271  0.4112
 9685TIP3   OH250469   4.205   3.668   1.898 -0.3959  0.2913  0.9681
 9685TIP3    H150470   4.152   3.589   1.886  0.1392 -0.2148  1.8544
 9685TIP3    H250471   4.296   3.637   1.896  0.0351  1.3839 -2.4141
 9686TIP3   OH250472   5.879   0.895   6.264 -0.0995  0.2179  0.6101
 9686TIP3    H150473   5.967   0.915   6.231 -0.0859  0.1512  0.6043
 9686TIP3    H250474   5.833   0.978   6.263  0.3101  0.4700  1.6951
 9687TIP3   OH250475   3.141   4.458  11.196  0.2444 -0.2014 -0.1708
 9687TIP3    H150476   3.078   4.391  11.171 -0.3595  0.7933 -1.3981
 9687TIP3    H250477   3.208   4.410  11.245 -1.0592 -1.4048  0.5207
 9688TIP3   OH250478   0.338   0.065  12.599  0.1005  0.2684  0.0649
 9688TIP3    H150479   0.355   0.058  12.505  0.6259 -1.2824  0.2407
 9688TIP3    H250480   0.260   0.120  12.606 -1.5745 -1.7285 -1.4579
 9689TIP3   OH250481   1.063   4.320  11.012  0.1309 -0.3576  0.5932
 9689TIP3    H150482   1.128   4.256  10.983 -0.7345 -1.2386  0.5597
 9689TIP3    H250483   0.988   4.306  10.953  0.5628  1.9080 -0.6040
 9690TIP3   OH250484   0.620   0.153  16.190  0.7856 -0.4815 -0.5703
 9690TIP3    H150485   0.676   0.226  16.215 -1.3376  0.3775  2.1697
 9690TIP3    H250486   0.590   0.117  16.273 -2.6547 -0.8819 -1.8396
 9691TIP3   OH250487   2.325   6.635  11.588 -0.0890 -0.2525 -0.1033
 9691TIP3    H150488   2.383   6.701  11.550 -0.9606 -1.5211 -4.1613
 9691TIP3    H250489   2.251   6.685  11.623 -0.3725  1.0759 -2.3910
 9692TIP3   OH250490   1.906   4.735  16.925 -0.1113  0.3806 -0.2547
 9692TIP3    H150491   1.845   4.754  16.995 -0.3891 -2.2643  0.3297
 9692TIP3    H250492   1.900   4.811  16.866 -1.5973  1.5908  1.3585
 9693TIP3   OH250493   5.857   5.392  14.199 -0.3203  0.4024  0.1432
 9693TIP3    H150494   5.843   5.358  14.287  1.3005 -1.4892 -0.2540
 9693TIP3    H250495   5.778   5.369  14.151 -0.7496  0.4613  0.8116
 9694TIP3   OH250496   4.220   2.453   3.778 -0.4711 -0.1440  0.0287
 9694TIP3    H150497   4.191   2.365   3.754  2.0806 -1.2467  0.5790
 9694TIP3    H250498   4.199   2.507   3.702 -0.9106 -1.5155 -0.8744
 9695TIP3   OH250499   3.505   0.303   1.095 -0.5177 -0.0498  0.5328
 9695TIP3    H150500   3.445   0.281   1.024  1.3239  1.7295 -1.7243
 9695TIP3    H250501   3.572   0.235   1.093  0.7665  1.2126 -1.0177
 9696TIP3   OH250502   3.015   2.586  16.343  0.1150  0.5535 -0.5007
 9696TIP3    H150503   3.048   2.672  16.319 -0.8830  0.4683 -2.4128
 9696TIP3    H250504   2.931   2.579  16.297 -0.7975 -0.6505  1.2477
 9697TIP3   OH250505   1.533   4.794  12.980  0.0087 -0.0658  0.2444
 9697TIP3    H150506   1.489   4.856  13.038  0.9914  1.5192 -0.6368
 9697TIP3    H250507   1.584   4.738  13.039  0.9625  1.4797  0.9445
 9698TIP3   OH250508   4.304   6.370   2.322 -0.0267  0.0383 -0.4603
 9698TIP3    H150509   4.369   6.403   2.384  1.3750 -3.0946 -0.0708
 9698TIP3    H250510   4.355   6.322   2.257 -1.8134 -1.2462 -1.0072
 9699TIP3   OH250511   1.195   5.245  12.154  0.0964  0.1802  0.5047
 9699TIP3    H150512   1.136   5.173  12.178  2.2733 -1.1533  2.2933
 9699TIP3    H250513   1.271   5.201  12.116  0.8848  1.6526  0.3134
 9700TIP3   OH250514   3.422   2.756  16.263  0.2481  0.4029 -0.5283
 9700TIP3    H150515   3.450   2.709  16.342 -1.2143 -0.2389 -0.3599
 9700TIP3    H250516   3.503   2.768  16.213  0.8296 -1.5137 -0.1604
 9701TIP3   OH250517   6.627   0.007  11.417  0.5681  0.5507 -0.0478
 9701TIP3    H150518   6.625   0.060  11.497  0.1465 -0.1609  0.4312
 9701TIP3    H250519   6.537   0.007  11.386  0.1515 -1.4126  1.0165
 9702TIP3   OH250520   2.481   5.605  14.873  0.0565 -0.6425  0.0329
 9702TIP3    H150521   2.427   5.684  14.864 -0.1021 -0.6729  0.6430
 9702TIP3    H250522   2.490   5.593  14.968 -2.0640 -2.8011  0.0407
 9703TIP3   OH250523   5.973   4.242  15.369  0.3144 -0.2863  0.0615
 9703TIP3    H150524   6.055   4.257  15.322  0.6574 -0.8860  0.4600
 9703TIP3    H250525   5.914   4.309  15.334  1.3100  0.9474  0.6298
 9704TIP3   OH250526   1.343   2.036  11.598 -0.3832  0.5090  0.4034
 9704TIP3    H150527   1.422   2.039  11.543 -0.8784  0.9392 -0.3000
 9704TIP3    H250528   1.271   2.049  11.537 -0.9524  0.8929  1.1426
 9705TIP3   OH250529   3.328   3.245  15.716 -0.3007  0.0728  0.0915
 9705TIP3    H150530   3.296   3.283  15.798  3.9087 -0.3142  2.1929
 9705TIP3    H250531   3.349   3.321  15.661 -0.0031  0.5047  0.7823
 9706TIP3   OH250532   5.215   0.820  15.742  0.2127  0.0133 -0.1764
 9706TIP3    H150533   5.264   0.892  15.702  1.9952 -1.3326 -0.5131
 9706TIP3    H250534   5.136   0.862  15.776  1.7806  2.3915  0.8247
 9707TIP3   OH250535   3.080   1.380   5.048 -0.0507  0.2178  0.0194
 9707TIP3    H150536   3.077   1.462   5.097  2.9476  0.5649 -0.2122
 9707TIP3    H250537   3.141   1.397   4.976 -0.2498 -1.8891 -0.7157
 9708TIP3   OH250538   2.696   4.052   0.077  0.0358 -0.1063 -0.1283
 9708TIP3    H150539   2.651   4.040  -0.007 -2.1307 -0.6931  1.0207
 9708TIP3    H250540   2.765   3.986   0.077  1.4440  1.2628 -2.2546
 9709TIP3   OH250541   4.116   2.588   5.007  0.1888  0.3566 -0.1541
 9709TIP3    H150542   4.044   2.594   4.945 -0.2068  0.7865  0.3394
 9709TIP3    H250543   4.195   2.597   4.954 -0.0810 -0.8795 -0.8044
 9710TIP3   OH250544   3.525   2.128   1.612 -0.6115  0.0737 -0.6432
 9710TIP3    H150545   3.500   2.040   1.640 -0.7874  0.3071 -0.0507
 9710TIP3    H250546   3.591   2.155   1.676  1.8637 -0.8612 -2.6537
 9711TIP3   OH250547   5.443   4.474   4.456  0.5654  0.0968  0.0224
 9711TIP3    H150548   5.439   4.466   4.360  0.1012  2.3263 -0.2126
 9711TIP3    H250549   5.530   4.511   4.472 -0.1710  1.8297  0.2163
 9712TIP3   OH250550   5.801   1.436   2.908 -0.3342 -0.2320 -0.3905
 9712TIP3    H150551   5.742   1.502   2.944  1.4086  1.0891  0.1610
 9712TIP3    H250552   5.840   1.477   2.832  0.5417 -0.7394 -0.2303
 9713TIP3   OH250553   2.896   3.120  10.782 -0.1813  0.5464  0.1926
 9713TIP3    H150554   2.962   3.189  10.768  0.5847 -0.1872  0.1094
 9713TIP3    H250555   2.813   3.167  10.786  0.3387  1.4901  0.2290
 9714TIP3   OH250556   3.581   4.230   4.884  0.6299  0.4843 -0.2543
 9714TIP3    H150557   3.591   4.165   4.814  1.6559 -0.6417  0.8990
 9714TIP3    H250558   3.552   4.180   4.960  1.7477  1.2909  0.7537
 9715TIP3   OH250559   0.702   5.880  11.915  0.1599  0.2195 -0.0283
 9715TIP3    H150560   0.687   5.969  11.883 -0.2499  0.5024  0.9220
 9715TIP3    H250561   0.631   5.828  11.877 -0.5728  0.6378  0.7363
 9716TIP3   OH250562   2.619   3.897  15.698  0.2997 -0.3559 -0.9887
 9716TIP3    H150563   2.691   3.916  15.638 -0.1756 -0.3495 -1.5632
 9716TIP3    H250564   2.640   3.947  15.777  1.2513 -0.8506 -0.9069
 9717TIP3   OH250565   1.134   1.828  10.368 -0.6198  0.0224  0.5028
 9717TIP3    H150566   1.080   1.814  10.290 -0.7282 -2.9520  0.9894
 9717TIP3    H250567   1.190   1.902  10.345 -1.1349 -0.2858 -2.1126
 9718TIP3   OH250568   0.967   5.562   5.976  0.5895  0.2941  0.1308
 9718TIP3    H150569   0.899   5.523   6.032  1.6602 -1.0967  0.5235
 9718TIP3    H250570   1.024   5.488   5.952  2.1987  1.4592  0.1689
 9719TIP3   OH250571   1.694   6.613  11.245 -0.4259 -0.4567  0.0968
 9719TIP3    H150572   1.773   6.650  11.205  0.0568 -0.1627  1.2828
 9719TIP3    H250573   1.703   6.518  11.233  0.7591 -0.5257  1.3497
 9720TIP3   OH250574   4.209   2.817  16.927  0.0226  0.0636  0.2675
 9720TIP3    H150575   4.121   2.855  16.926 -0.4503 -0.9753 -0.9309
 9720TIP3    H250576   4.223   2.790  17.018 -0.8210  0.4059  0.5053
 9721TIP3   OH250577   5.496   2.905   3.916  0.1298  0.0062  0.0576
 9721TIP3    H150578   5.581   2.930   3.879  0.7496  0.9708  2.0338
 9721TIP3    H250579   5.432   2.953   3.863  0.9943  1.4410  0.2560
 9722TIP3   OH250580   6.482   1.257  12.666 -0.1778 -0.2055 -0.4070
 9722TIP3    H150581   6.419   1.206  12.717 -2.0230  3.8188  1.7960
 9722TIP3    H250582   6.437   1.274  12.583 -1.5748  1.5342  0.6419
 9723TIP3   OH250583   1.820   0.681   4.328  0.8189  0.0111  0.0603
 9723TIP3    H150584   1.837   0.658   4.236  0.9502  0.2714  0.0187
 9723TIP3    H250585   1.764   0.611   4.360 -0.1234  0.4797 -0.5182
 9724TIP3   OH250586   3.881   0.902   1.532 -0.2701  0.0430  0.0974
 9724TIP3    H150587   3.956   0.858   1.491  0.3483  0.4860  0.7407
 9724TIP3    H250588   3.878   0.988   1.489 -1.7832 -0.7596 -1.5214
 9725TIP3   OH250589   1.657   3.430  15.843  0.2190  0.6343  0.3759
 9725TIP3    H150590   1.745   3.428  15.880  0.2604 -0.2036  0.2583
 9725TIP3    H250591   1.605   3.477  15.909  0.1391 -1.4864  1.9291
 9726TIP3   OH250592   6.043   5.335   0.389 -0.4084  0.3955  0.1877
 9726TIP3    H150593   6.017   5.243   0.391  1.6790 -0.2495 -0.0686
 9726TIP3    H250594   6.040   5.358   0.297  0.1791  0.2150  0.1162
 9727TIP3   OH250595   0.911   1.428   2.271  0.1534  0.8165  0.1933
 9727TIP3    H150596   0.975   1.382   2.216 -0.4115 -0.3195  0.4570
 9727TIP3    H250597   0.883   1.362   2.335 -0.1625  1.7433  1.0250
 9728TIP3   OH250598   1.434   4.400  14.983  0.0157  0.7411  0.3335
 9728TIP3    H150599   1.443   4.455  15.061  1.4629  0.3958  0.4487
 9728TIP3    H250600   1.400   4.316  15.016 -2.0687  1.4790  0.1754
 9729TIP3   OH250601   3.635   2.573   4.141 -0.5834 -0.2202 -0.2760
 9729TIP3    H150602   3.638   2.661   4.178 -1.3654  0.1018 -0.9318
 9729TIP3    H250603   3.709   2.527   4.180  0.7625  1.1837 -1.0943
 9730TIP3   OH250604   4.069   5.602   3.598 -0.2206  0.1865 -0.4219
 9730TIP3    H150605   4.006   5.556   3.541 -0.3487 -2.1877  1.4825
 9730TIP3    H250606   4.145   5.617   3.542 -0.4525 -1.8109 -1.3651
 9731TIP3   OH250607   2.913   3.531  12.044  0.0323 -0.4125  0.2656
 9731TIP3    H150608   2.989   3.520  12.101 -0.4675 -0.4350  0.9452
 9731TIP3    H250609   2.948   3.570  11.964  0.8701 -1.1423  0.2700
 9732TIP3   OH250610   1.669   2.752  16.410  0.3756 -0.1252 -0.0747
 9732TIP3    H150611   1.753   2.706  16.407  1.0321  0.9827  0.4466
 9732TIP3    H250612   1.623   2.714  16.485 -0.5029 -2.1710 -1.5519
 9733TIP3   OH250613   2.034   1.585   3.389  0.7121 -0.2245 -0.2071
 9733TIP3    H150614   2.090   1.638   3.444 -0.6566  0.9114  0.1572
 9733TIP3    H250615   2.092   1.519   3.351  2.0564  0.2381  0.9753
 9734TIP3   OH250616   4.190   5.268   3.087  0.1954 -0.2215  0.2599
 9734TIP3    H150617   4.191   5.178   3.119 -0.2187 -0.5596 -0.6537
 9734TIP3    H250618   4.273   5.305   3.118  0.4311 -0.9529  0.5285
 9735TIP3   OH250619   5.486   4.213   3.723  0.1145  0.0709 -0.4286
 9735TIP3    H150620   5.432   4.289   3.702  0.5311 -0.4719 -4.1705
 9735TIP3    H250621   5.555   4.248   3.780 -1.0581  1.9334 -0.0664
 9736TIP3   OH250622   4.053   5.307  11.517  0.1591  0.2858 -0.1205
 9736TIP3    H150623   3.999   5.356  11.456  0.2699 -0.9158 -1.2195
 9736TIP3    H250624   4.038   5.215  11.495  0.7222 -0.1554  1.2125
 9737TIP3   OH250625   4.208   6.224  16.981  0.2500  0.1946  0.2677
 9737TIP3    H150626   4.155   6.240  16.903 -0.6025 -1.7598  0.3967
 9737TIP3    H250627   4.294   6.201  16.947  0.2274  0.5851 -0.0566
 9738TIP3   OH250628   0.866   1.898  16.989 -0.2528 -0.4275  0.2829
 9738TIP3    H150629   0.908   1.941  17.063 -3.2052  1.5956  0.9580
 9738TIP3    H250630   0.865   1.964  16.920  3.2609 -2.5501 -2.1189
 9739TIP3   OH250631   4.334   1.724   4.194 -0.3947 -0.1474 -0.4957
 9739TIP3    H150632   4.251   1.759   4.161 -0.1081  0.5723 -0.4718
 9739TIP3    H250633   4.401   1.776   4.149  0.1199 -2.0282 -2.0228
 9740TIP3   OH250634   6.276   5.925   6.193 -0.2832  0.2667  0.9376
 9740TIP3    H150635   6.356   5.946   6.144  0.1542  1.5642  2.1422
 9740TIP3    H250636   6.280   5.830   6.206 -0.6574 -0.2438 -1.8703
 9741TIP3   OH250637   1.994   1.463  11.755  0.2010 -0.4414 -0.3074
 9741TIP3    H150638   2.044   1.482  11.834 -1.8247 -0.1806  0.9834
 9741TIP3    H250639   1.964   1.373  11.767 -0.7257 -0.1616 -0.3792
 9742TIP3   OH250640   0.352   5.910  14.878 -0.5308  0.0398 -0.5003
 9742TIP3    H150641   0.428   5.958  14.911  0.3110 -0.9719 -0.9523
 9742TIP3    H250642   0.384   5.822  14.860 -1.7043 -0.2791 -1.1331
 9743TIP3   OH250643   3.835   0.608  13.693  0.5880  0.4891 -0.8986
 9743TIP3    H150644   3.811   0.566  13.610  0.6222  1.7812 -1.5936
 9743TIP3    H250645   3.782   0.563  13.759 -0.1500  0.0676 -1.7614
 9744TIP3   OH250646   3.952   0.355  17.205 -0.5447  0.0751 -0.3495
 9744TIP3    H150647   3.928   0.436  17.161 -1.0399  0.9462  1.4563
 9744TIP3    H250648   3.902   0.355  17.286 -0.9722 -2.3188 -0.5260
 9745TIP3   OH250649   1.111   4.255  15.475 -0.2304  0.3637 -0.4962
 9745TIP3    H150650   1.028   4.242  15.430  0.8463  1.2845 -2.8934
 9745TIP3    H250651   1.123   4.350  15.476 -0.2445  0.3919  1.9093
 9746TIP3   OH250652   0.847   5.150  16.150 -0.1842 -0.3700  0.0945
 9746TIP3    H150653   0.818   5.196  16.229 -0.3063 -0.1199 -0.0947
 9746TIP3    H250654   0.832   5.058  16.169 -0.6837 -0.2753  0.1701
 9747TIP3   OH250655   0.209   0.984  13.664 -0.2216  0.7621  0.4734
 9747TIP3    H150656   0.161   1.034  13.598  0.8389  2.5731  1.0099
 9747TIP3    H250657   0.185   0.893  13.647 -0.5338  1.2335 -1.9377
 9748TIP3   OH250658   6.337   6.662  15.704  0.6523  0.0523 -0.0577
 9748TIP3    H150659   6.288   6.717  15.642  1.7015 -1.0579 -1.9669
 9748TIP3    H250660   6.271   6.610  15.747 -0.0625  0.2690 -0.8608
 9749TIP3   OH250661   0.521   6.729   3.812 -0.1833 -0.0378  0.1563
 9749TIP3    H150662   0.490   6.642   3.837  0.5725 -0.7013 -1.0744
 9749TIP3    H250663   0.549   6.770   3.894  1.5642 -1.8401  0.5516
 9750TIP3   OH250664   4.474   6.686   3.162 -0.1777  0.3569 -0.3039
 9750TIP3    H150665   4.381   6.664   3.164  0.1620 -1.1097  0.9960
 9750TIP3    H250666   4.482   6.748   3.089 -1.9034 -0.6149 -1.3846
 9751TIP3   OH250667   4.412   0.953   1.547 -0.4834 -0.5752 -0.4079
 9751TIP3    H150668   4.455   0.979   1.465 -0.7527 -0.1782 -0.4238
 9751TIP3    H250669   4.484   0.927   1.604 -0.1297  1.0484 -0.0828
 9752TIP3   OH250670   5.597   3.908   5.250 -0.0082  0.4700  0.4189
 9752TIP3    H150671   5.550   3.942   5.326  0.5493  1.0273  0.5159
 9752TIP3    H250672   5.638   3.827   5.282 -3.0989 -1.5761 -0.3745
 9753TIP3   OH250673   5.552   3.751  15.843  0.7048  0.3799 -0.1017
 9753TIP3    H150674   5.565   3.706  15.926  2.1578 -2.8612 -1.9199
 9753TIP3    H250675   5.474   3.805  15.857 -2.0940 -3.6890  1.9672
 9754TIP3   OH250676   2.560   6.030  11.598  0.5037 -0.9030  0.5890
 9754TIP3    H150677   2.560   6.123  11.620  1.9287 -1.1131  1.5769
 9754TIP3    H250678   2.596   6.026  11.509  2.6490 -0.6414  1.3932
 9755TIP3   OH250679   0.328   0.585  15.978  0.4825 -0.1434  0.1150
 9755TIP3    H150680   0.415   0.617  15.957  0.5706  1.0723  2.0674
 9755TIP3    H250681   0.342   0.501  16.021  0.9110  0.9198  2.1792
 9756TIP3   OH250682   4.010   3.556  16.107 -0.3080  0.3699 -0.5766
 9756TIP3    H150683   4.032   3.621  16.040 -3.6431  0.9028 -1.3080
 9756TIP3    H250684   4.016   3.604  16.189  1.2872  0.4090 -0.6794
 9757TIP3   OH250685   6.685   3.903   0.030 -0.7135  0.1865  0.4815
 9757TIP3    H150686   6.737   3.824   0.021 -0.9775 -0.1166  1.4591
 9757TIP3    H250687   6.712   3.959  -0.042 -0.1542 -0.5899  0.0857
 9758TIP3   OH250688   2.614   2.798   2.279  0.6802  0.2435 -0.0577
 9758TIP3    H150689   2.607   2.842   2.194  0.9545  0.6731  0.1386
 9758TIP3    H250690   2.529   2.812   2.320 -0.1117 -1.5538 -1.0093
 9759TIP3   OH250691   1.421   5.879   0.133 -0.0161 -0.2435 -0.5695
 9759TIP3    H150692   1.503   5.830   0.122 -0.5033 -1.0898 -0.4876
 9759TIP3    H250693   1.442   5.968   0.104  1.1509 -0.2504  0.1777
 9760TIP3   OH250694   5.751   5.654  14.068 -0.6530 -0.1864 -0.0848
 9760TIP3    H150695   5.712   5.567  14.071 -0.5984 -0.2107 -0.0691
 9760TIP3    H250696   5.708   5.702  14.139  1.0977 -0.9644  1.6304
 9761TIP3   OH250697   2.198   5.275   4.738  0.3590  0.9468  0.2644
 9761TIP3    H150698   2.140   5.203   4.713  0.0253  0.7113  1.6430
 9761TIP3    H250699   2.156   5.353   4.703 -0.5977  0.7310  0.8955
 9762TIP3   OH250700   5.867   5.303  11.256 -0.4292 -0.2915  0.5541
 9762TIP3    H150701   5.894   5.237  11.192 -0.3826  0.7190 -0.5116
 9762TIP3    H250702   5.821   5.369  11.204  1.1103  1.4300  1.2711
 9763TIP3   OH250703   4.047   5.373   2.273  0.2819 -0.2208  0.3217
 9763TIP3    H150704   4.059   5.385   2.178 -0.8077 -0.6433  0.1219
 9763TIP3    H250705   3.961   5.332   2.281 -0.0253  0.6135  1.5501
 9764TIP3   OH250706   4.182   2.901   0.635 -0.1148 -0.1615 -0.4972
 9764TIP3    H150707   4.176   2.836   0.565 -1.4139 -0.5538 -0.0540
 9764TIP3    H250708   4.124   2.972   0.608  1.1776  0.7775 -0.9065
 9765TIP3   OH250709   0.233   5.803  15.247 -0.2632 -0.0099  0.0011
 9765TIP3    H150710   0.212   5.710  15.249  0.0417 -0.0666  1.4185
 9765TIP3    H250711   0.328   5.807  15.255  0.0471  0.3717 -2.8111
 9766TIP3   OH250712   1.167   5.267   2.754  0.2862 -0.8430 -0.2000
 9766TIP3    H150713   1.184   5.352   2.793  0.4478  0.1692 -2.3000
 9766TIP3    H250714   1.115   5.220   2.819  0.1292  0.8750  0.9763
 9767TIP3   OH250715   0.578   2.116   9.198  0.1644  0.1490 -0.1901
 9767TIP3    H150716   0.550   2.044   9.141 -1.2631 -0.5723  1.3488
 9767TIP3    H250717   0.501   2.173   9.204  0.8414  1.0915 -0.2775
 9768TIP3   OH250718   4.038   4.479  16.430  0.0061 -0.2108  0.1607
 9768TIP3    H150719   4.001   4.521  16.508  1.2005 -1.1382  1.2862
 9768TIP3    H250720   3.963   4.452  16.378 -0.8629 -0.5614  1.5518
 9769TIP3   OH250721   2.321   5.207  14.707 -0.4033  0.4602  0.0605
 9769TIP3    H150722   2.403   5.251  14.685 -0.1454 -0.4238 -0.7986
 9769TIP3    H250723   2.296   5.245  14.791  1.5750 -0.1980  1.0224
 9770TIP3   OH250724   2.047   3.201   4.823 -0.4097  0.0895  0.3845
 9770TIP3    H150725   2.092   3.211   4.740  0.2101 -0.2068  0.6751
 9770TIP3    H250726   1.993   3.122   4.812 -1.6462  0.9982 -0.2978
 9771TIP3   OH250727   2.875   0.431  14.671 -0.1205  0.0672 -0.3444
 9771TIP3    H150728   2.867   0.412  14.765 -0.0447 -0.3143 -0.4115
 9771TIP3    H250729   2.843   0.520  14.662  1.3748  0.7035  0.2913
 9772TIP3   OH250730   6.150   4.429  11.938 -0.9901 -0.0705 -0.4760
 9772TIP3    H150731   6.082   4.460  11.879 -0.3740  1.5971 -0.3475
 9772TIP3    H250732   6.106   4.419  12.023 -0.9364  1.7829 -0.1984
 9773TIP3   OH250733   5.038   0.933   5.558  0.2953 -0.4011  0.2549
 9773TIP3    H150734   5.013   0.909   5.647 -0.6694 -0.0038  0.1077
 9773TIP3    H250735   4.957   0.921   5.507  0.6086  0.2154 -0.3993
 9774TIP3   OH250736   5.157   4.557   5.633  0.3942 -0.2117  0.2892
 9774TIP3    H150737   5.113   4.546   5.717 -1.2328  0.1731 -0.4754
 9774TIP3    H250738   5.222   4.625   5.648  0.5068 -0.5475  1.3677
 9775TIP3   OH250739   6.135   4.243   2.773  0.7531  0.2778 -0.7135
 9775TIP3    H150740   6.123   4.229   2.867  2.1655 -1.0066 -0.6889
 9775TIP3    H250741   6.183   4.326   2.767  2.7399 -0.7695 -0.1207
 9776TIP3   OH250742   4.512   4.291   4.490  0.5406  0.4615  0.5248
 9776TIP3    H150743   4.517   4.239   4.570 -0.2828 -1.0453 -0.3416
 9776TIP3    H250744   4.601   4.324   4.476  1.0648 -0.6386  1.1755
 9777TIP3   OH250745   1.401   6.362  15.286  0.1950 -0.4536 -0.0449
 9777TIP3    H150746   1.352   6.347  15.205 -1.2294  0.1924  0.6425
 9777TIP3    H250747   1.385   6.283  15.339  0.1410 -0.3759  0.0570
 9778TIP3   OH250748   4.989   0.962  15.827 -0.3435 -0.1992 -0.0408
 9778TIP3    H150749   4.959   0.984  15.915 -0.0942  0.5256 -0.1350
 9778TIP3    H250750   4.940   1.020  15.769  0.0767 -0.1184 -0.3179
 9779TIP3   OH250751   2.576   0.173  14.549  0.2610  0.2020  0.1354
 9779TIP3    H150752   2.545   0.132  14.469 -3.0967 -0.1975  1.4933
 9779TIP3    H250753   2.558   0.109  14.618 -1.4058  2.2850  1.7903
 9780TIP3   OH250754   1.181   6.775  13.379  0.2401  0.0280  0.3327
 9780TIP3    H150755   1.116   6.804  13.443  0.4014 -0.3781  0.6877
 9780TIP3    H250756   1.258   6.828  13.397  0.5302 -0.5958  0.9702
 9781TIP3   OH250757   5.052   4.933  13.619 -0.0361 -0.1868 -0.6046
 9781TIP3    H150758   5.088   4.996  13.557  0.8760 -1.6525 -1.6059
 9781TIP3    H250759   4.984   4.982  13.666 -1.5047  0.6976 -3.4655
 9782TIP3   OH250760   5.716   2.647   3.170  0.2402  0.2344  0.5444
 9782TIP3    H150761   5.685   2.558   3.180  0.0950 -0.0651 -1.8733
 9782TIP3    H250762   5.812   2.640   3.174  0.2380 -0.0858  0.1021
 9783TIP3   OH250763   6.575   1.676  12.610 -0.2907 -0.3133  0.1331
 9783TIP3    H150764   6.601   1.604  12.668  0.9571  0.5043  0.6227
 9783TIP3    H250765   6.576   1.637  12.522 -0.2116 -1.0437  0.4504
 9784TIP3   OH250766   2.983   6.643  17.113 -0.3353 -0.0344 -0.0342
 9784TIP3    H150767   2.965   6.567  17.168  1.2972 -0.6139 -0.2542
 9784TIP3    H250768   2.965   6.612  17.024  1.0272 -0.4201 -0.1951
 9785TIP3   OH250769   3.799   1.622   1.216  0.1119 -0.1532  0.1233
 9785TIP3    H150770   3.827   1.678   1.144 -1.2330  0.9165  0.3847
 9785TIP3    H250771   3.738   1.677   1.267  1.0298 -0.8581  2.0873
 9786TIP3   OH250772   3.863   0.471   2.881  0.0249 -0.0841 -0.2424
 9786TIP3    H150773   3.778   0.484   2.923 -0.1831  0.0895 -0.7120
 9786TIP3    H250774   3.922   0.530   2.927 -0.3339  0.5572 -0.6014
 9787TIP3   OH250775   3.021   5.723  12.646  0.4980 -0.7415 -0.8669
 9787TIP3    H150776   3.115   5.739  12.647  0.3685  0.0468  0.2174
 9787TIP3    H250777   2.986   5.784  12.711 -0.7252 -1.2593 -1.0251
 9788TIP3   OH250778   5.895   0.328   2.909 -0.3164  0.1593  0.2311
 9788TIP3    H150779   5.873   0.353   2.998 -0.4998  1.2653 -0.1097
 9788TIP3    H250780   5.991   0.330   2.907 -0.3153  0.2729  0.3683
 9789TIP3   OH250781   0.196   6.630  15.168 -0.5928  0.0867  0.0513
 9789TIP3    H150782   0.224   6.634  15.259  1.4331 -0.3629 -0.4997
 9789TIP3    H250783   0.109   6.670  15.168 -0.6183  0.1513  2.1528
 9790TIP3   OH250784   1.414   2.882  14.668 -0.4846  0.0933 -0.0910
 9790TIP3    H150785   1.444   2.934  14.743 -0.9741  0.8134 -0.3782
 9790TIP3    H250786   1.435   2.792  14.691  0.9306  0.4615  0.1656
 9791TIP3   OH250787   2.237   4.538   2.044 -0.5750 -0.4559  0.2216
 9791TIP3    H150788   2.315   4.484   2.059 -0.7774 -0.4373  1.3698
 9791TIP3    H250789   2.202   4.505   1.961  0.7045 -0.3906 -0.3794
 9792TIP3   OH250790   3.978   5.744  11.446 -0.0509  0.2663 -0.6657
 9792TIP3    H150791   3.919   5.802  11.493 -0.6688 -0.3551 -0.6629
 9792TIP3    H250792   4.003   5.795  11.368  0.4097  1.0144 -0.0446
 9793TIP3   OH250793   1.308   1.349   4.096  0.2615 -0.6263  0.3381
 9793TIP3    H150794   1.359   1.268   4.099  2.0538  0.1770 -3.0242
 9793TIP3    H250795   1.315   1.378   4.005 -4.0573  1.0342  0.3233
 9794TIP3   OH250796   5.247   2.381   3.562 -0.2145 -0.3220 -0.0980
 9794TIP3    H150797   5.239   2.383   3.657  1.0762 -3.1184  0.1700
 9794TIP3    H250798   5.159   2.359   3.531 -0.3287 -0.8358  0.5740
 9795TIP3   OH250799   4.097   5.189   5.564 -0.2014  0.6621  0.1433
 9795TIP3    H150800   4.164   5.213   5.501  0.2320 -0.1662  0.2690
 9795TIP3    H250801   4.138   5.202   5.650  0.1350 -0.6959  0.2123
 9796TIP3   OH250802   6.588   5.854   1.130  0.1656 -0.0864 -0.6780
 9796TIP3    H150803   6.599   5.760   1.121 -0.6608 -0.0105 -3.2511
 9796TIP3    H250804   6.495   5.866   1.149  0.6595  0.1683  1.9387
 9797TIP3   OH250805   1.295   0.337  15.105 -0.3798  0.2884  0.8017
 9797TIP3    H150806   1.266   0.257  15.062  0.9693  1.4261 -2.5464
 9797TIP3    H250807   1.267   0.327  15.196  0.3729 -4.2409  0.7327
 9798TIP3   OH250808   2.188   5.117  11.176  0.1184 -0.3654  0.0666
 9798TIP3    H150809   2.255   5.185  11.187 -0.0327 -0.1521 -0.2947
 9798TIP3    H250810   2.168   5.088  11.265 -0.3717  0.6048  0.2841
 9799TIP3   OH250811   3.031   6.136  13.855  0.4270 -0.1039 -0.1515
 9799TIP3    H150812   3.064   6.100  13.937  0.1188 -0.5857 -0.2392
 9799TIP3    H250813   2.967   6.072  13.824  1.1461 -0.3487 -1.2005
 9800TIP3   OH250814   2.878   5.482   3.163  0.6595 -0.4244 -0.1506
 9800TIP3    H150815   2.860   5.464   3.256 -1.2434  0.7781 -0.2500
 9800TIP3    H250816   2.891   5.576   3.159  0.2547 -0.4033 -1.1686
 9801TIP3   OH250817   5.117   1.556  16.634 -0.0031  0.0713 -0.2173
 9801TIP3    H150818   5.187   1.605  16.678  0.0321  0.5102 -0.7534
 9801TIP3    H250819   5.059   1.623  16.599  0.0239 -0.2711 -0.9322
 9802TIP3   OH250820   3.904   1.065  14.345  0.5043  0.0058 -0.1266
 9802TIP3    H150821   3.939   1.117  14.272  2.1336 -0.8486 -0.0006
 9802TIP3    H250822   3.818   1.102  14.362  1.0002  1.6702 -1.0402
 9803TIP3   OH250823   4.978   3.875   0.678  0.2158  0.0374 -0.0870
 9803TIP3    H150824   4.977   3.823   0.758  1.0020  1.3460  0.7926
 9803TIP3    H250825   5.050   3.838   0.627 -0.2806 -0.7912 -0.2145
 9804TIP3   OH250826   2.601   3.231   3.600 -0.0186 -0.3435  0.4618
 9804TIP3    H150827   2.594   3.184   3.517  0.6142 -2.0898  1.3563
 9804TIP3    H250828   2.511   3.255   3.622 -0.3623 -1.1492 -0.0286
 9805TIP3   OH250829   0.502   2.543  11.799 -0.6502  0.3218 -0.2299
 9805TIP3    H150830   0.553   2.505  11.727 -1.1100  1.2947 -1.0884
 9805TIP3    H250831   0.420   2.494  11.799  0.5616 -1.9237  1.7823
 9806TIP3   OH250832   4.487   1.490   2.813 -0.5257  0.1892 -0.3245
 9806TIP3    H150833   4.571   1.484   2.768  0.1058  2.5623  0.3734
 9806TIP3    H250834   4.504   1.453   2.900 -0.3418  0.2019 -0.3543
 9807TIP3   OH250835   4.459   6.346   5.639 -0.1463  0.4687  0.5026
 9807TIP3    H150836   4.466   6.258   5.675 -0.7999 -0.1074 -0.7133
 9807TIP3    H250837   4.365   6.362   5.632 -0.0448  0.6023 -0.7808
 9808TIP3   OH250838   5.625   5.542   3.280 -0.0269  0.3853  0.2024
 9808TIP3    H150839   5.614   5.629   3.319  0.2710  0.4428  0.1610
 9808TIP3    H250840   5.660   5.559   3.193  0.5379  0.2011  0.3917
 9809TIP3   OH250841   3.459   4.363  13.551  0.5274  0.3088  0.3669
 9809TIP3    H150842   3.447   4.440  13.495  0.5002  0.5018  0.6366
 9809TIP3    H250843   3.411   4.384  13.631 -1.3614 -0.8874 -0.3743
 9810TIP3   OH250844   0.197   5.866   3.751  0.3845 -0.2738 -0.0055
 9810TIP3    H150845   0.219   5.832   3.665  0.7558 -0.1427  0.0361
 9810TIP3    H250846   0.282   5.882   3.793  0.2547 -2.7490  1.3554
 9811TIP3   OH250847   2.904   2.774   3.772 -0.1712  0.1070 -0.1072
 9811TIP3    H150848   2.822   2.791   3.820 -0.0808 -2.2334  0.9898
 9811TIP3    H250849   2.958   2.851   3.790 -0.6430 -0.0799  2.5619
 9812TIP3   OH250850   2.321   6.485  15.052  0.2752 -0.5381 -0.0042
 9812TIP3    H150851   2.245   6.491  15.109  0.8335 -1.2969  0.8355
 9812TIP3    H250852   2.339   6.391  15.046  0.6237 -0.4248 -0.9074
 9813TIP3   OH250853   5.537   6.223  13.764 -0.1897  0.1709 -0.4999
 9813TIP3    H150854   5.496   6.263  13.840 -0.1396  0.5278 -0.6543
 9813TIP3    H250855   5.489   6.141  13.750  0.5442 -0.4616  0.5919
 9814TIP3   OH250856   1.767   4.699  10.002 -0.0178 -0.1725 -0.2204
 9814TIP3    H150857   1.767   4.617  10.051 -0.3177  0.3210  0.6317
 9814TIP3    H250858   1.680   4.735  10.016  0.4957  0.8635  0.3997
 9815TIP3   OH250859   1.558   1.951  15.543  0.0462 -0.4389 -0.1175
 9815TIP3    H150860   1.514   1.894  15.606 -2.3019  0.9334 -0.4009
 9815TIP3    H250861   1.641   1.907  15.525 -0.7504 -2.6655  1.2325
 9816TIP3   OH250862   2.749   3.105   6.332 -0.7982 -0.7533  0.1854
 9816TIP3    H150863   2.706   3.127   6.414 -1.7474  1.4702 -0.8102
 9816TIP3    H250864   2.687   3.134   6.264  1.3136  0.5758 -1.3054
 9817TIP3   OH250865   5.057   1.099  11.791  0.0420  0.5321  0.1609
 9817TIP3    H150866   5.037   1.128  11.880 -0.9757  1.0984 -0.2293
 9817TIP3    H250867   5.052   1.003  11.796  0.0970  0.5514  0.7294
 9818TIP3   OH250868   4.856   3.674  10.805  0.3374 -0.4424  0.0039
 9818TIP3    H150869   4.932   3.690  10.748  0.5503 -1.8150 -0.1300
 9818TIP3    H250870   4.783   3.717  10.760  0.3942 -1.9542 -1.6213
 9819TIP3   OH250871   1.080   0.194  16.620 -0.3918 -0.2950 -0.2846
 9819TIP3    H150872   1.143   0.201  16.549  0.2101 -0.7688  0.1904
 9819TIP3    H250873   1.020   0.125  16.593  0.3611 -1.0960  0.0460
 9820TIP3   OH250874   5.274   5.459   4.768  0.3723 -0.2254 -0.2214
 9820TIP3    H150875   5.238   5.387   4.820  0.7418 -0.7023 -0.6048
 9820TIP3    H250876   5.304   5.523   4.832  0.1913 -0.4958  0.1351
 9821TIP3   OH250877   4.418   3.701  15.505  0.3803 -0.0478 -0.4627
 9821TIP3    H150878   4.438   3.607  15.506  0.4217 -0.0625 -1.4306
 9821TIP3    H250879   4.377   3.717  15.590  0.7622 -0.8520 -0.1099
 9822TIP3   OH250880   6.556   4.970   1.982  0.2736  0.2831 -0.4996
 9822TIP3    H150881   6.563   4.886   2.028 -1.3783  2.0469  3.3501
 9822TIP3    H250882   6.643   5.009   1.992  1.2669 -1.0363 -2.8845
 9823TIP3   OH250883   5.096   2.166  13.493  0.4343 -0.9640  0.1642
 9823TIP3    H150884   5.069   2.227  13.424 -2.3004 -0.6292  1.3965
 9823TIP3    H250885   5.140   2.221  13.558  2.6248 -1.2130 -1.0184
 9824TIP3   OH250886   0.292   0.170  15.844  0.1288  0.1434 -0.5335
 9824TIP3    H150887   0.287   0.101  15.910 -1.4965  0.9132  0.2047
 9824TIP3    H250888   0.379   0.159  15.804  0.0756 -2.0342 -0.1585
 9825TIP3   OH250889   0.742   6.567  17.061 -0.1315  0.3780  0.5987
 9825TIP3    H150890   0.807   6.606  17.002  1.2644 -2.2292  0.2727
 9825TIP3    H250891   0.742   6.624  17.137  1.1636  1.4962 -0.1830
 9826TIP3   OH250892   1.335   3.273  15.566  0.2965  0.0345 -0.1167
 9826TIP3    H150893   1.320   3.319  15.649 -1.4665  1.7802 -1.3077
 9826TIP3    H250894   1.254   3.224  15.551  1.2852 -1.6818  0.0146
 9827TIP3   OH250895   0.121   1.567   0.413  0.3893 -0.1489  0.3395
 9827TIP3    H150896   0.195   1.534   0.463  0.6429 -0.1192 -0.0096
 9827TIP3    H250897   0.130   1.527   0.326  0.3584  0.3438  0.0998
 9828TIP3   OH250898   0.033   4.641  15.771 -0.2256 -0.0332  0.2141
 9828TIP3    H150899   0.048   4.608  15.859  0.9926  0.3267  0.1630
 9828TIP3    H250900  -0.027   4.578  15.731 -0.6432 -0.2953  1.2323
 9829TIP3   OH250901   0.310   1.239  15.149  0.1256  0.1504 -0.3834
 9829TIP3    H150902   0.322   1.267  15.240 -0.4884 -0.0271 -0.2372
 9829TIP3    H250903   0.383   1.277  15.102  1.5892 -1.4037  0.5388
 9830TIP3   OH250904   3.364   4.837  13.743  0.2624 -0.2851  0.1920
 9830TIP3    H150905   3.314   4.896  13.800  0.5555 -1.1602  1.3989
 9830TIP3    H250906   3.446   4.822  13.790  0.6881 -0.7134 -0.6627
 9831TIP3   OH250907   0.945   0.214  11.220 -0.1426  0.2282 -0.2486
 9831TIP3    H150908   0.898   0.231  11.302  0.9500  0.6316  0.3092
 9831TIP3    H250909   0.889   0.252  11.152 -2.2739 -2.1798 -0.0063
 9832TIP3   OH250910   3.694   2.381   3.548  0.2239 -0.3530  0.6929
 9832TIP3    H150911   3.694   2.336   3.463  0.9413  0.1726  0.4018
 9832TIP3    H250912   3.634   2.330   3.602  0.2055 -1.0375  0.0463
 9833TIP3   OH250913   0.496   4.563   0.507 -0.2703  0.5908  0.0048
 9833TIP3    H150914   0.579   4.569   0.460 -0.0038 -0.1027  0.3808
 9833TIP3    H250915   0.439   4.627   0.463  0.5420  1.2720 -0.0785
 9834TIP3   OH250916   4.419   1.734  11.415 -0.4912 -0.0118  0.2503
 9834TIP3    H150917   4.409   1.702  11.505 -0.7802  0.8992  0.5583
 9834TIP3    H250918   4.337   1.780  11.397 -0.6825 -0.6929 -0.7098
 9835TIP3   OH250919   5.786   1.524  14.654 -0.2030  0.0428  0.0680
 9835TIP3    H150920   5.768   1.494  14.743 -0.2646 -3.5193 -0.9737
 9835TIP3    H250921   5.721   1.478  14.600 -0.0682  1.9647 -1.8734
 9836TIP3   OH250922   6.220   4.992   5.029  0.0952 -0.5525 -0.1316
 9836TIP3    H150923   6.269   4.949   4.959  1.4525  2.3090 -1.0851
 9836TIP3    H250924   6.269   4.973   5.109  1.3800  0.2000 -0.7134
 9837TIP3   OH250925   6.180   0.564  16.924 -0.2905  0.1294  0.1841
 9837TIP3    H150926   6.087   0.542  16.930 -0.5639  1.1338 -0.1657
 9837TIP3    H250927   6.191   0.636  16.986 -0.2125  1.4162 -1.2629
 9838TIP3   OH250928   0.526   0.802   0.470  0.1494 -0.5027 -0.4763
 9838TIP3    H150929   0.542   0.765   0.383 -0.3472  0.5504 -1.0361
 9838TIP3    H250930   0.587   0.875   0.476  0.5992 -0.9341  0.3119
 9839TIP3   OH250931   6.139   6.552  16.418 -0.3521 -0.1581  0.2853
 9839TIP3    H150932   6.081   6.579  16.347  0.2130  0.4435  0.0437
 9839TIP3    H250933   6.135   6.623  16.481  1.2615  0.6347 -0.4247
 9840TIP3   OH250934   1.036   6.516  13.038  0.3634 -0.1120  0.1803
 9840TIP3    H150935   1.081   6.482  12.961 -0.3284 -2.4001  0.6931
 9840TIP3    H250936   1.006   6.437  13.084 -2.7778  1.2377  0.6869
 9841TIP3   OH250937   1.483   4.008   0.184 -0.3420  0.1634  0.1484
 9841TIP3    H150938   1.488   3.935   0.123 -1.6626  0.0354  0.1686
 9841TIP3    H250939   1.436   3.974   0.260  0.6975  0.5111  0.9864
 9842TIP3   OH250940   4.449   3.970  12.978 -0.0312 -0.3579 -0.2041
 9842TIP3    H150941   4.448   4.012  13.064  1.5261  0.0813 -0.3746
 9842TIP3    H250942   4.541   3.945  12.964 -0.7857 -3.5345 -0.2671
 9843TIP3   OH250943   5.077   2.616   0.370 -0.5089  0.0073 -0.2958
 9843TIP3    H150944   5.108   2.705   0.390  1.1684 -0.3586 -1.0891
 9843TIP3    H250945   5.155   2.562   0.375 -1.1104 -1.0785 -1.8374
 9844TIP3   OH250946   3.421   4.531  11.007  0.0345  0.1524 -0.1732
 9844TIP3    H150947   3.391   4.621  11.013 -1.6093 -0.4429  1.7462
 9844TIP3    H250948   3.367   4.492  10.938  1.1172  0.7177 -1.3805
 9845TIP3   OH250949   1.093   6.433   1.347  0.7740 -0.1406  0.3224
 9845TIP3    H150950   1.154   6.460   1.416  2.0694 -0.9471 -0.4635
 9845TIP3    H250951   1.104   6.338   1.342 -0.9252 -0.3765  0.4773
 9846TIP3   OH250952   2.133   4.570  16.728 -0.4111 -0.2158 -0.9880
 9846TIP3    H150953   2.120   4.487  16.682  0.5734  0.0006 -1.6870
 9846TIP3    H250954   2.215   4.605  16.692  1.7357 -1.1207  2.5203
 9847TIP3   OH250955   2.389   1.225  14.212 -0.2273  0.0580 -0.1823
 9847TIP3    H150956   2.368   1.297  14.153 -0.0919  0.2738  0.0342
 9847TIP3    H250957   2.475   1.247  14.248 -0.1539 -0.2435 -0.1667
 9848TIP3   OH250958   2.413   2.147  13.495  0.3014  0.1903 -0.2345
 9848TIP3    H150959   2.473   2.102  13.436 -1.0444  0.6986 -2.0488
 9848TIP3    H250960   2.409   2.237  13.462 -1.4067  0.1834 -0.1366
 9849TIP3   OH250961   2.119   2.588   3.643 -0.1233  0.1580  0.1050
 9849TIP3    H150962   2.136   2.606   3.550  1.7945  0.2661  0.4406
 9849TIP3    H250963   2.049   2.523   3.642  0.1606 -0.1670 -1.4484
 9850TIP3   OH250964   3.345   4.149  12.983  0.2205 -0.2809  0.4616
 9850TIP3    H150965   3.401   4.202  13.038 -1.2569  0.6588  1.1222
 9850TIP3    H250966   3.257   4.158  13.021 -0.9059  0.5342 -2.0810
 9851TIP3   OH250967   1.110   1.819   4.104  0.0277 -0.5272  0.0606
 9851TIP3    H150968   1.175   1.779   4.162  0.4271 -0.7267 -0.5270
 9851TIP3    H250969   1.026   1.800   4.146  0.4343  2.0922  2.3493
 9852TIP3   OH250970   3.151   1.552  12.355  0.3482  0.0759 -0.3595
 9852TIP3    H150971   3.194   1.573  12.272  0.9886 -1.1591 -0.3668
 9852TIP3    H250972   3.206   1.484  12.393 -0.6433 -0.2652  0.4912
 9853TIP3   OH250973   1.449   1.281  16.274  0.0171 -0.2597 -0.1651
 9853TIP3    H150974   1.405   1.361  16.244 -0.4742 -0.0101  1.1551
 9853TIP3    H250975   1.378   1.225  16.305  0.4630 -0.6811  0.1028
 9854TIP3   OH250976   4.744   3.514   5.881 -0.1619 -0.5385 -0.1111
 9854TIP3    H150977   4.821   3.516   5.938 -0.0448 -0.0825 -0.2828
 9854TIP3    H250978   4.676   3.472   5.934 -0.0431 -0.1553  0.3513
 9855TIP3   OH250979   2.617   0.812  14.859  0.6184  0.3170  0.3260
 9855TIP3    H150980   2.599   0.836  14.950 -1.3959  0.5469 -0.0835
 9855TIP3    H250981   2.531   0.816  14.816  1.2637 -1.2953 -1.2389
 9856TIP3   OH250982   1.872   3.783  14.281 -0.3993 -0.1726  0.1079
 9856TIP3    H150983   1.856   3.693  14.310  1.0776 -0.4323  0.2119
 9856TIP3    H250984   1.965   3.798  14.302 -0.6285  1.3782  0.0933
 9857TIP3   OH250985   3.576   4.190  10.950  0.3781  0.3584 -0.1438
 9857TIP3    H150986   3.492   4.209  10.910  1.1133  2.3930 -0.8626
 9857TIP3    H250987   3.555   4.167  11.041 -1.0106 -0.4169 -0.6436
 9858TIP3   OH250988   1.631   5.061   1.587  0.4986 -0.0098  0.6884
 9858TIP3    H150989   1.606   5.026   1.502  2.3673  1.2379 -0.4501
 9858TIP3    H250990   1.593   5.000   1.650 -3.8785  0.8444 -0.7920
 9859TIP3   OH250991   3.699   4.686   1.268  0.2802 -0.3624  0.0881
 9859TIP3    H150992   3.684   4.689   1.174 -0.7292 -1.2849  0.1902
 9859TIP3    H250993   3.779   4.635   1.279 -0.6327 -1.9545 -0.2306
 9860TIP3   OH250994   3.766   1.845  12.631  0.1161 -0.4085 -0.7297
 9860TIP3    H150995   3.850   1.807  12.609  2.1557  2.3132  1.5105
 9860TIP3    H250996   3.736   1.795  12.707  1.2108  0.3903  0.2589
 9861TIP3   OH250997   1.405   1.370   6.236 -0.0755  0.2445  0.2630
 9861TIP3    H150998   1.500   1.366   6.230 -0.0947  1.1354 -0.9070
 9861TIP3    H250999   1.375   1.286   6.201  0.2659 -0.0867  0.7430
 9862TIP3   OH251000   6.130   3.424   3.296 -0.3978 -0.0102 -0.0082
 9862TIP3    H151001   6.134   3.332   3.271  0.3509  0.7885 -3.3337
 9862TIP3    H251002   6.036   3.444   3.298 -0.5280 -0.5577 -0.4649
 9863TIP3   OH251003   4.579   4.012  16.556  0.4509 -0.1173 -0.2577
 9863TIP3    H151004   4.586   4.001  16.651  0.9215  1.3203 -0.0943
 9863TIP3    H251005   4.669   4.029  16.528  0.1376  0.7589 -0.7629
 9864TIP3   OH251006   4.870   3.172  15.668 -0.2084 -0.0095 -0.7740
 9864TIP3    H151007   4.808   3.100  15.676  1.0641 -0.9590  1.7555
 9864TIP3    H251008   4.843   3.235  15.735  0.6056  0.2947 -0.7200
 9865TIP3   OH251009   1.491   6.766   0.736 -0.5857 -0.5061 -0.1274
 9865TIP3    H151010   1.577   6.724   0.742 -0.0765  0.5677  0.3769
 9865TIP3    H251011   1.428   6.694   0.743  0.2584 -1.1340  1.3480
 9866TIP3   OH251012   4.213   1.330   0.830 -0.0813  0.3253 -0.1479
 9866TIP3    H151013   4.132   1.329   0.880 -0.1520 -0.5174 -0.2661
 9866TIP3    H251014   4.208   1.252   0.774  1.8458 -1.1194  1.5013
 9867TIP3   OH251015   2.351   1.275  13.852 -0.2576 -0.4544  0.2881
 9867TIP3    H151016   2.300   1.204  13.893 -3.1820  0.3190 -1.6659
 9867TIP3    H251017   2.337   1.350  13.910 -0.8088 -0.4297  0.1357
 9868TIP3   OH251018   4.484   5.082  13.047  0.3735  0.0395  0.5555
 9868TIP3    H151019   4.459   5.026  12.974 -0.6216  0.3639  0.6335
 9868TIP3    H251020   4.571   5.115  13.024  0.1587 -0.0283 -0.3827
 9869TIP3   OH251021   6.201   5.281  14.889 -0.1898  0.6250  0.0097
 9869TIP3    H151022   6.193   5.356  14.947  0.2403 -0.4418  1.5222
 9869TIP3    H251023   6.293   5.279  14.865  0.0280  0.0005  0.8378
 9870TIP3   OH251024   1.778   2.378  14.941 -0.6595  0.0528  0.1828
 9870TIP3    H151025   1.860   2.330  14.938 -0.4103  0.3179  1.7608
 9870TIP3    H251026   1.712   2.312  14.963 -0.6860  0.0388  0.0621
 9871TIP3   OH251027   4.080   0.647  11.937  0.1251  0.3965  0.1508
 9871TIP3    H151028   4.153   0.602  11.978 -0.5022 -0.3742  0.4453
 9871TIP3    H251029   4.073   0.608  11.850 -0.2707  0.0780  0.3214
 9872TIP3   OH251030   0.008   4.230  14.430  0.1983 -0.8412  0.5055
 9872TIP3    H151031  -0.038   4.161  14.478 -0.5870 -1.3029 -0.8685
 9872TIP3    H251032   0.100   4.221  14.456 -0.1363 -1.3795  1.5315
 9873TIP3   OH251033   0.732   2.427   1.166  0.1237 -0.2616  0.9025
 9873TIP3    H151034   0.775   2.461   1.244  1.6053 -1.2294  0.5528
 9873TIP3    H251035   0.803   2.415   1.103 -0.6244 -2.0354  0.3419
 9874TIP3   OH251036   2.646   6.348   1.076 -0.7572 -0.1207 -0.1863
 9874TIP3    H151037   2.588   6.421   1.098  0.8140  1.4804 -1.1429
 9874TIP3    H251038   2.612   6.313   0.994 -0.3300  0.8946 -0.8110
 9875TIP3   OH251039   4.901   2.055  13.000  0.2724  0.0825 -0.0363
 9875TIP3    H151040   4.871   1.991  12.935 -3.1918  2.2726 -0.9135
 9875TIP3    H251041   4.854   2.032  13.080  1.0028  0.0480  0.3875
 9876TIP3   OH251042   0.451   1.136   5.378 -0.1059  0.4950 -0.1952
 9876TIP3    H151043   0.399   1.065   5.416  0.2910 -0.1325 -0.7956
 9876TIP3    H251044   0.391   1.211   5.374 -1.0197 -0.2479 -1.0006
 9877TIP3   OH251045   3.027   6.356   5.176  0.0027 -0.8324  0.1478
 9877TIP3    H151046   2.966   6.357   5.103 -0.4192 -0.4498  0.4983
 9877TIP3    H251047   2.999   6.428   5.232  0.4042 -1.0342  0.6201
 9878TIP3   OH251048   5.781   1.161   6.260 -0.1989  0.1639  0.3385
 9878TIP3    H151049   5.741   1.226   6.202 -1.4846  0.3083  1.3413
 9878TIP3    H251050   5.849   1.209   6.307 -0.1393  0.4100  0.0015
 9879TIP3   OH251051   0.067   5.640   1.301  0.1112  0.0207 -0.8766
 9879TIP3    H151052  -0.019   5.623   1.339  0.9843  0.8891  1.7500
 9879TIP3    H251053   0.099   5.717   1.348  2.0325  0.1611 -2.2930
 9880TIP3   OH251054   0.303   5.773   2.275 -0.0014 -0.1479 -0.5090
 9880TIP3    H151055   0.279   5.864   2.292  0.6403 -0.1704  0.6164
 9880TIP3    H251056   0.249   5.723   2.336 -1.1870 -0.6401 -1.9027
 9881TIP3   OH251057   1.297   1.769  12.917  0.2123  0.1149  0.5812
 9881TIP3    H151058   1.350   1.810  12.848 -0.8488 -0.6327 -0.7274
 9881TIP3    H251059   1.361   1.742  12.984  1.4933 -0.6718 -0.8920
 9882TIP3   OH251060   5.016   5.397   5.222 -0.0333 -0.0751  0.4741
 9882TIP3    H151061   5.021   5.322   5.163  0.9512  0.3267  0.0130
 9882TIP3    H251062   4.965   5.462   5.174 -0.1203 -0.1281  0.4952
 9883TIP3   OH251063   0.080   4.513  13.287  0.4811  0.5831  0.2345
 9883TIP3    H151064   0.151   4.542  13.229  1.7338  1.6214  2.1569
 9883TIP3    H251065   0.096   4.560  13.369 -0.6117 -1.5490  1.7649
 9884TIP3   OH251066   2.589   6.545  10.778 -0.1313  0.7427  0.9330
 9884TIP3    H151067   2.530   6.581  10.844 -0.9357 -0.9872  1.2008
 9884TIP3    H251068   2.676   6.560  10.813 -0.4488  1.9922  1.2419
 9885TIP3   OH251069   4.027   4.612  16.053 -0.4584  0.6634  0.0291
 9885TIP3    H151070   4.095   4.544  16.049 -0.4024  0.6209  1.3161
 9885TIP3    H251071   3.958   4.579  15.996  0.1004  0.1345 -0.3623
 9886TIP3   OH251072   1.408   1.592  11.147  0.5937 -0.2155 -0.3098
 9886TIP3    H151073   1.375   1.622  11.232 -0.0957  1.1579 -1.0180
 9886TIP3    H251074   1.331   1.594  11.090  1.4419  0.9544 -1.4743
 9887TIP3   OH251075   3.613   3.726   3.665  0.0768  0.3584  0.2281
 9887TIP3    H151076   3.518   3.715   3.657 -0.2994  1.6259  2.2132
 9887TIP3    H251077   3.645   3.724   3.575 -1.9516  0.8599 -0.5672
 9888TIP3   OH251078   5.341   1.559  14.179  0.0949  0.4562 -0.0272
 9888TIP3    H151079   5.395   1.544  14.257 -0.3070 -0.7932  0.0390
 9888TIP3    H251080   5.331   1.473  14.140 -1.6715  0.6688 -0.1486
 9889TIP3   OH251081   5.597   0.902  16.322  0.0835  0.2434 -0.3703
 9889TIP3    H151082   5.513   0.931  16.286 -0.7557  0.2949  1.5400
 9889TIP3    H251083   5.652   0.981  16.321  0.5376 -0.0288 -2.6307
 9890TIP3   OH251084   0.660   0.803  11.392 -0.3865  0.5642  0.1680
 9890TIP3    H151085   0.678   0.755  11.473  0.1592  2.3356  1.1658
 9890TIP3    H251086   0.675   0.895  11.415  0.3110  1.0834 -2.1050
 9891TIP3   OH251087   6.732   6.058   3.522  0.1273  0.1042 -0.3440
 9891TIP3    H151088   6.816   6.018   3.501 -0.3016 -0.8548 -0.3243
 9891TIP3    H251089   6.690   5.995   3.581 -0.0136  1.2413  0.8123
 9892TIP3   OH251090   5.101   4.385  16.924  0.1845  0.5010  0.4343
 9892TIP3    H151091   5.148   4.402  16.843  1.5606 -1.0741  0.8480
 9892TIP3    H251092   5.156   4.424  16.992  0.8124 -1.0866  0.8890
 9893TIP3   OH251093   1.412   0.528   6.449  0.4416  0.1345  0.7006
 9893TIP3    H151094   1.358   0.558   6.522  0.0759  0.8688  0.1551
 9893TIP3    H251095   1.435   0.609   6.402  1.7844 -0.1978  0.7495
 9894TIP3   OH251096   0.817   5.261   4.647 -0.0378 -0.3841 -0.4592
 9894TIP3    H151097   0.853   5.174   4.663 -1.5258 -1.5144 -2.7368
 9894TIP3    H251098   0.809   5.300   4.735  2.2605 -1.8053  0.4848
 9895TIP3   OH251099   4.799   5.320  14.182  0.0490 -0.1774  0.3522
 9895TIP3    H151100   4.753   5.238  14.199 -0.5480  0.1065  0.1217
 9895TIP3    H251101   4.850   5.336  14.261 -0.5300 -0.3113  0.7591
 9896TIP3   OH251102   4.145   5.866  16.708 -0.4092 -0.3436  0.0871
 9896TIP3    H151103   4.195   5.948  16.706 -0.5575 -0.2601 -1.6286
 9896TIP3    H251104   4.196   5.809  16.765  2.2537 -0.5987 -2.3310
 9897TIP3   OH251105   3.220   1.739   6.132  0.4660 -0.4968  0.4251
 9897TIP3    H151106   3.206   1.654   6.173 -0.3012  0.4926  2.4016
 9897TIP3    H251107   3.174   1.801   6.190  1.4535  1.3183 -0.6261
 9898TIP3   OH251108   2.242   3.277   4.278 -0.5989  0.1903 -0.5249
 9898TIP3    H151109   2.317   3.226   4.308  0.1313  1.0153 -0.9348
 9898TIP3    H251110   2.184   3.212   4.239  0.3300 -0.3303 -1.0688
 9899TIP3   OH251111   0.854   3.344   4.113  0.3761  0.3446 -0.2357
 9899TIP3    H151112   0.793   3.364   4.183  1.1611  1.5430  0.1371
 9899TIP3    H251113   0.803   3.351   4.033 -0.1153  0.7231  0.1079
 9900TIP3   OH251114   1.316   5.976  16.668 -0.0318  0.6967  0.0866
 9900TIP3    H151115   1.405   5.988  16.701 -0.1053  1.0862  0.1493
 9900TIP3    H251116   1.301   5.882  16.673  0.8137  0.4845 -1.0506
 9901TIP3   OH251117   2.170   2.125  16.653  0.1459  0.2679  0.3887
 9901TIP3    H151118   2.182   2.219  16.664  0.9102  0.1929  0.2660
 9901TIP3    H251119   2.255   2.087  16.675 -0.2453 -0.4248  0.7462
 9902TIP3   OH251120   6.125   5.211  12.620  0.4038 -0.3476  0.1711
 9902TIP3    H151121   6.135   5.294  12.666  0.6854 -0.0548 -0.4078
 9902TIP3    H251122   6.213   5.191  12.588  0.0378 -0.0451 -1.0864
 9903TIP3   OH251123   1.864   6.292  16.502  0.2792  0.0474  0.2972
 9903TIP3    H151124   1.834   6.364  16.557  0.1835  0.0271  0.2719
 9903TIP3    H251125   1.872   6.330  16.415  3.0859  0.8104  0.7861
 9904TIP3   OH251126   3.381   3.783  11.999 -0.4331 -0.2458 -0.1167
 9904TIP3    H151127   3.389   3.688  12.009  0.4710 -0.1767 -0.1007
 9904TIP3    H251128   3.295   3.796  11.958 -0.7762 -1.0319  0.3259
 9905TIP3   OH251129   1.888   6.117  13.634  0.1403 -0.8503 -0.7384
 9905TIP3    H151130   1.816   6.074  13.588 -0.0977  0.0652 -1.2492
 9905TIP3    H251131   1.863   6.116  13.726 -1.1616  0.5805 -1.0233
 9906TIP3   OH251132   5.678   5.494   2.234 -0.0641  0.5357 -0.1109
 9906TIP3    H151133   5.693   5.582   2.268  0.9892 -0.2084  1.5216
 9906TIP3    H251134   5.750   5.480   2.172  0.1058  0.6170  0.0665
 9907TIP3   OH251135   6.679   4.575   5.224 -0.1212  0.1292  0.1583
 9907TIP3    H151136   6.663   4.604   5.313  1.0690  2.1764 -0.2422
 9907TIP3    H251137   6.661   4.652   5.170  1.1679 -0.4538 -1.1633
 9908TIP3   OH251138   0.618   2.388   0.388 -0.3884 -0.1232  0.0794
 9908TIP3    H151139   0.688   2.324   0.398 -0.7250 -0.4696  0.2440
 9908TIP3    H251140   0.638   2.434   0.307 -0.9095 -1.4066 -0.8116
 9909TIP3   OH251141   1.267   1.156  10.669 -0.0115  0.2624 -0.1858
 9909TIP3    H151142   1.237   1.075  10.710 -2.3200  0.9993 -0.2588
 9909TIP3    H251143   1.236   1.225  10.728  1.4054  1.1361 -0.4248
 9910TIP3   OH251144   5.905   3.287  11.450  0.0721  0.2493 -0.3094
 9910TIP3    H151145   5.977   3.315  11.505  0.5569  0.2420 -0.9257
 9910TIP3    H251146   5.923   3.195  11.430 -0.6301 -0.0432  0.3314
 9911TIP3   OH251147   4.474   6.217  12.770 -0.0748 -0.3508  0.1089
 9911TIP3    H151148   4.539   6.177  12.827 -0.3333 -1.5006 -0.3635
 9911TIP3    H251149   4.517   6.294  12.733  0.4600 -0.2110  1.0121
 9912TIP3   OH251150   2.337   2.349   5.573 -0.1661  0.0504 -0.6821
 9912TIP3    H151151   2.411   2.291   5.587  0.9389  1.3008 -1.0272
 9912TIP3    H251152   2.281   2.337   5.649  1.7279  0.9754  0.9788
 9913TIP3   OH251153   3.613   0.508  13.048 -0.2311  0.0517 -0.5101
 9913TIP3    H151154   3.702   0.474  13.060 -0.5884 -0.7468 -0.0370
 9913TIP3    H251155   3.609   0.534  12.956  0.8037  1.0297 -0.2978
 9914TIP3   OH251156   0.230   5.149  12.663  0.2577 -0.2387 -0.2112
 9914TIP3    H151157   0.198   5.127  12.750  0.3099 -0.7114 -0.3086
 9914TIP3    H251158   0.325   5.147  12.671  0.2825  0.8937  0.0097
 9915TIP3   OH251159   0.615   5.653  12.852  0.5894  0.2436 -0.5086
 9915TIP3    H151160   0.582   5.736  12.820  1.1559  0.8946  0.5333
 9915TIP3    H251161   0.565   5.587  12.804  0.0476  1.1757 -1.2602
 9916TIP3   OH251162   4.857   4.122   2.347 -0.0635  0.0768 -0.1215
 9916TIP3    H151163   4.827   4.103   2.436  0.9720  0.1611  0.2596
 9916TIP3    H251164   4.870   4.217   2.346  0.3710  0.0152 -0.2249
 9917TIP3   OH251165   1.632   4.426   0.968  0.6748  0.4994 -0.0138
 9917TIP3    H151166   1.659   4.497   1.026  2.4911 -0.2755  0.1613
 9917TIP3    H251167   1.627   4.467   0.881 -1.1035  1.4436  0.4839
 9918TIP3   OH251168   5.634   2.353  15.923 -0.4334  0.9044  0.5318
 9918TIP3    H151169   5.686   2.273  15.918 -2.2792 -0.3219 -0.0161
 9918TIP3    H251170   5.543   2.323  15.920 -1.2003  3.1061 -1.3113
 9919TIP3   OH251171   3.915   5.177   3.993 -0.2077  0.3899 -0.3492
 9919TIP3    H151172   3.944   5.239   4.060 -1.0981  2.7131 -1.9503
 9919TIP3    H251173   3.820   5.186   3.992 -0.1777  1.0804 -2.4197
 9920TIP3   OH251174   5.367   1.487   0.556  0.3737 -1.1411 -0.6072
 9920TIP3    H151175   5.327   1.452   0.477 -1.0945 -2.8031  0.7736
 9920TIP3    H251176   5.356   1.418   0.621  4.4414 -1.1958  0.2992
 9921TIP3   OH251177   2.109   4.496  12.853  0.6765 -0.6401 -0.0132
 9921TIP3    H151178   2.067   4.576  12.883 -0.3062 -1.3788  0.6365
 9921TIP3    H251179   2.059   4.469  12.776  0.5389 -1.0162  0.2032
 9922TIP3   OH251180   5.287   2.357  12.870  0.0084 -0.0985 -0.2045
 9922TIP3    H151181   5.338   2.335  12.948 -1.4816  1.2117  1.1830
 9922TIP3    H251182   5.341   2.325  12.797  2.3466  0.3415  1.2285
 9923TIP3   OH251183   1.871   5.553   3.711 -0.4895  0.2347 -0.4259
 9923TIP3    H151184   1.776   5.555   3.721 -0.6572 -0.2586 -1.6379
 9923TIP3    H251185   1.885   5.516   3.623  0.7751  1.7024 -0.8994
 9924TIP3   OH251186   1.741   0.806  12.244 -0.0724  0.5662 -0.3552
 9924TIP3    H151187   1.706   0.811  12.333 -0.3205  0.5231 -0.4507
 9924TIP3    H251188   1.836   0.798  12.256  0.0342  1.8908 -0.1116
 9925TIP3   OH251189   4.514   3.133  12.800 -0.1275 -0.2842  0.2127
 9925TIP3    H151190   4.584   3.084  12.758 -0.2191 -0.6321  0.4562
 9925TIP3    H251191   4.545   3.148  12.889  0.4965  1.3289 -0.2474
 9926TIP3   OH251192   4.163   3.753   0.323 -0.5406  0.4371  0.0244
 9926TIP3    H151193   4.113   3.770   0.243 -0.5792  1.0794  0.1797
 9926TIP3    H251194   4.169   3.839   0.366 -1.0176 -0.0006  0.9930
 9927TIP3   OH251195   1.937   0.264   1.759  0.0061  0.1810 -0.3273
 9927TIP3    H151196   1.863   0.208   1.784 -0.7139  0.6669 -1.3079
 9927TIP3    H251197   2.003   0.204   1.726 -0.7548 -0.1133 -1.3603
 9928TIP3   OH251198   0.563   6.027  15.000 -0.2284 -0.0097  0.5228
 9928TIP3    H151199   0.574   6.089  14.928 -1.2293  0.9117  1.1433
 9928TIP3    H251200   0.652   6.013  15.033  0.5137 -1.6913 -1.8495
 9929TIP3   OH251201   0.866   0.165  15.650  0.3971  0.0799  0.6282
 9929TIP3    H151202   0.896   0.158  15.559 -1.7769 -2.0316 -0.0281
 9929TIP3    H251203   0.816   0.246  15.652 -1.6854 -1.0485 -0.8706
 9930TIP3   OH251204   4.984   1.855   4.877  0.0250  0.1230  0.5340
 9930TIP3    H151205   4.902   1.833   4.831  0.7579  0.3903 -0.9819
 9930TIP3    H251206   5.038   1.898   4.810  0.6691  1.7538  2.0063
 9931TIP3   OH251207   5.890   4.527   2.873 -0.6112  0.5419 -0.4890
 9931TIP3    H151208   5.845   4.450   2.838  0.5492 -0.9739  1.1386
 9931TIP3    H251209   5.932   4.495   2.953 -0.8164  3.1108  0.7390
 9932TIP3   OH251210   6.556   6.082   5.579  0.4991 -0.7543 -0.0806
 9932TIP3    H151211   6.637   6.032   5.584  1.3623  0.6534  0.5101
 9932TIP3    H251212   6.580   6.171   5.604 -1.3401 -0.4205  0.6887
 9933TIP3   OH251213   6.759   6.773  14.303 -1.0936  0.1844  0.1688
 9933TIP3    H151214   6.725   6.709  14.241 -0.0743 -0.0553 -0.1668
 9933TIP3    H251215   6.782   6.721  14.380  1.3142 -0.2065 -0.7015
 9934TIP3   OH251216   0.124   0.672   5.495 -0.8411 -0.2813 -0.1736
 9934TIP3    H151217   0.165   0.741   5.441 -0.5541 -1.1533 -1.1070
 9934TIP3    H251218   0.061   0.631   5.436 -1.3064 -0.5521  0.5088
 9935TIP3   OH251219   4.785   6.215  15.725 -0.3511  0.4004 -0.4914
 9935TIP3    H151220   4.865   6.229  15.776  0.2554 -1.3352 -0.9036
 9935TIP3    H251221   4.766   6.300  15.687  1.6083  0.7429 -0.8133
 9936TIP3   OH251222   1.428   2.869   3.072 -0.4286 -0.1442 -0.0261
 9936TIP3    H151223   1.495   2.900   3.133 -0.5489  1.5270 -0.7178
 9936TIP3    H251224   1.353   2.849   3.128  0.0894 -0.4865  0.5697
 9937TIP3   OH251225   3.617   2.503  16.204  0.1740  0.5468 -0.0208
 9937TIP3    H151226   3.708   2.473  16.203 -0.3387 -1.1769  1.1318
 9937TIP3    H251227   3.622   2.592  16.240  1.4073  0.5010 -0.0224
 9938TIP3   OH251228   1.511   0.747  13.309  0.4002 -0.0214 -0.3716
 9938TIP3    H151229   1.505   0.839  13.285 -0.0590 -0.3406 -1.5572
 9938TIP3    H251230   1.474   0.700  13.234 -1.9397 -1.0455  1.3013
 9939TIP3   OH251231   1.430   1.729   3.278 -0.1776 -0.0837  0.2022
 9939TIP3    H151232   1.444   1.822   3.292  0.5238 -0.5465  3.4726
 9939TIP3    H251233   1.487   1.705   3.205  0.5545  1.8054  0.1253
 9940TIP3   OH251234   2.719   2.164  16.755 -0.1571  0.6465  0.3012
 9940TIP3    H151235   2.690   2.207  16.836 -1.9420 -0.0919  0.1067
 9940TIP3    H251236   2.638   2.148  16.706  0.7735 -0.0299 -1.0761
 9941TIP3   OH251237   3.881   4.376  13.526 -0.8820  0.1079  0.5923
 9941TIP3    H151238   3.815   4.307  13.527  1.3880 -2.3072 -1.1184
 9941TIP3    H251239   3.963   4.331  13.505  1.0630  3.1495  0.9122
 9942TIP3   OH251240   3.815   2.572   4.544 -0.2957 -0.1276  0.3885
 9942TIP3    H151241   3.731   2.604   4.575 -0.6534 -2.4756  2.1265
 9942TIP3    H251242   3.799   2.546   4.453 -1.2368  0.1516  0.4640
 9943TIP3   OH251243   4.164   6.357   4.265 -0.4431 -0.3555  0.0462
 9943TIP3    H151244   4.125   6.430   4.217 -0.0371 -0.8853 -1.1382
 9943TIP3    H251245   4.161   6.384   4.357 -0.8537  0.8781 -0.3089
 9944TIP3   OH251246   2.946   2.881  10.656  0.4757 -0.2217  0.4306
 9944TIP3    H151247   2.877   2.821  10.685  0.5466 -1.5382 -1.8814
 9944TIP3    H251248   2.930   2.962  10.704 -2.1420 -0.7665  0.6056
 9945TIP3   OH251249   2.787   2.064  16.316 -0.6039 -0.6637 -0.2062
 9945TIP3    H151250   2.805   1.996  16.381  1.4198 -0.7885 -0.7955
 9945TIP3    H251251   2.805   2.021  16.232 -4.0082 -0.7771 -0.9939
 9946TIP3   OH251252   4.386   2.791  16.006  0.4812 -0.1368  0.0350
 9946TIP3    H151253   4.360   2.759  15.920 -0.2448  0.8491 -0.1326
 9946TIP3    H251254   4.323   2.861  16.025  0.6522 -0.3253  1.3510
 9947TIP3   OH251255   1.565   6.700  14.320  0.0182 -0.8278 -0.3909
 9947TIP3    H151256   1.586   6.771  14.260  0.6694 -0.0933  0.6568
 9947TIP3    H251257   1.571   6.620  14.268  0.5450 -0.2092 -1.2865
 9948TIP3   OH251258   1.264   3.367  11.418  0.0559  0.0686  0.1683
 9948TIP3    H151259   1.199   3.309  11.379 -0.5601  0.7714  0.1220
 9948TIP3    H251260   1.331   3.309  11.454 -0.1595 -0.6332 -0.5624
 9949TIP3   OH251261   6.675   5.391  16.331  0.4828 -0.7620 -0.1119
 9949TIP3    H151262   6.738   5.337  16.379  0.9970  0.4144  0.5966
 9949TIP3    H251263   6.670   5.473  16.382  0.5555  0.2846 -1.7095
 9950TIP3   OH251264   4.782   2.718  11.839  0.3846 -0.3931 -0.7570
 9950TIP3    H151265   4.864   2.757  11.870  0.9903 -0.7212 -1.8513
 9950TIP3    H251266   4.808   2.668  11.761 -0.9357 -0.1068 -1.4145
 9951TIP3   OH251267   4.272   6.158   2.040  0.6427  0.3900 -0.4511
 9951TIP3    H151268   4.232   6.083   1.997  0.8102  0.0500 -0.0218
 9951TIP3    H251269   4.207   6.228   2.032 -1.9235 -1.1441  3.6708
 9952TIP3   OH251270   3.528   2.857   2.629  0.0662 -0.0668  0.0642
 9952TIP3    H151271   3.528   2.878   2.535 -2.1953  0.7232  0.1628
 9952TIP3    H251272   3.446   2.810   2.643  0.5979 -0.6159  1.5884
 9953TIP3   OH251273   1.603   3.309  12.786 -0.4676 -0.6989 -0.1675
 9953TIP3    H151274   1.542   3.382  12.775 -0.4820 -0.7542 -0.4592
 9953TIP3    H251275   1.562   3.253  12.853 -0.4848 -0.4710  0.0120
 9954TIP3   OH251276   4.103   2.641  10.740  0.1851 -0.2312 -0.6033
 9954TIP3    H151277   4.015   2.672  10.718  0.3917  1.2330  0.4607
 9954TIP3    H251278   4.105   2.550  10.710 -1.0240  0.2910 -2.4024
 9955TIP3   OH251279   4.652   2.871   3.937  0.5187  0.8182 -0.3672
 9955TIP3    H151280   4.609   2.785   3.943  0.0411  1.0768 -0.0411
 9955TIP3    H251281   4.662   2.899   4.028  0.4672  1.2126 -0.4812
 9956TIP3   OH251282   4.794   1.103  14.715  0.0761  0.2071 -0.2553
 9956TIP3    H151283   4.766   1.019  14.750  1.7291  0.0121  0.7156
 9956TIP3    H251284   4.806   1.159  14.792 -0.9409  1.3518 -0.8765
 9957TIP3   OH251285   5.380   6.709  16.370  0.7105 -0.1567  1.0405
 9957TIP3    H151286   5.284   6.711  16.364  0.7305  0.4964  0.8220
 9957TIP3    H251287   5.402   6.784  16.426  1.2677  2.0150 -1.8208
 9958TIP3   OH251288   3.432   2.281   4.298  0.4818  0.1293  0.0581
 9958TIP3    H151289   3.355   2.248   4.344  0.4194  0.8229  0.4574
 9958TIP3    H251290   3.500   2.286   4.364  1.0933 -1.1289 -0.4312
 9959TIP3   OH251291   2.917   6.741   0.671 -0.1729 -0.1548  0.3300
 9959TIP3    H151292   2.980   6.768   0.605  0.2884 -1.3921  0.2355
 9959TIP3    H251293   2.961   6.755   0.754 -1.5421  3.5022  0.5972
 9960TIP3   OH251294   5.491   5.246   2.784  0.2250  0.1784 -0.2988
 9960TIP3    H151295   5.499   5.155   2.756  0.5653  0.2548 -0.4541
 9960TIP3    H251296   5.419   5.281   2.732 -0.8514 -0.3822  0.7587
 9961TIP3   OH251297   0.421   0.373  16.439 -0.2860  0.2283  1.1314
 9961TIP3    H151298   0.476   0.331  16.505 -0.2392  0.0307  0.9648
 9961TIP3    H251299   0.469   0.453  16.416  1.0847 -1.0384 -0.6807
 9962TIP3   OH251300   4.205   5.200   4.203  0.1120  0.5679  0.4667
 9962TIP3    H151301   4.185   5.169   4.292  2.4604  2.3677  1.7327
 9962TIP3    H251302   4.245   5.125   4.160  2.6609  0.7345  2.3543
 9963TIP3   OH251303   4.986   6.649  10.721  0.0937 -0.2444  0.0455
 9963TIP3    H151304   5.011   6.728  10.674  0.4877  0.9712  2.1720
 9963TIP3    H251305   4.934   6.599  10.658 -0.2677  1.7426 -1.3194
 9964TIP3   OH251306   3.985   2.495   3.347  0.0589  0.0007  0.6032
 9964TIP3    H151307   3.907   2.544   3.321  0.9225  0.4903 -1.2172
 9964TIP3    H251308   3.982   2.416   3.294  0.7956  0.0433  0.4872
 9965TIP3   OH251309   1.530   3.647  12.880 -0.1476  0.2252 -0.8186
 9965TIP3    H151310   1.458   3.591  12.854  0.0981 -0.4754 -0.0350
 9965TIP3    H251311   1.490   3.711  12.939  0.0136 -0.7801  0.4341
 9966TIP3   OH251312   5.942   6.422  13.603 -0.1631 -0.4422 -0.3248
 9966TIP3    H151313   5.983   6.363  13.666 -1.5156 -1.8213 -0.6921
 9966TIP3    H251314   5.935   6.505  13.650  1.0421 -0.7699  0.4848
 9967TIP3   OH251315   4.803   0.522  16.707 -0.1213  0.4011 -0.2982
 9967TIP3    H151316   4.742   0.453  16.679  0.4429  0.0023 -0.5681
 9967TIP3    H251317   4.820   0.503  16.799 -0.8998  0.8907 -0.0506
 9968TIP3   OH251318   2.184   4.575   4.118  0.4984  0.3636 -0.3380
 9968TIP3    H151319   2.130   4.653   4.117 -0.1026  0.1822 -4.7905
 9968TIP3    H251320   2.123   4.502   4.112  1.1288 -0.2444  0.3538
 9969TIP3   OH251321   3.040   2.054   0.536  0.1835  0.5096  0.9091
 9969TIP3    H151322   3.009   2.059   0.446  0.9767  0.2607  0.6178
 9969TIP3    H251323   3.121   2.107   0.537  0.5173  0.0026  1.3206
 9970TIP3   OH251324   1.839   5.568   0.584 -0.2703 -0.1446  0.1875
 9970TIP3    H151325   1.860   5.479   0.611  0.1980  0.4347  1.9229
 9970TIP3    H251326   1.915   5.620   0.611 -1.4970  1.1201  1.4413
 9971TIP3   OH251327   1.596   1.405   2.995 -0.1527  0.6187  0.2962
 9971TIP3    H151328   1.618   1.313   2.985 -1.8526  0.2408 -0.1431
 9971TIP3    H251329   1.540   1.408   3.073 -1.7795  0.9587 -0.8473
 9972TIP3   OH251330   2.500   5.058  11.249  0.0278 -0.3479 -0.0092
 9972TIP3    H151331   2.450   5.135  11.223  0.7404  0.1946  0.1963
 9972TIP3    H251332   2.468   5.038  11.337 -0.9763 -0.9974 -0.4992
 9973TIP3   OH251333   6.673   1.616  14.560 -0.4874 -0.2614 -0.0750
 9973TIP3    H151334   6.730   1.668  14.616  0.6415 -0.0759 -1.3480
 9973TIP3    H251335   6.700   1.526  14.574  1.1685 -0.0835 -1.7124
 9974TIP3   OH251336   5.244   6.782  12.243 -0.4173 -0.2233  1.0409
 9974TIP3    H151337   5.198   6.719  12.298 -0.3248 -1.2031  0.0329
 9974TIP3    H251338   5.290   6.839  12.305 -0.4485 -1.1864  1.9805
 9975TIP3   OH251339   6.147   0.213   3.173  0.4927  0.4604 -0.1802
 9975TIP3    H151340   6.126   0.306   3.167  0.2401  0.3413 -1.5440
 9975TIP3    H251341   6.242   0.208   3.160  0.5196  0.5362 -0.0071
 9976TIP3   OH251342   5.951   2.734   0.015 -0.2660 -0.5882  0.2412
 9976TIP3    H151343   6.004   2.657  -0.006  1.5072  0.4126  0.8117
 9976TIP3    H251344   5.868   2.719  -0.029 -0.4453 -3.4046  1.3660
 9977TIP3   OH251345   6.634   1.801   6.232 -0.3333  0.1398  0.2602
 9977TIP3    H151346   6.650   1.772   6.143  0.8276 -0.7951  0.7447
 9977TIP3    H251347   6.721   1.809   6.271 -0.6929  2.5766  0.7178
 9978TIP3   OH251348   4.704   1.773  11.000  1.0718 -0.0182 -0.3511
 9978TIP3    H151349   4.752   1.816  11.070 -0.4424  0.1331  0.6485
 9978TIP3    H251350   4.630   1.830  10.982 -0.9424 -2.0446  0.9444
 9979TIP3   OH251351   4.811   3.121   4.336 -0.7342 -0.0961  0.5505
 9979TIP3    H151352   4.898   3.131   4.376 -0.9105 -0.7180  1.1104
 9979TIP3    H251353   4.750   3.150   4.405 -0.9463  1.4539 -0.2344
 9980TIP3   OH251354   1.245   5.901  13.336  0.5758 -0.2509 -0.5014
 9980TIP3    H151355   1.161   5.947  13.342  0.8349  0.1112  0.4994
 9980TIP3    H251356   1.239   5.852  13.254 -1.0261 -1.0575  0.0510
 9981TIP3   OH251357   5.321   2.468  11.530  0.5252  0.1492  0.0575
 9981TIP3    H151358   5.377   2.439  11.458  0.2495 -0.5255  0.1160
 9981TIP3    H251359   5.379   2.522  11.584  1.7432 -2.2119  1.2635
 9982TIP3   OH251360   2.436   5.141  16.920 -0.2269  0.5600 -0.0478
 9982TIP3    H151361   2.405   5.224  16.884 -1.2397  1.3496  2.4194
 9982TIP3    H251362   2.526   5.159  16.946 -0.6266  1.1346  1.0259
 9983TIP3   OH251363   4.000   4.681   4.049  0.1471 -0.5632 -0.2280
 9983TIP3    H151364   3.978   4.755   3.993  3.4086  0.0985 -0.8174
 9983TIP3    H251365   3.993   4.716   4.138  0.0060 -0.0769 -0.4262
 9984TIP3   OH251366   6.336   4.329   4.028  0.6845 -0.0368  0.3621
 9984TIP3    H151367   6.283   4.343   3.949  0.4770  1.4553  0.7373
 9984TIP3    H251368   6.364   4.417   4.054 -0.0376 -0.3928  2.5006
 9985TIP3   OH251369   1.274   3.024   1.153 -0.6004  0.1379 -0.1630
 9985TIP3    H151370   1.237   2.938   1.131 -0.2206 -0.2003  0.4937
 9985TIP3    H251371   1.296   3.017   1.246 -0.5759  0.9545 -0.1035
 9986TIP3   OH251372   5.806   2.861   1.887 -0.7269  0.1715 -0.1348
 9986TIP3    H151373   5.712   2.865   1.903 -1.1560 -0.7284 -2.1314
 9986TIP3    H251374   5.839   2.800   1.953 -1.4486  0.8274  0.8649
 9987TIP3   OH251375   2.110   3.188   5.855 -0.6970 -0.3385 -0.7276
 9987TIP3    H151376   2.021   3.218   5.873 -0.6114  0.1352 -1.0633
 9987TIP3    H251377   2.102   3.138   5.773 -0.4812  0.6393 -1.3632
 9988TIP3   OH251378   0.874   3.113  13.691  0.0195 -0.0101 -0.3570
 9988TIP3    H151379   0.939   3.178  13.663 -0.2971  1.1807  1.4421
 9988TIP3    H251380   0.916   3.067  13.763 -0.2017 -1.0239 -0.8613
 9989TIP3   OH251381   6.618   3.834  11.973 -0.3928  0.6660  0.0003
 9989TIP3    H151382   6.637   3.786  12.054  0.0275  1.0079  0.1114
 9989TIP3    H251383   6.585   3.768  11.913  0.3485  0.2029  0.0894
 9990TIP3   OH251384   1.875   4.377   0.548 -0.5541  0.1856  0.3748
 9990TIP3    H151385   1.965   4.400   0.568 -0.3290 -0.7678  0.4525
 9990TIP3    H251386   1.841   4.338   0.628 -0.6767 -0.5291 -0.0210
 9991TIP3   OH251387   0.317   2.027  16.434 -0.2645 -0.4639  0.0171
 9991TIP3    H151388   0.336   1.934  16.438  0.4689 -0.2755  1.2669
 9991TIP3    H251389   0.270   2.046  16.515 -0.1948  0.3017 -0.1094
 9992TIP3   OH251390   0.010   2.209  11.332  0.3107  0.6830  0.1509
 9992TIP3    H151391  -0.072   2.258  11.320  0.1823  0.2447 -0.9101
 9992TIP3    H251392   0.072   2.252  11.272  0.1688 -0.4750 -0.8652
 9993TIP3   OH251393   1.412   1.031   0.414  0.2098 -0.5030 -0.1995
 9993TIP3    H151394   1.345   1.044   0.481  1.1778 -1.0888  0.9077
 9993TIP3    H251395   1.484   1.087   0.440  0.8736 -1.2598 -0.3568
 9994TIP3   OH251396   1.778   1.389   2.295  0.1570  0.0630 -0.1009
 9994TIP3    H151397   1.757   1.452   2.365 -0.2047 -1.1336  0.8947
 9994TIP3    H251398   1.872   1.401   2.281  0.6469 -0.8965  1.9024
 9995TIP3   OH251399   2.207   3.388  13.297 -0.9281  0.0044 -0.2175
 9995TIP3    H151400   2.149   3.313  13.297 -1.0868  0.0975 -1.5706
 9995TIP3    H251401   2.159   3.457  13.344 -2.3665  0.3851 -2.1394
 9996TIP3   OH251402   0.820   5.018  10.582  0.4876 -0.2522 -0.3276
 9996TIP3    H151403   0.910   4.988  10.582  1.1115  1.5015 -0.3283
 9996TIP3    H251404   0.784   4.987  10.665  1.6016  0.3988  0.4201
 9997TIP3   OH251405   4.037   5.827   6.162  0.3834  0.1293 -0.1649
 9997TIP3    H151406   4.078   5.877   6.233  0.9246 -0.5380  0.0019
 9997TIP3    H251407   3.979   5.765   6.207 -0.3934  0.6956 -0.3760
 9998TIP3   OH251408   0.862   4.549  11.999  0.2813 -0.0552 -0.1859
 9998TIP3    H151409   0.789   4.486  12.003  0.3881 -0.1415  0.4987
 9998TIP3    H251410   0.939   4.498  12.024  0.5842  0.0349 -0.9246
 9999TIP3   OH251411   2.169   0.841   1.811 -0.0022 -0.1620 -0.1283
 9999TIP3    H151412   2.121   0.802   1.884 -1.5820  0.6509 -0.7012
 9999TIP3    H251413   2.200   0.925   1.845 -0.0219 -0.1521 -0.1350
10000TIP3   OH251414   3.471   5.759  11.079 -0.2903  0.1104 -0.2850
10000TIP3    H151415   3.447   5.798  10.995  0.5630  1.5327  0.1113
10000TIP3    H251416   3.550   5.708  11.061  0.6835  1.5216 -0.0935
10001TIP3   OH251417   4.315   3.788   1.660 -0.1472 -0.0119 -0.3153
10001TIP3    H151418   4.284   3.731   1.590  1.5554 -0.6861 -0.5813
10001TIP3    H251419   4.253   3.775   1.731  0.1968 -2.2868 -0.3462
10002TIP3   OH251420   2.218   5.827   6.360 -0.8230  0.3742 -0.3015
10002TIP3    H151421   2.134   5.850   6.321 -0.8713  0.7040 -0.0086
10002TIP3    H251422   2.203   5.741   6.400 -0.3630 -0.6917 -2.2601
10003TIP3   OH251423   6.295   6.077  11.189  0.1681 -0.4302  0.5482
10003TIP3    H151424   6.274   6.105  11.278  2.5289  0.3864  0.9260
10003TIP3    H251425   6.327   6.157  11.146  0.8232 -1.2004 -0.4469
10004TIP3   OH251426   5.693   6.133   5.430 -0.3987  0.3670  0.2404
10004TIP3    H151427   5.625   6.079   5.471 -0.4666 -0.3098 -0.7208
10004TIP3    H251428   5.667   6.223   5.448 -1.3920  0.1084  0.1353
10005TIP3   OH251429   3.673   4.801  13.029 -0.0138  0.1232  0.2070
10005TIP3    H151430   3.755   4.772  13.070 -0.3893 -0.7256  0.3873
10005TIP3    H251431   3.605   4.779  13.092 -0.3646  1.0694  0.1734
10006TIP3   OH251432   0.893   1.255  15.398 -0.6662  0.5561  0.2380
10006TIP3    H151433   0.846   1.294  15.472  0.1596  0.1568  0.9948
10006TIP3    H251434   0.856   1.298  15.321 -0.7608  1.8139  0.9516
10007TIP3   OH251435   0.052   3.291  16.914  0.4788  0.2153  0.4735
10007TIP3    H151436   0.060   3.379  16.877  1.9791  0.1879  0.7016
10007TIP3    H251437   0.130   3.245  16.886 -0.1078 -0.9490  0.6699
10008TIP3   OH251438   5.419   0.454   3.678  0.3930 -0.3708  0.1593
10008TIP3    H151439   5.351   0.522   3.687  2.1920  1.4605  0.7296
10008TIP3    H251440   5.391   0.403   3.602 -0.9326  1.1480 -0.4393
10009TIP3   OH251441   2.075   0.936  12.698 -0.3202  0.0297 -0.6518
10009TIP3    H151442   2.171   0.933  12.704 -0.4254 -0.6847  1.3915
10009TIP3    H251443   2.056   1.023  12.663  1.0249  0.9765  0.8574
10010TIP3   OH251444   2.877   3.663  16.103  0.2031 -0.3609 -0.3483
10010TIP3    H151445   2.790   3.700  16.114  1.1260  2.5887 -2.0500
10010TIP3    H251446   2.870   3.575  16.142 -2.8366  0.5930  1.6639
10011TIP3   OH251447   6.007   4.648   4.429 -0.9053  0.4195 -0.5635
10011TIP3    H151448   5.995   4.742   4.415  0.6765  0.5435 -1.2723
10011TIP3    H251449   5.986   4.608   4.345  0.2760  0.3420 -0.8425
10012TIP3   OH251450   3.296   4.158  11.342 -0.8784  0.5274 -0.5411
10012TIP3    H151451   3.256   4.150  11.256 -0.2255 -1.1963 -0.7188
10012TIP3    H251452   3.344   4.241  11.338 -4.3877  2.7934 -0.2562
10013TIP3   OH251453   4.758   1.820  11.684 -0.3149  0.3292 -0.0310
10013TIP3    H151454   4.695   1.892  11.681 -0.6409  0.1316  1.2409
10013TIP3    H251455   4.841   1.861  11.707 -0.5182  0.3008  0.7747
10014TIP3   OH251456   6.668   1.127  10.778  0.4290  0.5361 -1.0287
10014TIP3    H151457   6.631   1.214  10.786  1.9534  1.1755 -0.5897
10014TIP3    H251458   6.680   1.097  10.868  1.2105  0.4690 -1.1458
10015TIP3   OH251459   2.119   3.493  17.170  0.1445 -0.2831 -0.1603
10015TIP3    H151460   2.159   3.477  17.084  2.2508  0.9449  0.5144
10015TIP3    H251461   2.106   3.588  17.173  0.8621 -0.2091  1.1611
10016TIP3   OH251462   2.427   6.230  15.036  0.3814  0.1400 -0.3506
10016TIP3    H151463   2.375   6.153  15.058  0.2048  0.6771  1.2516
10016TIP3    H251464   2.495   6.233  15.104  0.9245  0.8904 -0.9118
10017TIP3   OH251465   1.229   2.845   3.282 -0.0910 -0.1163 -0.0226
10017TIP3    H151466   1.152   2.885   3.322 -0.0948 -0.2212  0.0741
10017TIP3    H251467   1.303   2.889   3.323 -0.0658 -1.0799  1.0078
10018TIP3   OH251468   2.557   0.283   0.586  0.0607  0.4671  0.0314
10018TIP3    H151469   2.480   0.336   0.565  0.8223  1.7354  0.3208
10018TIP3    H251470   2.625   0.317   0.529  0.8809  0.6169  1.0742
10019TIP3   OH251471   6.457   1.954  15.940  0.0540  0.0765  0.4832
10019TIP3    H151472   6.526   1.924  15.881  0.8093 -0.3094  1.5219
10019TIP3    H251473   6.442   1.879  15.999 -1.3358  0.1152  0.2226
10020TIP3   OH251474   1.337   3.187   5.441 -0.2561 -0.2421  0.3287
10020TIP3    H151475   1.380   3.172   5.525 -1.3829  0.1596  1.0069
10020TIP3    H251476   1.325   3.282   5.438  1.3297 -0.0368 -1.1082
10021TIP3   OH251477   0.210   4.801   4.873 -0.6291  0.2180  0.3727
10021TIP3    H151478   0.177   4.772   4.788  0.5857  1.1868 -0.4647
10021TIP3    H251479   0.279   4.738   4.895  1.5310  1.9354 -1.1168
10022TIP3   OH251480   3.162   3.275   5.329 -0.0142 -0.3489 -0.3670
10022TIP3    H151481   3.207   3.347   5.374 -2.5532  2.8547 -2.3977
10022TIP3    H251482   3.069   3.296   5.339 -0.8965 -3.5586 -0.9368
10023TIP3   OH251483   3.958   0.858   5.596 -0.1469  0.3534 -0.2355
10023TIP3    H151484   3.960   0.774   5.640  0.6816  0.6453  0.2842
10023TIP3    H251485   3.991   0.840   5.508 -0.0138  0.1262 -0.1386
10024TIP3   OH251486   2.761   3.060   2.842  0.0253  0.3511  1.1470
10024TIP3    H151487   2.839   3.078   2.894  0.4160 -2.1439  1.5720
10024TIP3    H251488   2.750   3.137   2.785  2.8856  0.6878  0.9446
10025TIP3   OH251489   4.095   2.826   1.824  0.6632 -0.3273  0.5137
10025TIP3    H151490   4.132   2.852   1.739  1.6098 -0.7911  0.7711
10025TIP3    H251491   4.164   2.774   1.865  0.2108 -0.1163  1.5684
10026TIP3   OH251492   2.481   1.245   4.288  0.4956 -0.2177  0.4806
10026TIP3    H151493   2.516   1.160   4.312  0.8041 -0.6059 -1.2233
10026TIP3    H251494   2.386   1.234   4.293  0.5367 -0.5924  0.4588
10027TIP3   OH251495   1.866   3.285   3.751  0.6730  0.0347  0.2378
10027TIP3    H151496   1.904   3.274   3.664 -0.4542  0.6433 -0.3465
10027TIP3    H251497   1.942   3.287   3.810  1.6487  1.9737 -0.9687
10028TIP3   OH251498   4.550   4.853   1.014 -0.2090  0.0893  0.2271
10028TIP3    H151499   4.585   4.773   1.053  0.5245  0.7432  0.9601
10028TIP3    H251500   4.492   4.889   1.081  0.6015  0.9163  0.5124
10029TIP3   OH251501   2.376   4.312  10.380 -0.0738  0.1044 -0.6551
10029TIP3    H151502   2.373   4.407  10.366  1.5006 -0.0552 -2.6770
10029TIP3    H251503   2.299   4.293  10.433 -0.1800  2.5652  0.2211
10030TIP3   OH251504   0.855   4.600  12.336  0.3265 -0.7318  0.0433
10030TIP3    H151505   0.812   4.523  12.299 -0.6855 -0.3888  0.4865
10030TIP3    H251506   0.834   4.598  12.429  1.8652 -0.9334  0.4245
10031TIP3   OH251507   6.058   0.163  14.806 -0.7380 -0.3310  1.4114
10031TIP3    H151508   5.987   0.128  14.753 -0.7058  0.7577  0.6159
10031TIP3    H251509   6.017   0.231  14.860 -0.2709  0.4894  0.7551
10032TIP3   OH251510   5.961   0.315  12.595 -0.3091  0.2412  0.2114
10032TIP3    H151511   6.044   0.312  12.548 -1.1970  0.6714 -1.4765
10032TIP3    H251512   5.967   0.245  12.659  0.3571 -1.4755 -1.6296
10033TIP3   OH251513   3.074   5.844  17.129  0.5339  0.0030  0.1938
10033TIP3    H151514   3.010   5.909  17.158  1.2438  0.3919  0.9500
10033TIP3    H251515   3.076   5.779  17.199  2.0778  0.8161  0.9711
10034TIP3   OH251516   1.753   4.363  12.530  0.0745  0.3817 -0.5225
10034TIP3    H151517   1.684   4.325  12.476 -0.2229  0.0530  0.0779
10034TIP3    H251518   1.792   4.288  12.574 -0.3717  0.7352  0.5028
10035TIP3   OH251519   4.253   2.646   4.486  0.1409  0.2092  0.4383
10035TIP3    H151520   4.316   2.703   4.441 -1.0306  1.2945  0.0929
10035TIP3    H251521   4.221   2.700   4.558  0.2115 -0.6408  1.1177
10036TIP3   OH251522   5.705   1.632  13.993  0.1567  0.4529  0.0772
10036TIP3    H151523   5.716   1.719  13.954  1.3519 -0.0735 -0.8179
10036TIP3    H251524   5.668   1.650  14.079 -1.8307  1.7061 -0.9466
10037TIP3   OH251525   0.362   5.676   3.363  0.0034  0.0678  0.2489
10037TIP3    H151526   0.432   5.612   3.371 -0.1969 -0.3206 -0.9292
10037TIP3    H251527   0.383   5.726   3.284 -1.0655 -0.0950 -0.1576
10038TIP3   OH251528   4.559   2.257  15.760  0.1175  0.5983 -0.5730
10038TIP3    H151529   4.627   2.314  15.794 -1.0007  1.5817  0.0729
10038TIP3    H251530   4.495   2.251  15.830 -0.9391  0.5008 -1.5196
10039TIP3   OH251531   3.168   6.567  13.198 -0.3402 -0.3790  0.6776
10039TIP3    H151532   3.194   6.534  13.112  1.3960  0.5442  0.7873
10039TIP3    H251533   3.098   6.629  13.180 -0.7227 -0.9806  0.0478
10040TIP3   OH251534   3.460   5.182   2.444  0.0754 -0.0334 -0.1669
10040TIP3    H151535   3.443   5.191   2.350  1.5148  0.7862 -0.3728
10040TIP3    H251536   3.525   5.249   2.464 -0.8165  0.3724  1.6095
10041TIP3   OH251537   0.474   6.744   3.121 -0.2566 -0.4145  0.1673
10041TIP3    H151538   0.479   6.797   3.201 -1.5531 -1.0042  0.6757
10041TIP3    H251539   0.551   6.768   3.071  1.3658 -1.0316  2.2278
10042TIP3   OH251540   5.171   6.490  14.784 -0.2429  0.0336 -0.2744
10042TIP3    H151541   5.124   6.482  14.701 -0.3236  0.6827 -0.2984
10042TIP3    H251542   5.169   6.584  14.803  1.3901  0.1393 -0.4746
10043TIP3   OH251543   4.639   4.581  16.783 -0.2084  0.0610  0.2124
10043TIP3    H151544   4.589   4.607  16.860  0.1279 -0.1745  0.5098
10043TIP3    H251545   4.725   4.557  16.817  0.9876  2.8681 -0.5136
10044TIP3   OH251546   3.698   4.266   4.472  0.4953 -0.6580  0.1856
10044TIP3    H151547   3.717   4.184   4.427  0.7966 -0.5808  0.1687
10044TIP3    H251548   3.760   4.269   4.544 -0.2939 -0.9970  0.8852
10045TIP3   OH251549   2.087   3.213  16.397  0.5883  0.0649 -0.3432
10045TIP3    H151550   2.018   3.151  16.421  1.0501 -0.5856 -0.6810
10045TIP3    H251551   2.168   3.170  16.423  0.8519  1.0287  0.4880
10046TIP3   OH251552   1.210   1.189   6.414 -0.3018  0.3656  0.2891
10046TIP3    H151553   1.146   1.172   6.345  0.3572  0.5410 -0.3815
10046TIP3    H251554   1.241   1.102   6.440  1.1457  0.3600 -1.2935
10047TIP3   OH251555   2.209   0.511   3.330  0.1518 -0.4074 -0.4872
10047TIP3    H151556   2.280   0.462   3.288  0.5712 -0.2190 -0.0229
10047TIP3    H251557   2.248   0.597   3.348  0.3627 -0.8399  1.2864
10048TIP3   OH251558   4.293   2.419   2.176 -0.0834  0.0495  0.0579
10048TIP3    H151559   4.282   2.353   2.108  2.2857 -0.0018 -0.3658
10048TIP3    H251560   4.238   2.389   2.248 -0.1865 -1.6064 -0.6718
10049TIP3   OH251561   6.350   2.157  14.088  0.2137 -0.2863  0.0353
10049TIP3    H151562   6.391   2.077  14.122  0.8416  0.5043  1.1912
10049TIP3    H251563   6.257   2.143  14.101  0.4300  0.4364  3.3430
10050TIP3   OH251564   5.291   3.035  16.180 -0.7311 -0.1820 -0.6056
10050TIP3    H151565   5.344   3.099  16.226 -0.5947 -1.0704  0.5221
10050TIP3    H251566   5.347   3.004  16.109 -0.6207  0.5667 -0.8566
10051TIP3   OH251567   5.574   1.490   4.617 -0.2138  0.5029  0.1801
10051TIP3    H151568   5.608   1.436   4.689 -0.8464 -0.4715 -0.2425
10051TIP3    H251569   5.490   1.522   4.650 -0.5496 -0.0230 -0.1471
10052TIP3   OH251570   1.118   0.541   0.759 -0.3913 -0.7778  0.4800
10052TIP3    H151571   1.045   0.494   0.800 -0.4101 -0.8659  0.3439
10052TIP3    H251572   1.176   0.473   0.725 -0.1316 -0.7144  0.7831
10053TIP3   OH251573   4.851   2.119   1.021  0.2663  0.0250  0.0960
10053TIP3    H151574   4.837   2.077   0.936  0.3949 -0.7182  0.4298
10053TIP3    H251575   4.908   2.193   1.003  0.9894 -0.6287 -0.3411
10054TIP3   OH251576   5.705   5.776  15.495 -0.2863  0.1023  0.1467
10054TIP3    H151577   5.797   5.792  15.474 -0.2659 -1.1028 -0.7826
10054TIP3    H251578   5.694   5.681  15.485 -1.3007  0.0228  1.6372
10055TIP3   OH251579   2.864   5.395   3.706 -0.0545  0.1665  0.2107
10055TIP3    H151580   2.844   5.487   3.717 -1.0581 -0.1005  0.6985
10055TIP3    H251581   2.948   5.383   3.751  0.3926  0.9567 -0.3951
10056TIP3   OH251582   4.808   4.822   0.148  0.1339 -0.3141  0.1354
10056TIP3    H151583   4.815   4.884   0.221 -0.1841 -0.1504  0.0275
10056TIP3    H251584   4.797   4.737   0.190 -0.5810 -0.1591  0.2818
10057TIP3   OH251585   6.301   2.402  16.221  0.6076  0.2794  0.2555
10057TIP3    H151586   6.319   2.444  16.136  0.8672  0.4144  0.3732
10057TIP3    H251587   6.288   2.310  16.199  0.3011  0.3763  0.0241
10058TIP3   OH251588   4.702   0.232   0.357  0.2168 -1.1289  0.1370
10058TIP3    H151589   4.633   0.223   0.291  0.4280 -0.2406 -0.2165
10058TIP3    H251590   4.780   0.253   0.306  0.3480 -0.2570  0.6857
10059TIP3   OH251591   2.410   4.573   3.940  0.2215  0.0043 -0.7467
10059TIP3    H151592   2.352   4.560   4.016  0.2168 -1.4418 -0.9706
10059TIP3    H251593   2.459   4.653   3.961 -0.6351  0.3054  0.2259
10060TIP3   OH251594   2.985   4.742   5.090 -0.1693 -0.5379 -0.9915
10060TIP3    H151595   3.038   4.820   5.070  1.3815 -1.4286 -0.5565
10060TIP3    H251596   2.929   4.730   5.013 -2.1521  2.2973 -0.1422
10061TIP3   OH251597   6.680   4.686   6.752 -0.5224  0.0611 -0.4018
10061TIP3    H151598   6.702   4.594   6.768 -0.7708  0.1109  0.2861
10061TIP3    H251599   6.622   4.709   6.825  0.4294  1.0707  0.0596
10062TIP3   OH251600   4.761   0.741  13.451 -0.0144 -0.1118 -0.8825
10062TIP3    H151601   4.753   0.829  13.488 -1.9937 -0.7024  0.2395
10062TIP3    H251602   4.845   0.708  13.484 -0.2182  0.6099  0.4113
10063TIP3   OH251603   5.981   4.945  14.852  0.4772 -0.0198  0.3434
10063TIP3    H151604   6.029   4.873  14.813  1.2605  0.2462  0.7876
10063TIP3    H251605   5.910   4.903  14.901 -0.8239 -0.3300 -1.7141
10064TIP3   OH251606   6.436   0.684  14.408  0.7289 -0.0759  0.0712
10064TIP3    H151607   6.373   0.655  14.343  0.1471  0.7398  0.2630
10064TIP3    H251608   6.494   0.743  14.361  1.0849 -0.4747  0.0025
10065TIP3   OH251609   6.233   6.096   3.092 -0.3270 -0.5397 -0.2507
10065TIP3    H151610   6.247   6.114   2.999  1.5434  1.6151  0.3468
10065TIP3    H251611   6.194   6.176   3.127  0.1218 -0.8457  1.0182
10066TIP3   OH251612   5.811   4.500   3.777 -0.1983  0.2220  0.3650
10066TIP3    H151613   5.898   4.539   3.789 -0.4094  1.3627 -1.4178
10066TIP3    H251614   5.751   4.575   3.777 -1.3289 -0.5963  2.3345
10067TIP3   OH251615   0.583   3.929   3.445 -0.1868  0.4817 -0.2374
10067TIP3    H151616   0.605   3.913   3.354 -1.7930  2.4028 -1.0578
10067TIP3    H251617   0.496   3.891   3.456 -0.7678  1.7839 -0.0666
10068TIP3   OH251618   2.267   2.000  11.730 -0.2532  0.4539 -0.3282
10068TIP3    H151619   2.306   2.015  11.644  0.7720  1.0725  0.2254
10068TIP3    H251620   2.302   1.915  11.758  1.6735  1.4953  0.6402
10069TIP3   OH251621   1.138   0.132   6.100 -0.2711 -0.0443  0.2333
10069TIP3    H151622   1.114   0.101   6.188 -0.4446 -0.1234  0.1586
10069TIP3    H251623   1.231   0.110   6.091 -0.6883 -1.6739 -0.2972
10070TIP3   OH251624   3.895   4.480   1.518  0.3610 -0.3044  0.2097
10070TIP3    H151625   3.952   4.501   1.445  2.2103  1.0853  1.9493
10070TIP3    H251626   3.907   4.552   1.580 -3.3159  0.0743  0.7174
10071TIP3   OH251627   3.459   1.658   0.954 -0.9928 -0.1882 -0.5869
10071TIP3    H151628   3.427   1.627   1.038  0.5363 -1.7910 -0.5178
10071TIP3    H251629   3.381   1.678   0.903 -1.9471  0.0790  0.9452
10072TIP3   OH251630   6.759   5.831  13.329 -0.2010 -0.5782  0.4393
10072TIP3    H151631   6.729   5.835  13.419  0.5226 -2.3455  0.8107
10072TIP3    H251632   6.791   5.919  13.309 -4.1731  1.0328  0.4571
10073TIP3   OH251633   2.503   5.992   3.719  0.3991  0.4985 -0.2980
10073TIP3    H151634   2.443   6.037   3.659 -1.5060 -1.0798  0.3275
10073TIP3    H251635   2.544   5.925   3.665  1.0268  1.0783 -0.5462
10074TIP3   OH251636   1.289   2.976  15.852  0.0356 -0.1389  0.0503
10074TIP3    H151637   1.317   2.952  15.764 -0.5334  1.1796 -0.5107
10074TIP3    H251638   1.352   2.931  15.910  2.5681  1.6655 -1.1138
10075TIP3   OH251639   3.299   2.612  11.743  0.4286 -0.2019  0.4946
10075TIP3    H151640   3.296   2.520  11.717  1.7670 -0.5515  1.5339
10075TIP3    H251641   3.208   2.641  11.736 -0.1663 -1.8468  1.0449
10076TIP3   OH251642   0.185   1.685   2.368  0.3806  0.1494  0.2856
10076TIP3    H151643   0.183   1.603   2.319 -3.2861 -1.1365  2.1559
10076TIP3    H251644   0.246   1.669   2.440 -0.9077 -1.4045  1.1125
10077TIP3   OH251645   2.956   1.017  11.643  0.1812 -0.5082  0.4438
10077TIP3    H151646   2.946   0.925  11.616 -0.6397 -0.5184  0.7675
10077TIP3    H251647   2.956   1.013  11.738 -0.0430 -0.1454  0.4571
10078TIP3   OH251648   6.755   5.616  16.125 -0.3651  0.1940  0.6188
10078TIP3    H151649   6.771   5.522  16.125 -1.8910 -0.1068 -0.8606
10078TIP3    H251650   6.832   5.654  16.084 -0.8207 -0.6623 -1.0931
10079TIP3   OH251651   4.466   0.538   6.032 -0.4280 -0.1935  0.3953
10079TIP3    H151652   4.526   0.480   6.078  0.2727 -0.3901 -0.7312
10079TIP3    H251653   4.479   0.624   6.073 -0.1702 -0.4593  0.8777
10080TIP3   OH251654   1.126   2.130   3.550 -0.2335  0.0989  0.0583
10080TIP3    H151655   1.150   2.214   3.589 -0.9382  0.1291  0.4530
10080TIP3    H251656   1.201   2.106   3.496  0.2439  0.6676  0.4528
10081TIP3   OH251657   4.105   6.616   5.797 -0.9383  0.6070 -0.3732
10081TIP3    H151658   4.075   6.529   5.823  0.7883 -0.6258 -2.2157
10081TIP3    H251659   4.043   6.645   5.731  0.0387 -0.5347 -1.8463
10082TIP3   OH251660   0.236   3.963   2.651  0.3710 -0.2229 -0.3419
10082TIP3    H151661   0.270   4.028   2.590  0.8275  0.0600  0.2043
10082TIP3    H251662   0.251   3.879   2.607 -3.4593  0.0809 -2.7040
10083TIP3   OH251663   5.635   6.603   2.938  0.2099  0.1903  0.5169
10083TIP3    H151664   5.653   6.648   2.855 -0.4262  1.6997  1.1592
10083TIP3    H251665   5.655   6.511   2.920 -0.3107  0.4094 -1.4366
10084TIP3   OH251666   1.490   5.367   5.432  0.2403  0.0961 -0.0245
10084TIP3    H151667   1.477   5.461   5.441 -1.0753  0.3062 -2.9126
10084TIP3    H251668   1.582   5.353   5.453  0.1905  1.8078  1.6017
10085TIP3   OH251669   2.347   4.011  14.015  0.4602 -0.0116  0.6976
10085TIP3    H151670   2.323   3.918  14.010  0.3751  0.0852 -1.8547
10085TIP3    H251671   2.270   4.058  13.984  1.9263  0.5967 -2.4285
10086TIP3   OH251672   4.856   1.673   5.073 -0.1172  0.3460  0.6823
10086TIP3    H151673   4.925   1.697   5.011 -0.8310 -0.3566 -0.4223
10086TIP3    H251674   4.775   1.697   5.030 -0.6018  0.6217  1.7182
10087TIP3   OH251675   1.232   3.649   3.369 -0.6819  0.1549 -0.3510
10087TIP3    H151676   1.196   3.676   3.284 -1.3331  1.0483  0.1952
10087TIP3    H251677   1.160   3.605   3.413 -0.3157 -0.3927 -0.2888
10088TIP3   OH251678   4.026   1.862   6.175  0.7579  0.3425 -0.4966
10088TIP3    H151679   3.948   1.911   6.148  1.2952  0.7631 -1.3042
10088TIP3    H251680   4.013   1.848   6.269 -1.7504 -2.2654 -1.0813
10089TIP3   OH251681   6.257   1.398   5.362 -0.2491  0.0431  0.2450
10089TIP3    H151682   6.285   1.488   5.377  0.3830 -0.3643  1.6836
10089TIP3    H251683   6.205   1.402   5.282 -1.9730  2.0593  1.3701
10090TIP3   OH251684   1.818   6.420   1.237  0.0535  0.0618 -0.1310
10090TIP3    H151685   1.790   6.344   1.186 -1.5494  1.0400 -0.7747
10090TIP3    H251686   1.739   6.447   1.285  0.6682  1.1592  0.2934
10091TIP3   OH251687   0.593   4.137  11.130  0.0986 -0.0924 -0.4634
10091TIP3    H151688   0.559   4.117  11.217 -1.7028  1.6356 -0.6695
10091TIP3    H251689   0.688   4.125  11.136  0.1645  1.1555  2.1152
10092TIP3   OH251690   5.890   4.639   5.927  0.1164  0.2615  0.0839
10092TIP3    H151691   5.840   4.704   5.976  2.2602  1.4679  0.8450
10092TIP3    H251692   5.825   4.583   5.887 -1.8218  2.3770  0.0978
10093TIP3   OH251693   5.175   1.765   4.027 -0.4539  0.0986  0.0441
10093TIP3    H151694   5.111   1.791   3.960 -0.1402 -0.7519 -0.5955
10093TIP3    H251695   5.187   1.671   4.014 -0.8014 -0.2015  1.6648
10094TIP3   OH251696   4.046   0.208   3.448  0.0028 -0.0883 -0.3394
10094TIP3    H151697   4.053   0.259   3.368  1.0002 -0.0507 -0.2428
10094TIP3    H251698   3.980   0.142   3.429 -0.2115  0.3025 -0.9787
10095TIP3   OH251699   6.575   1.299  16.942  0.2012  0.1978 -0.0488
10095TIP3    H151700   6.502   1.324  16.884  0.2474  1.4203  0.3868
10095TIP3    H251701   6.633   1.375  16.941  1.8272 -0.9887 -0.8931
10096TIP3   OH251702   5.287   2.864  16.427 -0.3897 -0.1553  0.2380
10096TIP3    H151703   5.221   2.843  16.361  0.2654  1.1037 -0.8480
10096TIP3    H251704   5.271   2.956  16.448 -1.3054 -0.7922  2.6995
10097TIP3   OH251705   3.209   6.353   0.566  0.5929 -0.2266 -0.6459
10097TIP3    H151706   3.272   6.424   0.580  0.4715  0.3674 -2.7411
10097TIP3    H251707   3.124   6.397   0.564  0.0651 -0.9982  1.9608
10098TIP3   OH251708   6.587   2.118  10.959  0.4016  1.1519  0.3288
10098TIP3    H151709   6.609   2.059  10.887 -2.5324  1.6529 -1.1030
10098TIP3    H251710   6.565   2.060  11.032 -1.2579  0.4603 -0.6848
10099TIP3   OH251711   4.464   5.824  14.024 -0.8723  0.4480 -0.1145
10099TIP3    H151712   4.431   5.734  14.021 -0.9448  0.4448  0.5878
10099TIP3    H251713   4.421   5.863  14.099  0.7391  0.4204  0.8832
10100TIP3   OH251714   5.337   6.129   1.568  0.2333 -0.0114  0.2531
10100TIP3    H151715   5.353   6.039   1.539  2.4727  0.5308 -0.4189
10100TIP3    H251716   5.242   6.137   1.574 -0.0694 -1.9028 -1.3633
10101TIP3   OH251717   4.053   4.235   4.482  0.1540 -0.0833 -0.6249
10101TIP3    H151718   4.034   4.263   4.392  0.6840  0.1357 -0.6705
10101TIP3    H251719   4.076   4.316   4.528 -2.4026  0.1861  0.3255
10102TIP3   OH251720   4.802   0.209  12.962 -0.5855  0.2299 -0.3411
10102TIP3    H151721   4.747   0.137  12.995  0.7691 -1.3616 -1.4213
10102TIP3    H251722   4.808   0.270  13.036 -2.1689 -0.5002  0.4459
10103TIP3   OH251723   6.690   6.752  16.273  0.9284  0.1590  0.0119
10103TIP3    H151724   6.720   6.787  16.356 -0.3364 -0.7510  0.8861
10103TIP3    H251725   6.770   6.727  16.227  1.7744  2.6373  0.0066
10104TIP3   OH251726   0.160   5.295   2.722  0.7057  0.3669 -0.1075
10104TIP3    H151727   0.204   5.227   2.773  0.0961  0.1775  0.1738
10104TIP3    H251728   0.135   5.361   2.786 -2.3420 -1.0380  0.3150
10105TIP3   OH251729   2.752   0.142  16.294 -0.1077  0.2355 -0.3913
10105TIP3    H151730   2.759   0.110  16.384 -3.3852  0.6982  0.1549
10105TIP3    H251731   2.809   0.219  16.291 -0.0143  0.2671  1.2949
10106TIP3   OH251732   6.356   4.990   3.598 -0.0408 -0.0139 -0.2142
10106TIP3    H151733   6.406   4.914   3.571 -1.8387 -0.7155 -1.7295
10106TIP3    H251734   6.384   5.060   3.540  0.3760  0.0414  0.0508
10107TIP3   OH251735   0.772   2.392   4.165  0.0780  0.3077 -0.3863
10107TIP3    H151736   0.685   2.352   4.163  0.2348 -0.3295  2.1656
10107TIP3    H251737   0.754   2.486   4.163 -0.8749  0.2538  2.0452
10108TIP3   OH251738   0.145   5.585  11.928  0.0196  0.6489  0.1922
10108TIP3    H151739   0.095   5.654  11.970 -0.0617 -0.1073  1.3868
10108TIP3    H251740   0.083   5.542  11.870 -0.3492  0.6027  0.6145
10109TIP3   OH251741   2.709   0.927  17.156  0.4170  0.4499  0.3284
10109TIP3    H151742   2.648   0.853  17.151 -0.0043  0.8519 -1.0482
10109TIP3    H251743   2.685   0.973  17.236  0.2581 -0.5410  0.8612
10110TIP3   OH251744   3.587   1.639   5.922 -0.0428 -0.4897 -0.0296
10110TIP3    H151745   3.536   1.676   5.849 -2.9504 -2.4673  0.8213
10110TIP3    H251746   3.658   1.591   5.879  0.2893  1.0939 -1.3620
10111TIP3   OH251747   3.031   1.933   0.170 -0.3749  0.1805  0.2078
10111TIP3    H151748   2.985   1.870   0.115 -0.4202 -0.3125  0.7950
10111TIP3    H251749   2.971   1.947   0.244  0.4998 -0.6259  1.0874
10112TIP3   OH251750   6.706   6.435  13.314 -0.2253 -0.1941 -0.0511
10112TIP3    H151751   6.802   6.436  13.314 -0.2247  0.2325 -0.4391
10112TIP3    H251752   6.683   6.370  13.379  0.3095  1.1593  1.5665
10113TIP3   OH251753   4.985   3.572  11.958  0.6327 -0.4786 -0.2907
10113TIP3    H151754   4.899   3.602  11.930  1.3487  0.9007 -1.1358
10113TIP3    H251755   4.968   3.515  12.033 -1.0601 -0.9697 -1.0163
10114TIP3   OH251756   2.831   2.320   1.654 -0.0617  0.4573 -0.0351
10114TIP3    H151757   2.769   2.302   1.583 -0.6821 -0.0478  0.6120
10114TIP3    H251758   2.912   2.277   1.626 -0.4305 -0.1191 -0.2516
10115TIP3   OH251759   0.657   1.353   5.741  0.2770 -0.2253  0.0110
10115TIP3    H151760   0.631   1.324   5.829 -1.2941  0.5024 -0.1717
10115TIP3    H251761   0.676   1.272   5.694  0.1365 -0.6844  0.7226
10116TIP3   OH251762   0.151   2.127   3.874 -0.0928 -0.1514  0.1314
10116TIP3    H151763   0.225   2.186   3.859 -0.3724  0.0408 -0.5254
10116TIP3    H251764   0.189   2.039   3.871  0.2818 -0.0208  0.8581
10117TIP3   OH251765   4.936   4.182   1.673 -0.7625 -0.2635 -0.4064
10117TIP3    H151766   4.898   4.094   1.676 -1.6264  0.0726 -1.1896
10117TIP3    H251767   4.875   4.236   1.724  0.0633 -0.2166  0.5525
10118TIP3   OH251768   2.411   5.254   4.553 -0.3955 -0.3620 -0.5552
10118TIP3    H151769   2.344   5.259   4.621  0.4972 -3.1970  0.7201
10118TIP3    H251770   2.363   5.256   4.471 -1.8189 -0.0438  0.2517
10119TIP3   OH251771   6.250   1.798  11.104  0.5285 -0.3915  0.1328
10119TIP3    H151772   6.279   1.818  11.015 -0.5632  0.0682 -0.1350
10119TIP3    H251773   6.294   1.863  11.159  1.5034 -0.9092  0.0012
10120TIP3   OH251774   4.361   2.298  13.248  0.5881 -0.3383 -0.0228
10120TIP3    H151775   4.314   2.351  13.183 -0.0626 -0.7577  0.0972
10120TIP3    H251776   4.413   2.362  13.297 -0.4617  0.2432  0.3554
10121TIP3   OH251777   6.727   1.553  15.511  0.3573 -0.5481  0.3370
10121TIP3    H151778   6.792   1.607  15.555 -0.7383  1.7480 -0.7320
10121TIP3    H251779   6.751   1.556  15.419 -0.4357 -0.8701  0.1094
10122TIP3   OH251780   5.536   0.939  15.867  0.5607 -0.3307 -0.4472
10122TIP3    H151781   5.536   0.878  15.794  0.6450  0.2700 -0.9612
10122TIP3    H251782   5.599   0.903  15.929 -0.3277 -1.4400 -0.1562
10123TIP3   OH251783   3.255   4.272   1.026  0.1286 -0.1262 -0.0564
10123TIP3    H151784   3.195   4.335   1.067  1.1162 -1.5510  4.0814
10123TIP3    H251785   3.226   4.187   1.058  1.2641 -1.4271 -2.2470
10124TIP3   OH251786   0.324   3.703  15.420 -0.2931 -0.1741  0.5162
10124TIP3    H151787   0.373   3.780  15.450 -0.5112 -0.9697  3.1748
10124TIP3    H251788   0.392   3.639  15.399 -0.0956  0.7844 -2.1032
10125TIP3   OH251789   6.453   6.189  16.983 -0.4805  0.0367 -0.3581
10125TIP3    H151790   6.431   6.180  17.075 -1.3303  1.2909 -0.3969
10125TIP3    H251791   6.446   6.101  16.947 -1.2436 -0.2892  0.5586
10126TIP3   OH251792   1.417   5.666   3.006  0.2250  0.6329  0.6583
10126TIP3    H151793   1.432   5.760   2.999  0.5699  0.7148  2.1111
10126TIP3    H251794   1.350   5.647   2.940  0.2960  1.8559  0.2129
10127TIP3   OH251795   5.407   4.285  16.890  0.5379 -0.1150 -0.4026
10127TIP3    H151796   5.350   4.353  16.854  0.7911  0.1160 -0.3649
10127TIP3    H251797   5.386   4.207  16.839 -2.6127 -1.0879  2.0616
10128TIP3   OH251798   4.348   6.774   1.754 -0.0170 -0.2993 -0.1872
10128TIP3    H151799   4.301   6.852   1.783 -2.2444 -1.5540 -0.2491
10128TIP3    H251800   4.353   6.718   1.832  0.5726 -0.5716 -0.4155
10129TIP3   OH251801   0.310   5.737  14.276 -0.1282  0.2980  0.0952
10129TIP3    H151802   0.259   5.708  14.352 -1.1377  1.4146 -0.1198
10129TIP3    H251803   0.257   5.711  14.201  1.5529 -2.1485 -0.3786
10130TIP3   OH251804   2.041   1.871   3.244 -0.2922  0.2577  0.5297
10130TIP3    H151805   2.046   1.782   3.278  0.6496  0.6452  1.4684
10130TIP3    H251806   1.950   1.880   3.215 -0.0408 -1.4900 -1.0335
10131TIP3   OH251807   2.944   2.947   1.968 -0.0613 -0.4318  0.4076
10131TIP3    H151808   2.977   3.000   2.040 -0.0369  0.0070  0.0776
10131TIP3    H251809   2.901   3.010   1.909  1.0708 -0.5863 -0.6242
10132TIP3   OH251810   3.383   4.758  14.317  0.5224  0.2076  0.4307
10132TIP3    H151811   3.412   4.736  14.406 -1.8606 -0.5105  1.0981
10132TIP3    H251812   3.293   4.725  14.313  0.1560  1.3598 -1.8440
10133TIP3   OH251813   3.709   2.042   1.423 -0.2863  0.0867  0.3667
10133TIP3    H151814   3.782   2.105   1.429  2.0544 -2.4294  0.2159
10133TIP3    H251815   3.665   2.049   1.507  0.2266  1.5251  0.5535
10134TIP3   OH251816   5.974   5.731   3.502 -0.4606 -0.5688  0.9514
10134TIP3    H151817   5.893   5.757   3.547 -0.8103  1.3506 -0.6961
10134TIP3    H251818   6.024   5.812   3.493  0.6793 -1.3525  0.0060
10135TIP3   OH251819   6.618   5.828  11.529  1.0426  0.1709 -0.0709
10135TIP3    H151820   6.577   5.759  11.477  0.8897  1.0453 -1.1537
10135TIP3    H251821   6.677   5.782  11.588 -0.6877 -1.0523  0.7944
10136TIP3   OH251822   5.773   6.128   1.043  0.2387  0.1121  0.3419
10136TIP3    H151823   5.821   6.045   1.032  1.9008  1.2715 -1.7222
10136TIP3    H251824   5.799   6.158   1.130  2.2101  0.0119 -0.1674
10137TIP3   OH251825   3.279   5.802   2.344 -0.4482  0.9036  0.3131
10137TIP3    H151826   3.246   5.813   2.433 -0.7705  1.5595  0.1178
10137TIP3    H251827   3.343   5.732   2.351 -0.4566  0.9611  1.0660
10138TIP3   OH251828   4.469   2.468   3.885  0.0242  0.2576 -0.4723
10138TIP3    H151829   4.521   2.399   3.843 -1.8565 -1.8589  0.5027
10138TIP3    H251830   4.387   2.469   3.835 -0.0121  1.7678 -0.4057
10139TIP3   OH251831   5.226   4.518  11.616 -0.4057 -0.0565  0.1306
10139TIP3    H151832   5.279   4.531  11.538 -0.6715 -0.3588 -0.1007
10139TIP3    H251833   5.241   4.597  11.669  0.8147 -0.4425  0.3910
10140TIP3   OH251834   1.352   1.284   1.794  0.4820  0.6206  0.4153
10140TIP3    H151835   1.395   1.237   1.865  0.6733  1.4503  0.8606
10140TIP3    H251836   1.292   1.221   1.755  0.6837  0.0393  1.0481
10141TIP3   OH251837   2.703   0.655   5.092 -0.1565 -0.8753 -1.0201
10141TIP3    H151838   2.791   0.645   5.055  1.2493  2.2238  1.0430
10141TIP3    H251839   2.664   0.727   5.044  1.2440  2.4015  2.2900
10142TIP3   OH251840   2.782   4.455   6.229  0.2043 -0.1479  0.3354
10142TIP3    H151841   2.784   4.462   6.324  0.8991 -3.0468  0.6425
10142TIP3    H251842   2.710   4.394   6.211  0.7659 -0.4853 -0.8964
10143TIP3   OH251843   4.831   0.614  16.322 -0.1306  0.3016 -0.3066
10143TIP3    H151844   4.878   0.548  16.373 -1.5139 -1.2759 -0.9509
10143TIP3    H251845   4.899   0.675  16.292  0.7367  1.3738  3.3751
10144TIP3   OH251846   6.620   6.071  11.222 -0.7369  0.4199 -0.5081
10144TIP3    H151847   6.609   6.059  11.128  1.4068 -1.7686 -0.5728
10144TIP3    H251848   6.636   6.165  11.233 -1.9735  0.8684 -2.1653
10145TIP3   OH251849   2.510   4.426   6.128  0.4599  0.2687 -0.6101
10145TIP3    H151850   2.428   4.420   6.078 -0.1788 -2.2965  0.5630
10145TIP3    H251851   2.484   4.466   6.211  0.7423  0.8828 -0.8086
10146TIP3   OH251852   5.921   0.431  14.159  0.0303  0.3673 -0.2936
10146TIP3    H151853   5.965   0.516  14.152  1.7381  0.0436  3.6610
10146TIP3    H251854   5.992   0.367  14.151 -0.2758 -0.3441  1.8460
10147TIP3   OH251855   3.712   0.535   3.347  0.0250 -0.1042 -0.3283
10147TIP3    H151856   3.805   0.523   3.367  0.4845  0.1952 -2.1190
10147TIP3    H251857   3.706   0.625   3.315 -0.5593 -0.6482 -1.8003
10148TIP3   OH251858   4.816   1.780   1.515 -0.3014 -0.0608 -0.2030
10148TIP3    H151859   4.850   1.865   1.488 -1.7730  0.6572  0.1225
10148TIP3    H251860   4.891   1.735   1.553  0.6569  0.8245 -0.9942
10149TIP3   OH251861   5.573   5.681   2.812  0.4140 -0.7857  0.2595
10149TIP3    H151862   5.553   5.703   2.903 -1.4191 -1.5289  0.0871
10149TIP3    H251863   5.665   5.706   2.800  0.1144  1.2857  1.6947
10150TIP3   OH251864   4.336   0.128  15.034  0.1316 -0.2621 -0.7425
10150TIP3    H151865   4.407   0.116  15.097  0.7012 -1.9619 -1.6405
10150TIP3    H251866   4.329   0.044  14.989 -1.0301  0.5352 -2.1505
10151TIP3   OH251867   1.098   4.776   5.426  0.0304 -0.0287  0.5996
10151TIP3    H151868   1.152   4.830   5.369 -1.3651  0.2277 -0.5285
10151TIP3    H251869   1.012   4.818   5.426 -0.5739 -1.1824  1.2244
10152TIP3   OH251870   6.105   5.239  16.308  0.1534 -0.1967 -0.2584
10152TIP3    H151871   6.038   5.175  16.331  0.7073 -0.4977  0.5674
10152TIP3    H251872   6.132   5.277  16.392  0.5564  0.3858 -0.6437
10153TIP3   OH251873   3.581   2.031   4.573 -0.1389  0.0242 -0.3439
10153TIP3    H151874   3.617   2.087   4.504 -0.7592 -0.8948 -1.4530
10153TIP3    H251875   3.558   1.950   4.528 -0.8877 -0.4743  0.8876
10154TIP3   OH251876   3.175   3.844   3.225 -0.5226 -0.6727 -0.1448
10154TIP3    H151877   3.248   3.833   3.164  1.3985  1.3414  1.6120
10154TIP3    H251878   3.112   3.898   3.177 -0.2820 -1.3021 -1.2163
10155TIP3   OH251879   1.022   3.254  14.912 -0.2332  0.1403  0.1209
10155TIP3    H151880   1.076   3.304  14.850 -1.0473 -0.5977 -1.2210
10155TIP3    H251881   1.067   3.264  14.996  1.2104  0.7102 -0.6822
10156TIP3   OH251882   0.009   0.499   3.216  0.6019 -0.4782  0.1142
10156TIP3    H151883   0.104   0.510   3.209  0.6560 -1.0102 -0.0433
10156TIP3    H251884  -0.025   0.527   3.131  0.5070  0.7869  0.5527
10157TIP3   OH251885   2.365   2.609   5.536 -0.2562 -0.7448  0.7274
10157TIP3    H151886   2.356   2.514   5.540 -0.3918 -0.7897 -0.4290
10157TIP3    H251887   2.449   2.624   5.493 -1.3481 -0.3820 -1.4215
10158TIP3   OH251888   0.050   0.392  11.575  0.3779 -0.3262  0.5334
10158TIP3    H151889  -0.028   0.351  11.612  0.0578  0.7679  1.1099
10158TIP3    H251890   0.034   0.392  11.480 -0.3565 -0.0690  0.6481
10159TIP3   OH251891   5.921   4.522  12.810 -0.0610 -0.0100  0.0429
10159TIP3    H151892   5.990   4.465  12.845  1.6263  1.2445 -1.0484
10159TIP3    H251893   5.902   4.583  12.881  1.3591  0.8099 -0.2424
10160TIP3   OH251894   3.754   0.825   1.756 -0.1833 -0.1471 -0.1551
10160TIP3    H151895   3.814   0.854   1.824 -0.7331  1.9548 -0.4884
10160TIP3    H251896   3.800   0.840   1.674 -0.3462 -0.6024 -0.3357
10161TIP3   OH251897   0.341   0.910   6.003  0.0682 -0.2355 -0.1321
10161TIP3    H151898   0.385   0.853   5.941 -1.9843 -0.7443 -1.1942
10161TIP3    H251899   0.342   0.997   5.962  1.1841  0.0409  0.4448
10162TIP3   OH251900   0.070   6.074  13.316  0.9690 -0.1613 -0.4264
10162TIP3    H151901   0.120   6.118  13.385 -0.6610  2.5514 -0.8196
10162TIP3    H251902   0.086   6.126  13.238 -1.6618  0.3155 -0.7575
10163TIP3   OH251903   2.663   4.605   4.576 -0.0809 -0.1007 -0.4966
10163TIP3    H151904   2.617   4.583   4.495  0.4304  0.2687 -0.8926
10163TIP3    H251905   2.755   4.588   4.557 -0.1259 -1.7748  0.6080
10164TIP3   OH251906   6.670   4.199   6.421  0.0247  0.1348 -0.1147
10164TIP3    H151907   6.599   4.218   6.482  0.7052 -0.4379  0.8985
10164TIP3    H251908   6.733   4.148   6.473  0.0001 -1.5932 -1.6538
10165TIP3   OH251909   5.239   2.004  11.493 -0.2658 -0.1147  0.5477
10165TIP3    H151910   5.207   2.094  11.496 -1.7180 -0.5870 -0.1796
10165TIP3    H251911   5.299   2.002  11.418  0.9572  0.5782  1.4567
10166TIP3   OH251912   1.101   4.377   6.785  0.0008  0.3064  0.0304
10166TIP3    H151913   1.046   4.298   6.780 -0.7809  0.8932 -0.7937
10166TIP3    H251914   1.141   4.371   6.872 -1.0364 -0.3544  0.4930
10167TIP3   OH251915   5.651   3.301  15.066  0.5713 -0.4226  0.0968
10167TIP3    H151916   5.581   3.319  15.129  1.1059  0.9378  0.3364
10167TIP3    H251917   5.630   3.214  15.031 -2.1214  0.5925 -1.0595
10168TIP3   OH251918   0.237   1.172  15.889 -0.0278  0.2916  0.0702
10168TIP3    H151919   0.254   1.189  15.797 -1.4840  1.4224 -0.0392
10168TIP3    H251920   0.160   1.115  15.889  0.7511 -0.7871  0.5828
10169TIP3   OH251921   4.066   6.773   1.934 -0.4452 -0.1098  0.7951
10169TIP3    H151922   4.093   6.685   1.907 -0.2218 -0.6263  2.5848
10169TIP3    H251923   4.009   6.803   1.863  1.5600 -0.5951 -1.1641
10170TIP3   OH251924   4.959   2.720   2.506  0.4094  0.8768  0.1736
10170TIP3    H151925   4.928   2.786   2.568  0.1181  0.1670  0.7895
10170TIP3    H251926   4.971   2.641   2.558 -0.3082  0.1346 -0.7413
10171TIP3   OH251927   5.464   5.181  15.377 -0.1268 -0.2907  0.2002
10171TIP3    H151928   5.430   5.224  15.299  0.0494 -0.1495  0.1998
10171TIP3    H251929   5.429   5.232  15.450  0.2912  0.0101  0.1928
10172TIP3   OH251930   3.339   2.734   2.260 -0.5687  0.4347 -0.2976
10172TIP3    H151931   3.297   2.682   2.190 -0.4966 -0.8968  0.6094
10172TIP3    H251932   3.294   2.707   2.340  2.0461 -1.1680  0.7492
10173TIP3   OH251933   3.795   5.893   6.377 -0.2633 -0.5818 -0.0315
10173TIP3    H151934   3.861   5.932   6.435 -1.0607  1.0989 -0.2102
10173TIP3    H251935   3.757   5.822   6.429  0.5318 -0.5046  0.6858
10174TIP3   OH251936   4.779   3.574   1.504 -0.0780 -0.2825 -0.5985
10174TIP3    H151937   4.858   3.607   1.461 -0.5925  1.0161 -0.5738
10174TIP3    H251938   4.784   3.479   1.492  1.2699 -0.1884 -0.9588
10175TIP3   OH251939   3.715   1.312  16.532  0.0982  0.7159 -0.1859
10175TIP3    H151940   3.719   1.407  16.543 -0.5602  0.6324  0.8854
10175TIP3    H251941   3.780   1.293  16.464 -0.1290  1.9823 -0.7829
10176TIP3   OH251942   1.034   2.831   2.098  0.6656 -0.0043 -0.2664
10176TIP3    H151943   1.076   2.770   2.159  0.8399  0.4144  0.0449
10176TIP3    H251944   0.951   2.790   2.076 -0.8594  1.1589  2.6642
10177TIP3   OH251945   5.457   4.667   0.577  0.3686  1.0034 -0.2227
10177TIP3    H151946   5.413   4.583   0.567  1.8104  0.3191 -1.2046
10177TIP3    H251947   5.529   4.649   0.638  1.3381  1.2386 -1.2649
10178TIP3   OH251948   6.256   4.018  12.115  0.4181 -0.1411 -0.4445
10178TIP3    H151949   6.261   3.942  12.172 -1.1537 -0.4585 -0.7043
10178TIP3    H251950   6.184   4.070  12.150  0.7707  0.6894 -0.9190
10179TIP3   OH251951   4.150   0.063  14.002 -0.6250 -0.1796  0.1446
10179TIP3    H151952   4.131   0.148  14.041 -5.9907  0.1170 -2.2560
10179TIP3    H251953   4.119  -0.001  14.067 -2.3543  0.0114 -0.4618
10180TIP3   OH251954   5.680   6.772  14.482 -0.1851  0.1094 -0.3260
10180TIP3    H151955   5.598   6.818  14.465 -0.4381 -0.1451  0.1596
10180TIP3    H251956   5.655   6.696  14.536  0.6979  1.7205  2.6024
10181TIP3   OH251957   2.960   1.135   4.783  0.2343 -0.4338  0.2434
10181TIP3    H151958   3.054   1.131   4.803  0.2388  0.4115  0.4458
10181TIP3    H251959   2.917   1.134   4.869 -0.0411 -2.4620  0.1185
10182TIP3   OH251960   4.132   5.023  13.386  0.3282 -0.2366  0.1754
10182TIP3    H151961   4.077   4.977  13.449  0.0916  2.2630  1.9104
10182TIP3    H251962   4.094   5.111  13.379  1.4160  0.1434 -2.1188
10183TIP3   OH251963   2.992   3.294   1.479 -0.7660 -0.8989  0.0296
10183TIP3    H151964   2.911   3.291   1.529  0.5114 -0.0822  2.2771
10183TIP3    H251965   2.976   3.359   1.410 -1.9976 -0.7559  0.4395
10184TIP3   OH251966   3.066   4.065   5.005 -0.2422  0.2600 -0.0937
10184TIP3    H151967   3.117   4.126   5.058 -0.6448 -1.4254  2.4360
10184TIP3    H251968   2.987   4.113   4.981  0.0984  1.1937  0.6061
10185TIP3   OH251969   3.097   1.766  15.413 -0.3118 -0.3081  0.6967
10185TIP3    H151970   3.034   1.832  15.384  0.6636  0.2117 -0.3402
10185TIP3    H251971   3.140   1.738  15.332  0.9772 -0.4378  1.4080
10186TIP3   OH251972   1.392   3.560  13.975 -0.3308 -0.5452  0.3496
10186TIP3    H151973   1.362   3.507  14.049 -0.7789 -0.1478  0.4659
10186TIP3    H251974   1.401   3.648  14.011  2.4601 -0.8880  0.6905
10187TIP3   OH251975   6.484   6.392   4.424  0.4044  0.1889  0.4575
10187TIP3    H151976   6.454   6.404   4.514 -1.4599  0.0988 -0.1031
10187TIP3    H251977   6.480   6.298   4.410 -0.7080  0.3125 -0.1410
10188TIP3   OH251978   3.022   4.562  11.473 -0.0634  0.0246  0.3092
10188TIP3    H151979   2.951   4.553  11.408 -1.3631 -0.5449  1.7409
10188TIP3    H251980   3.042   4.655  11.473  0.3475 -0.0371 -1.2836
10189TIP3   OH251981   6.511   1.301   2.208 -0.2150  0.2081  0.2175
10189TIP3    H151982   6.506   1.216   2.253  2.9032 -0.6873 -0.8665
10189TIP3    H251983   6.525   1.364   2.279 -3.3053  0.0503  1.1181
10190TIP3   OH251984   1.944   1.984  11.711  0.2534  0.0774 -0.1755
10190TIP3    H151985   2.031   1.949  11.687  0.2724 -0.0780  0.1190
10190TIP3    H251986   1.888   1.907  11.715 -0.0428  0.2381 -0.9565
10191TIP3   OH251987   2.388   1.278  16.410  0.2489 -0.2825 -0.2109
10191TIP3    H151988   2.424   1.355  16.455 -1.1121  0.5011 -0.4303
10191TIP3    H251989   2.437   1.273  16.328  1.0677 -0.2894  0.2600
10192TIP3   OH251990   2.226   2.917  12.865  0.2820 -0.6158 -0.0237
10192TIP3    H151991   2.209   2.972  12.789 -0.9667 -0.4216  0.3733
10192TIP3    H251992   2.321   2.923  12.878  0.3637  0.2305 -0.8835
10193TIP3   OH251993   1.855   4.102   1.486  0.2564 -0.0270  0.5924
10193TIP3    H151994   1.829   4.179   1.435  1.9681 -0.0932 -0.4393
10193TIP3    H251995   1.822   4.120   1.574 -2.2660  0.3496 -0.3621
10194TIP3   OH251996   6.231   2.925  11.986  0.1226  0.5150  0.3221
10194TIP3    H151997   6.151   2.895  11.943  1.8722 -1.1498 -2.0851
10194TIP3    H251998   6.227   2.888  12.074 -0.3211 -2.4479 -0.8215
10195TIP3   OH251999   0.852   6.178   3.891 -0.1220 -0.2443  0.6803
10195TIP3    H152000   0.824   6.262   3.928  1.3554  0.4866  0.2053
10195TIP3    H252001   0.946   6.187   3.879 -0.3964 -0.5733 -2.8921
10196TIP3   OH252002   0.090   4.130  15.197 -0.1540 -0.1666 -0.1425
10196TIP3    H152003   0.181   4.115  15.170 -0.7082 -1.5110 -1.4376
10196TIP3    H252004   0.039   4.074  15.139 -1.9592  1.7733 -0.5296
10197TIP3   OH252005   6.002   6.678   1.245  0.2464 -0.9225  0.0549
10197TIP3    H152006   5.973   6.703   1.157 -1.2353 -1.4183  0.3678
10197TIP3    H252007   6.003   6.759   1.295  1.8274 -0.5135 -0.5846
10198TIP3   OH252008   6.462   0.970   0.708 -0.5500 -0.3827  0.2429
10198TIP3    H152009   6.557   0.959   0.701 -0.6040 -0.6136 -0.1583
10198TIP3    H252010   6.427   0.917   0.637 -1.0020 -0.7125  0.7042
10199TIP3   OH252011   2.229   2.316   5.157  0.4671  0.2265 -0.2643
10199TIP3    H152012   2.169   2.282   5.223 -1.2514  0.4268 -1.6387
10199TIP3    H252013   2.305   2.346   5.206 -0.3688 -0.4390  1.5171
10200TIP3   OH252014   3.469   6.695  15.858  0.2748  0.1250  0.0354
10200TIP3    H152015   3.500   6.748  15.785 -0.6468 -0.8377 -1.1053
10200TIP3    H252016   3.507   6.608  15.844 -2.2253 -0.8948 -1.0213
10201TIP3   OH252017   6.649   5.844   2.173  0.3548 -0.5928  0.5102
10201TIP3    H152018   6.737   5.875   2.194 -0.5432  1.9983  0.7614
10201TIP3    H252019   6.634   5.873   2.083 -0.5086 -0.3876  0.7099
10202TIP3   OH252020   6.288   4.237   1.854 -0.5217  0.3030  0.1896
10202TIP3    H152021   6.220   4.198   1.908  2.0470 -3.7016  0.9413
10202TIP3    H252022   6.344   4.283   1.916 -0.6489  0.6398  0.0592
10203TIP3   OH252023   5.304   3.762  12.809  0.0248  0.4931  0.0792
10203TIP3    H152024   5.231   3.724  12.759  0.2114 -0.1300  0.2735
10203TIP3    H252025   5.271   3.846  12.839 -0.5194  0.3371 -0.0698
10204TIP3   OH252026   1.452   5.400   2.514  0.2008  0.2579  0.8428
10204TIP3    H152027   1.530   5.428   2.466  0.8294 -0.7746  1.2287
10204TIP3    H252028   1.418   5.327   2.462  1.9075 -2.0697  2.8133
10205TIP3   OH252029   1.974   1.029   4.193  0.5386 -0.1209  0.4133
10205TIP3    H152030   1.981   1.097   4.260 -0.4684 -0.4017  0.8179
10205TIP3    H252031   2.028   0.957   4.226 -1.2029 -0.8789  1.7303
10206TIP3   OH252032   6.684   4.100  11.984  0.2277  0.0892  0.2131
10206TIP3    H152033   6.668   4.005  11.983  0.6880 -0.0016 -0.8813
10206TIP3    H252034   6.691   4.123  11.891 -2.7352  1.7099  0.3017
10207TIP3   OH252035   6.091   1.801   1.151  0.6798 -0.1188 -0.3317
10207TIP3    H152036   6.018   1.761   1.103 -0.3226  0.1598  0.8775
10207TIP3    H252037   6.169   1.755   1.120 -0.2439 -1.8142 -0.2548
10208TIP3   OH252038   3.992   2.715   0.039 -0.0926 -0.2107 -0.4185
10208TIP3    H152039   4.070   2.770   0.042 -0.1028 -0.2173  0.1227
10208TIP3    H252040   3.928   2.765  -0.011 -0.4595  0.7431  0.9604
10209TIP3   OH252041   6.472   4.381   4.501 -0.0416 -0.3335 -0.2925
10209TIP3    H152042   6.537   4.451   4.499  0.8727 -1.1554 -0.0908
10209TIP3    H252043   6.523   4.301   4.511 -0.8942 -1.2644 -2.6072
10210TIP3   OH252044   5.485   1.279  12.689  0.1726 -0.0699 -0.4292
10210TIP3    H152045   5.567   1.322  12.666  1.0921 -1.6040 -0.1982
10210TIP3    H252046   5.467   1.221  12.616 -0.6189  0.1170 -0.3896
10211TIP3   OH252047   2.685   1.621  12.775 -0.5555 -0.0712 -0.2320
10211TIP3    H152048   2.680   1.551  12.711 -0.6934  1.7628 -2.3612
10211TIP3    H252049   2.618   1.600  12.840 -2.0891 -0.8244 -1.9686
10212TIP3   OH252050   1.353   1.905   1.205  0.1860  0.3798 -0.1512
10212TIP3    H152051   1.414   1.959   1.256 -0.2028  0.0220  0.7164
10212TIP3    H252052   1.378   1.815   1.226  0.6553  0.2035 -1.3797
10213TIP3   OH252053   1.510   3.791  16.400  0.1702 -0.4313  0.7346
10213TIP3    H152054   1.442   3.804  16.334 -0.6413 -0.8728  1.4524
10213TIP3    H252055   1.515   3.875  16.446  0.8286 -0.0817  0.0485
10214TIP3   OH252056   0.881   1.109   3.181  0.1840  0.1328  0.4982
10214TIP3    H152057   0.934   1.097   3.102 -0.4292 -1.6705  0.3116
10214TIP3    H252058   0.803   1.155   3.150 -0.3507 -1.1350 -0.1110
10215TIP3   OH252059   2.743   2.941   5.843  0.0184 -0.4859  0.0448
10215TIP3    H152060   2.783   3.022   5.874  0.7732  0.6764 -3.5234
10215TIP3    H252061   2.665   2.930   5.898 -0.2880  2.8323  0.4340
10216TIP3   OH252062   4.381   5.073  16.903 -0.5059 -0.8999 -0.4398
10216TIP3    H152063   4.303   5.104  16.949 -0.6792 -0.2638 -1.1532
10216TIP3    H252064   4.427   5.019  16.968 -0.5089  0.3409  0.6268
10217TIP3   OH252065   2.673   6.773   4.068 -0.7742 -0.0435 -0.5532
10217TIP3    H152066   2.579   6.790   4.076 -0.9316 -0.6047 -1.1308
10217TIP3    H252067   2.681   6.679   4.078 -0.2864 -0.0175 -0.6857
10218TIP3   OH252068   1.657   1.004  13.183  0.7692 -0.3934 -0.1625
10218TIP3    H152069   1.564   1.027  13.177  1.4066  2.0766 -2.8752
10218TIP3    H252070   1.696   1.076  13.233  1.3125 -1.3010  0.7590
10219TIP3   OH252071   3.392   2.660   2.933 -0.3083  0.5050  0.3976
10219TIP3    H152072   3.351   2.701   2.856 -1.8972  1.0323  1.4594
10219TIP3    H252073   3.471   2.618   2.899 -1.9209 -0.9186 -1.8816
10220TIP3   OH252074   3.893   0.866  13.774  0.8211 -0.0171 -0.3728
10220TIP3    H152075   3.969   0.896  13.725  0.5086 -0.3349 -1.0648
10220TIP3    H252076   3.850   0.804  13.716 -0.4789  0.8458 -0.3710
10221TIP3   OH252077   6.419   5.363  16.264 -0.0692  0.0212  0.4860
10221TIP3    H152078   6.392   5.272  16.259 -0.5843  0.0722  1.8929
10221TIP3    H252079   6.506   5.361  16.303  0.0651  0.1137  0.1937
10222TIP3   OH252080   3.147   1.735   1.004  0.1556 -0.2597 -0.1004
10222TIP3    H152081   3.163   1.668   1.070  0.9348  1.9653  2.1412
10222TIP3    H252082   3.055   1.723   0.980  0.2601 -2.0646  0.2552
10223TIP3   OH252083   0.860   2.513   4.455  0.4813 -0.2716 -0.1428
10223TIP3    H152084   0.767   2.528   4.441 -0.4286 -2.6989  2.2751
10223TIP3    H252085   0.892   2.593   4.496 -0.9446 -0.0090  0.5131
10224TIP3   OH252086   2.499   5.754   1.297 -0.4362 -0.7671 -0.5073
10224TIP3    H152087   2.485   5.844   1.266 -0.5450  0.0462  1.7293
10224TIP3    H252088   2.579   5.759   1.349  1.0670 -2.5891 -2.4359
10225TIP3   OH252089   1.110   3.702  14.197  0.0348 -0.1447 -0.3210
10225TIP3    H152090   1.017   3.723  14.200  0.1495  0.5231 -1.0087
10225TIP3    H252091   1.152   3.773  14.246  0.1025 -1.0561  0.9806
10226TIP3   OH252092   2.204   3.500  10.386  0.4434  0.7331 -0.3278
10226TIP3    H152093   2.152   3.566  10.432 -0.0297  0.6512 -0.7296
10226TIP3    H252094   2.293   3.533  10.390  0.4922  0.4989  1.0418
10227TIP3   OH252095   5.230   2.636  13.735 -0.7428  0.2545 -0.1508
10227TIP3    H152096   5.193   2.651  13.648  0.6394  0.9831 -0.6512
10227TIP3    H252097   5.319   2.606  13.718  0.3417  2.5531  0.9659
10228TIP3   OH252098   0.190   5.306   1.081 -0.0925  0.6967  0.5221
10228TIP3    H152099   0.234   5.364   1.019 -1.6579 -0.5651 -1.9388
10228TIP3    H252100   0.255   5.240   1.102  0.0014  0.2274 -1.1200
10229TIP3   OH252101   5.348   0.289   2.428  0.0345 -0.2126  0.2837
10229TIP3    H152102   5.439   0.294   2.396  0.1976 -2.8177  0.1297
10229TIP3    H252103   5.354   0.235   2.507 -1.5139 -1.5379 -0.4593
10230TIP3   OH252104   6.639   6.244  14.005  0.3620 -0.3433 -0.1483
10230TIP3    H152105   6.727   6.250  14.043  0.6910 -1.5600 -0.6796
10230TIP3    H252106   6.632   6.321  13.949  0.7170  0.2710  0.6246
10231TIP3   OH252107   6.512   5.771  13.211 -0.3329 -0.7345 -0.1854
10231TIP3    H152108   6.563   5.770  13.292 -1.1432  1.2389  0.4067
10231TIP3    H252109   6.547   5.844  13.161  0.0673 -1.8488 -1.6063
10232TIP3   OH252110   4.993   5.117   5.175  0.2476 -0.1091  0.0976
10232TIP3    H152111   4.901   5.099   5.193  0.0764  0.7376  0.1493
10232TIP3    H252112   5.040   5.040   5.207 -0.3328  0.0003  1.2578
10233TIP3   OH252113   4.643   4.099  13.310  0.0530 -0.0256  0.1411
10233TIP3    H152114   4.679   4.019  13.347 -1.4559 -0.9690 -0.3409
10233TIP3    H252115   4.712   4.133  13.253  0.3390 -1.5801 -0.4868
10234TIP3   OH252116   2.810   2.546  16.161  0.5112  0.5432 -0.5022
10234TIP3    H152117   2.846   2.505  16.082 -0.8489  0.9916 -1.3912
10234TIP3    H252118   2.715   2.533  16.154  0.2956  1.3379  0.6353
10235TIP3   OH252119   6.212   1.912   3.973 -0.4320 -0.3508  0.2333
10235TIP3    H152120   6.176   1.847   3.912 -2.5428  1.8663 -1.0441
10235TIP3    H252121   6.148   1.914   4.045  0.6937 -1.0708  1.3001
10236TIP3   OH252122   5.993   5.795  16.169 -0.1488  0.7146 -0.3316
10236TIP3    H152123   5.933   5.835  16.232  1.4861  2.2035  0.3850
10236TIP3    H252124   5.958   5.819  16.083 -1.3840  0.2554  0.0296
10237TIP3   OH252125   2.626   5.127  12.993 -0.5174 -0.2459  0.3757
10237TIP3    H152126   2.626   5.203  12.935 -1.5682 -1.0958 -0.8015
10237TIP3    H252127   2.597   5.162  13.077  0.7996  0.9674  0.3680
10238TIP3   OH252128   2.782   2.110  14.220 -0.0379 -0.3596  0.1193
10238TIP3    H152129   2.871   2.143  14.234 -0.5691  0.9764  0.5453
10238TIP3    H252130   2.793   2.038  14.158  1.5300 -1.4654  1.5959
10239TIP3   OH252131   4.310   3.726  15.745  0.0778 -0.8145  0.0476
10239TIP3    H152132   4.320   3.821  15.753  1.4396 -1.0371  1.3463
10239TIP3    H252133   4.267   3.700  15.826  1.7162 -1.5399  0.7202
10240TIP3   OH252134   6.375   2.799  15.795 -0.2467  0.7587  0.1445
10240TIP3    H152135   6.329   2.773  15.715 -0.2519  0.8497  0.1186
10240TIP3    H252136   6.432   2.870  15.768 -0.6276  1.1367  0.3251
10241TIP3   OH252137   1.877   4.451   4.116 -0.3000  0.0252 -0.0568
10241TIP3    H152138   1.836   4.371   4.084 -1.0344  1.1608 -2.1625
10241TIP3    H252139   1.900   4.432   4.207 -3.5034 -1.4338  0.5747
10242TIP3   OH252140   0.943   0.377   2.436  0.0063  0.3984 -0.6214
10242TIP3    H152141   0.944   0.294   2.388 -1.2623 -0.0416  0.0760
10242TIP3    H252142   0.910   0.441   2.373  0.7110  0.3389 -1.0702
10243TIP3   OH252143   2.589   1.145   1.398  0.5205 -0.0675 -0.6097
10243TIP3    H152144   2.661   1.209   1.390  0.5674  0.1366  1.0461
10243TIP3    H252145   2.579   1.132   1.492 -0.7014 -1.1634 -0.8594
10244TIP3   OH252146   0.259   4.777   1.882  0.0921 -0.0778 -0.0055
10244TIP3    H152147   0.224   4.688   1.870 -2.4491  0.7078  0.9523
10244TIP3    H252148   0.298   4.777   1.969 -1.7923  0.2503  0.8796
10245TIP3   OH252149   5.800   4.427   1.655  0.2485  0.2212 -0.2616
10245TIP3    H152150   5.747   4.405   1.578  0.6532  0.4802 -0.6204
10245TIP3    H252151   5.785   4.354   1.715 -1.6953  1.0063  0.2800
10246TIP3   OH252152   4.261   4.473   3.658  0.2168  0.2462  0.4614
10246TIP3    H152153   4.345   4.453   3.701  1.3033  0.1077 -1.5830
10246TIP3    H252154   4.232   4.554   3.699  0.7639 -0.2815  1.9910
10247TIP3   OH252155   2.259   6.731   0.668  0.3172 -0.1231  0.2756
10247TIP3    H152156   2.236   6.678   0.744 -1.2116 -2.3694 -1.6082
10247TIP3    H252157   2.250   6.821   0.698  0.7770 -0.8917  2.9975
10248TIP3   OH252158   5.771   6.426   3.521 -0.0953 -0.5196 -0.2471
10248TIP3    H152159   5.863   6.400   3.509  0.0976 -0.8070  1.6003
10248TIP3    H252160   5.731   6.412   3.435  1.5794 -0.3990 -1.0919
10249TIP3   OH252161   0.609   1.212   3.051 -0.0389 -0.5431  0.0946
10249TIP3    H152162   0.636   1.286   2.996 -1.3622  0.9197  1.3050
10249TIP3    H252163   0.560   1.252   3.122  0.8077 -2.4333  1.8616
10250TIP3   OH252164   2.377   5.401   4.169  0.2543 -0.4684 -0.1626
10250TIP3    H152165   2.386   5.346   4.091  0.1279 -0.4141 -0.2151
10250TIP3    H252166   2.301   5.456   4.151  0.2631 -0.4124 -0.0270
10251TIP3   OH252167   3.793   4.296   5.602  0.3986 -0.1225 -0.7166
10251TIP3    H152168   3.875   4.335   5.634 -0.1618 -0.3093  1.0536
10251TIP3    H252169   3.822   4.225   5.544  1.5011 -0.0460 -0.2847
10252TIP3   OH252170   3.364   2.099  12.755 -0.3566  0.4135 -0.5910
10252TIP3    H152171   3.442   2.064  12.798 -1.2025 -1.0260 -0.1596
10252TIP3    H252172   3.294   2.087  12.819 -1.2882 -0.0558 -1.6639
10253TIP3   OH252173   5.388   3.704  12.481  0.8723 -0.2679  0.5594
10253TIP3    H152174   5.446   3.776  12.457  0.8513  0.4233  2.4356
10253TIP3    H252175   5.438   3.652  12.544 -0.2965  0.0339  1.7913
10254TIP3   OH252176   3.914   1.556  14.279  0.8554  0.4002 -0.6894
10254TIP3    H152177   3.957   1.476  14.309  1.0679 -0.1537 -2.4025
10254TIP3    H252178   3.823   1.544  14.303  0.9850 -0.1020 -0.4261
10255TIP3   OH252179   3.493   4.920   1.161 -0.1925 -0.0645  0.2066
10255TIP3    H152180   3.519   4.934   1.252  1.4752  2.5073 -0.5598
10255TIP3    H252181   3.498   4.825   1.149  0.6137 -0.3707  2.4656
10256TIP3   OH252182   0.608   3.216  14.029 -0.0781 -0.1925  0.1345
10256TIP3    H152183   0.618   3.121  14.016  1.0703 -0.5228  2.8006
10256TIP3    H252184   0.696   3.247  14.048 -0.0400  1.8892 -2.7703
10257TIP3   OH252185   1.202   1.785  16.264  0.2724  0.8359  0.3891
10257TIP3    H152186   1.168   1.833  16.339 -1.8138 -1.1405  0.8199
10257TIP3    H252187   1.183   1.840  16.188  0.2387  1.7795  1.0732
10258TIP3   OH252188   6.579   0.503  12.397 -0.0718  0.2984  0.2104
10258TIP3    H152189   6.579   0.521  12.491 -0.9435  0.1180  0.2514
10258TIP3    H252190   6.640   0.567  12.360  2.3271 -1.2646  1.1928
10259TIP3   OH252191   1.989   3.399   0.377 -0.0772 -0.8215 -0.4438
10259TIP3    H152192   1.992   3.353   0.294  2.1037  1.0945 -1.5309
10259TIP3    H252193   2.079   3.427   0.393 -0.9195  1.2690  1.1389
10260TIP3   OH252194   1.505   1.884  11.276  0.1125  0.1801  0.4086
10260TIP3    H152195   1.570   1.819  11.247  0.2197  0.7773 -0.7483
10260TIP3    H252196   1.424   1.858  11.231 -0.0142  0.4669  0.4694
10261TIP3   OH252197   1.131   0.354  13.521  0.2493 -0.3622  0.0085
10261TIP3    H152198   1.204   0.390  13.572 -0.8804 -0.0308  1.4673
10261TIP3    H252199   1.119   0.265  13.556  0.9698 -1.0319 -1.3602
10262TIP3   OH252200   6.551   0.820  14.014 -0.3441 -0.0897 -0.3838
10262TIP3    H152201   6.488   0.872  13.962 -1.0398 -0.6491 -0.1224
10262TIP3    H252202   6.527   0.729  13.996  1.1329 -0.3454 -1.1626
10263TIP3   OH252203   1.598   1.667  13.974  0.4605 -0.5542  0.1474
10263TIP3    H152204   1.577   1.757  14.000  0.1524 -0.9827  1.4150
10263TIP3    H252205   1.688   1.673  13.939 -0.3004  0.6088 -1.8119
10264TIP3   OH252206   3.946   4.975  14.389  0.1123  0.7325 -0.4636
10264TIP3    H152207   4.022   4.957  14.333  0.7767  1.0018  0.3288
10264TIP3    H252208   3.980   5.034  14.457 -0.7713  0.7230 -0.0037
10265TIP3   OH252209   2.924   4.230  12.485 -0.0201  0.0185 -0.3178
10265TIP3    H152210   2.845   4.181  12.508 -0.8600  1.3561 -0.2260
10265TIP3    H252211   2.977   4.231  12.564 -0.6196  0.3874  0.0868
10266TIP3   OH252212   5.000   5.422  11.382  0.0856 -0.3447 -0.7049
10266TIP3    H152213   4.968   5.460  11.463  1.6874 -1.8167  0.6903
10266TIP3    H252214   4.987   5.492  11.316  0.0272  1.3974  1.0581
10267TIP3   OH252215   4.345   1.065  14.299 -0.2532 -0.2199 -0.0573
10267TIP3    H152216   4.410   1.128  14.329 -0.7675  0.0161  0.6053
10267TIP3    H252217   4.369   0.983  14.342  0.5674 -0.5535 -1.1216
10268TIP3   OH252218   2.812   3.068  11.388 -0.0112 -0.2098 -0.2158
10268TIP3    H152219   2.849   3.076  11.300  0.1251 -1.3076 -0.2749
10268TIP3    H252220   2.875   3.111  11.445 -1.1045  2.4418 -0.8377
10269TIP3   OH252221   1.303   0.125   2.810 -0.2317 -0.2330  0.4568
10269TIP3    H152222   1.260   0.153   2.728 -0.0612  0.8482  0.7152
10269TIP3    H252223   1.396   0.136   2.792 -0.2244  1.1797  1.1603
10270TIP3   OH252224   0.318   4.390   1.191  0.0158 -0.4459  0.1730
10270TIP3    H152225   0.325   4.396   1.286 -0.7016  0.1252  0.1966
10270TIP3    H252226   0.265   4.312   1.175 -0.7305  0.0371  0.2789
10271TIP3   OH252227   4.169   6.164  12.402 -0.0687  0.3818  0.1898
10271TIP3    H152228   4.165   6.217  12.322 -0.0125  1.2053  0.7253
10271TIP3    H252229   4.078   6.137  12.417  0.1904 -1.6639 -1.3602
10272TIP3   OH252230   0.423   1.152   0.814 -0.6904 -0.1997 -0.5310
10272TIP3    H152231   0.400   1.244   0.807  0.2424  0.1664  0.7805
10272TIP3    H252232   0.349   1.112   0.860 -0.8221  0.0234 -0.5504
10273TIP3   OH252233   3.091   1.117   2.868  0.0950  0.9792  0.6410
10273TIP3    H152234   3.093   1.042   2.928 -1.0936  0.7270  0.3883
10273TIP3    H252235   3.145   1.090   2.794  0.7116  0.8778  1.1197
10274TIP3   OH252236   5.163   4.272   4.017  1.0518 -0.5723  0.0652
10274TIP3    H152237   5.150   4.285   3.923 -0.7295 -0.6460  0.2678
10274TIP3    H252238   5.166   4.361   4.053 -2.0461 -0.4682  0.3403
10275TIP3   OH252239   4.097   0.354  16.153 -0.4987  0.0716  0.4141
10275TIP3    H152240   4.171   0.350  16.214 -0.5935 -0.6412  0.4856
10275TIP3    H252241   4.028   0.397  16.202  0.0752  1.3758  0.1222
10276TIP3   OH252242   2.990   4.417   2.860  0.6768 -0.0317 -1.2281
10276TIP3    H152243   3.045   4.339   2.871  1.7008  0.8570  0.2531
10276TIP3    H252244   2.944   4.425   2.943  1.4950  1.6073 -0.8964
10277TIP3   OH252245   5.869   3.571   5.196  0.1207  0.0892 -0.2985
10277TIP3    H152246   5.832   3.510   5.259  0.5335 -1.4795 -1.5107
10277TIP3    H252247   5.955   3.535   5.174  0.2813  0.9694 -1.2302
10278TIP3   OH252248   0.530   6.437   1.092  0.1950  0.9469 -0.7046
10278TIP3    H152249   0.440   6.410   1.110  0.9485 -1.0869  0.2570
10278TIP3    H252250   0.530   6.531   1.109 -1.2553  0.6380  1.4443
10279TIP3   OH252251   3.691   2.016   5.287 -0.7211 -0.3714  0.4783
10279TIP3    H152252   3.763   2.072   5.316 -0.0338 -0.4640 -0.9746
10279TIP3    H252253   3.720   1.982   5.203 -2.4800 -0.3902 -0.1462
10280TIP3   OH252254   4.341   0.355  16.303 -0.0619 -0.7524  0.5912
10280TIP3    H152255   4.348   0.421  16.372 -2.6032  2.2262 -1.7188
10280TIP3    H252256   4.413   0.375  16.243 -1.3818  0.6415 -0.5871
10281TIP3   OH252257   3.215   3.915  17.161  0.1650  0.0775 -0.1407
10281TIP3    H152258   3.254   4.002  17.171 -3.8412  2.2702 -1.2743
10281TIP3    H252259   3.209   3.881  17.250 -0.7192  2.3015  0.7365
10282TIP3   OH252260   5.493   5.576  13.117 -0.2153  0.2945  0.0690
10282TIP3    H152261   5.531   5.514  13.056  1.0871  1.5781 -0.4926
10282TIP3    H252262   5.405   5.593  13.084  0.1875  0.3569 -0.9831
10283TIP3   OH252263   3.329   0.245   0.886  0.4290 -0.0241 -0.4126
10283TIP3    H152264   3.286   0.160   0.885  0.3045  0.0214  0.3523
10283TIP3    H252265   3.259   0.307   0.907  0.7928  0.0869  0.5330
10284TIP3   OH252266   1.601   5.287   0.350  0.3680 -0.4725  0.0036
10284TIP3    H152267   1.543   5.233   0.297  1.2349 -1.4707  0.0407
10284TIP3    H252268   1.656   5.333   0.286  0.1654 -0.2405 -0.0058
10285TIP3   OH252269   0.315   1.477   4.490 -0.2954  0.4471 -0.4578
10285TIP3    H152270   0.358   1.520   4.416 -0.5525  1.3361 -0.1018
10285TIP3    H252271   0.222   1.480   4.469 -0.4619  1.6705  0.3844
10286TIP3   OH252272   0.849   6.375  13.515  0.2858 -0.0983  0.5368
10286TIP3    H152273   0.919   6.406  13.571  0.5337  0.5304 -0.1122
10286TIP3    H252274   0.840   6.442  13.447 -0.6346 -0.3876  0.3500
10287TIP3   OH252275   5.338   5.313  13.214  0.3755 -0.0226  0.4716
10287TIP3    H152276   5.354   5.271  13.130  0.2039  0.8017  0.0118
10287TIP3    H252277   5.267   5.262  13.254 -0.6791  0.5441 -0.6174
10288TIP3   OH252278   2.994   3.257   6.540  0.2716  0.2803 -0.1880
10288TIP3    H152279   3.080   3.282   6.573  0.6365  0.0637 -0.9710
10288TIP3    H252280   3.010   3.180   6.486 -0.3748  0.3811 -0.5354
10289TIP3   OH252281   0.588   2.818   1.778  0.4053  0.1509  0.1775
10289TIP3    H152282   0.577   2.724   1.791 -1.0402  0.0203 -1.6060
10289TIP3    H252283   0.524   2.841   1.710  0.4307  2.5036  0.8545
10290TIP3   OH252284   4.024   3.682  15.657  0.6416  0.0116  0.6230
10290TIP3    H152285   4.036   3.588  15.667  0.0889  0.0027  1.2321
10290TIP3    H252286   4.076   3.721  15.727  0.8324  0.1556  0.4006
10291TIP3   OH252287   4.037   0.010  14.869  0.1634 -0.1990  0.1476
10291TIP3    H152288   3.948  -0.016  14.847  0.1515 -0.1606  0.1505
10291TIP3    H252289   4.041   0.104  14.850  0.3521 -0.3035 -0.3401
10292TIP3   OH252290   4.268   5.670  16.897  0.1435  0.0015  0.5341
10292TIP3    H152291   4.362   5.684  16.898  0.0165  1.1504 -0.6918
10292TIP3    H252292   4.258   5.576  16.884  1.1080 -0.2647  1.6212
10293TIP3   OH252293   3.042   0.355   4.824  0.0840  0.3797 -0.4223
10293TIP3    H152294   3.133   0.386   4.832  0.1091  0.1256  0.3358
10293TIP3    H252295   3.025   0.358   4.730  0.7987  0.6598 -0.5563
10294TIP3   OH252296   1.111   3.714  13.653  0.2090 -0.2324 -0.1876
10294TIP3    H152297   1.048   3.725  13.724  1.6156  1.1098  0.9515
10294TIP3    H252298   1.153   3.629  13.671 -0.8983 -0.8961 -0.6713
10295TIP3   OH252299   5.421   6.326   3.151  0.6968  0.3041  0.1454
10295TIP3    H152300   5.514   6.345   3.151  0.7761  0.0153  1.8737
10295TIP3    H252301   5.409   6.266   3.077  1.8525  0.4156 -0.1490
10296TIP3   OH252302   0.679   2.442   2.800 -0.1905  0.2767  0.3937
10296TIP3    H152303   0.666   2.527   2.756 -0.8007  0.5362  1.0581
10296TIP3    H252304   0.705   2.466   2.889  0.7007 -0.2462  0.2857
10297TIP3   OH252305   0.352   2.337  12.526  0.0734 -0.1023 -0.5387
10297TIP3    H152306   0.424   2.324  12.464 -0.2671  0.6056 -1.0981
10297TIP3    H252307   0.339   2.432  12.528  0.3123 -0.0749  0.8954
10298TIP3   OH252308   2.252   5.566   0.514  0.8359 -0.0782 -0.1709
10298TIP3    H152309   2.272   5.627   0.443 -0.5632  0.4602 -0.1385
10298TIP3    H252310   2.285   5.481   0.484  0.2930  0.1488 -1.4720
10299TIP3   OH252311   1.271   4.872  11.625 -0.1180  0.3550 -0.5851
10299TIP3    H152312   1.311   4.791  11.659 -1.1181  0.1874  0.2618
10299TIP3    H252313   1.292   4.872  11.532  0.3855 -0.6007 -0.4849
10300TIP3   OH252314   1.036   3.735  16.987 -0.3012 -0.0106 -0.8809
10300TIP3    H152315   0.995   3.651  17.008 -0.7136  0.4395  0.1728
10300TIP3    H252316   0.969   3.784  16.940 -1.8558  1.5146  2.5966
10301TIP3   OH252317   0.743   3.927   2.105  0.0834 -0.3577  0.5010
10301TIP3    H152318   0.794   3.998   2.066  0.4234 -0.6186  0.4614
10301TIP3    H252319   0.684   3.898   2.036 -0.5767  0.3743  0.7456
10302TIP3   OH252320   6.165   5.300   1.221  0.0073 -0.0182 -0.2230
10302TIP3    H152321   6.205   5.378   1.261  2.0052 -1.4082  0.6201
10302TIP3    H252322   6.104   5.268   1.288  0.4967 -0.1765  0.1497
10303TIP3   OH252323   3.824   0.925  14.064 -0.4755 -0.2912 -0.5422
10303TIP3    H152324   3.839   1.019  14.052  0.8256 -0.5328 -0.9753
10303TIP3    H252325   3.911   0.889  14.082 -0.9564 -1.4184 -0.3899
10304TIP3   OH252326   5.200   4.871   2.270 -0.4127  0.2856 -0.4131
10304TIP3    H152327   5.170   4.850   2.181  0.4805  0.5809 -0.8026
10304TIP3    H252328   5.249   4.953   2.260  2.0246 -1.0366 -0.1696
10305TIP3   OH252329   5.656   2.003  16.963 -0.2020 -0.0910 -0.1892
10305TIP3    H152330   5.728   2.053  17.001 -0.1958 -1.5286  1.8608
10305TIP3    H252331   5.659   1.919  17.007 -3.0455 -0.2773 -0.1481
10306TIP3   OH252332   1.227   5.087  13.405  0.4563  0.3580 -0.5588
10306TIP3    H152333   1.195   5.145  13.336 -1.8785  1.3219  1.1889
10306TIP3    H252334   1.222   5.140  13.485 -1.6640 -2.1152  1.1086
10307TIP3   OH252335   4.611   4.701   5.674  0.5168  0.3766  0.5108
10307TIP3    H152336   4.585   4.718   5.583  1.3785 -1.6326 -0.1533
10307TIP3    H252337   4.531   4.668   5.715  0.6921 -0.9421 -0.1652
10308TIP3   OH252338   0.258   2.483   2.114 -0.0177  0.4956 -0.3706
10308TIP3    H152339   0.261   2.393   2.081  0.5496 -0.0455  1.0554
10308TIP3    H252340   0.326   2.529   2.066  0.0153  0.0388 -0.7726
10309TIP3   OH252341   5.520   2.367   2.855  0.6137 -0.2571  0.0483
10309TIP3    H152342   5.545   2.412   2.935  1.3645 -0.6753  0.0603
10309TIP3    H252343   5.572   2.286   2.855 -1.4347 -1.6466  0.5271
10310TIP3   OH252344   3.437   4.361   5.936 -0.1490 -0.0989  0.4567
10310TIP3    H152345   3.460   4.368   6.029  2.1805  2.1853 -0.1859
10310TIP3    H252346   3.496   4.293   5.903 -0.4047 -0.3332  0.4789
10311TIP3   OH252347   0.230   2.972  16.341  0.4251 -0.4188 -0.4218
10311TIP3    H152348   0.267   3.060  16.342 -0.0962 -0.1959  0.4492
10311TIP3    H252349   0.278   2.926  16.272 -0.2516  0.9531 -1.8819
10312TIP3   OH252350   2.687   0.454  15.599 -0.1082 -0.2085  0.1361
10312TIP3    H152351   2.730   0.538  15.585  2.1694 -0.5197  3.8479
10312TIP3    H252352   2.671   0.451  15.694 -0.1516 -3.9086  0.1516
10313TIP3   OH252353   5.986   5.278   2.912  0.3436  0.4066  0.3382
10313TIP3    H152354   6.010   5.368   2.932  1.9341  0.0321  0.2931
10313TIP3    H252355   5.921   5.285   2.843  0.1646  1.5283  0.6097
10314TIP3   OH252356   1.619   5.564   3.423  0.0145 -0.1300  0.6950
10314TIP3    H152357   1.602   5.658   3.433 -1.6740 -0.3961  0.7165
10314TIP3    H252358   1.685   5.558   3.354  0.3318  1.0762  0.8721
10315TIP3   OH252359   2.190   5.339  13.437 -0.1239  0.0335 -0.8981
10315TIP3    H152360   2.254   5.386  13.385  1.9827 -2.5956 -0.8958
10315TIP3    H252361   2.123   5.311  13.375 -1.1585  2.4338 -0.9700
10316TIP3   OH252362   3.624   0.935  12.643 -0.3677 -0.4942 -0.7523
10316TIP3    H152363   3.600   0.843  12.633 -0.4688 -0.6050  0.3650
10316TIP3    H252364   3.714   0.934  12.676 -0.9046 -0.2643  0.8011
10317TIP3   OH252365   3.331   5.481   4.853  0.0196 -0.4774 -0.0121
10317TIP3    H152366   3.312   5.412   4.917  0.8495  0.3260  1.1498
10317TIP3    H252367   3.400   5.444   4.798  2.8589  0.4005  2.5846
10318TIP3   OH252368   1.850   0.253  11.445  0.3980 -0.1667 -0.1021
10318TIP3    H152369   1.817   0.225  11.530  1.5314  0.6744  0.6612
10318TIP3    H252370   1.811   0.194  11.382 -2.5106  0.7447  0.7103
10319TIP3   OH252371   1.642   2.045   0.369  0.5276 -0.2280 -0.3687
10319TIP3    H152372   1.586   2.117   0.340  0.8727 -0.1019 -0.7387
10319TIP3    H252373   1.657   1.993   0.290  1.6791  0.2535 -0.5005
10320TIP3   OH252374   4.579   2.326   4.483  0.3312  0.1821  0.5456
10320TIP3    H152375   4.563   2.396   4.547  0.8244 -0.1233  1.0100
10320TIP3    H252376   4.646   2.362   4.424 -0.1756  0.4911  0.1478
10321TIP3   OH252377   0.858   2.841   6.009  0.0466  0.2028 -0.7315
10321TIP3    H152378   0.903   2.916   5.969 -0.8565  0.4789 -1.2619
10321TIP3    H252379   0.891   2.765   5.961  0.2755  0.3516 -0.8133
10322TIP3   OH252380   6.383   0.800   1.867  0.2193 -0.0453  0.5224
10322TIP3    H152381   6.362   0.846   1.786 -0.1880  1.2400  1.3243
10322TIP3    H252382   6.376   0.707   1.845 -1.0946  0.2951 -0.5843
10323TIP3   OH252383   6.045   2.586   4.746 -0.1171  0.4269  0.3246
10323TIP3    H152384   6.112   2.613   4.809  1.2009 -2.1031  0.1335
10323TIP3    H252385   6.009   2.505   4.782 -2.4110  1.1742 -0.1093
10324TIP3   OH252386   0.201   4.037  14.578 -0.1693 -0.0261 -0.1259
10324TIP3    H152387   0.254   3.993  14.645 -0.2198 -1.3910 -0.9246
10324TIP3    H252388   0.115   4.047  14.618  0.6579  2.3548  1.2435
10325TIP3   OH252389   0.514   6.781   5.106  0.5935  0.9509  0.1023
10325TIP3    H152390   0.455   6.856   5.108 -0.4105  0.1975  2.2134
10325TIP3    H252391   0.523   6.758   5.014 -0.2611  2.7228 -0.4568
10326TIP3   OH252392   2.091   6.328  17.044  0.0357 -0.7644 -0.1725
10326TIP3    H152393   2.054   6.242  17.027  0.2465 -0.8581 -0.1462
10326TIP3    H252394   2.018   6.388  17.027  0.0217 -0.9118 -0.6516
10327TIP3   OH252395   2.897   0.053   4.888  0.3513 -0.5006 -0.0980
10327TIP3    H152396   2.865   0.034   4.800 -1.7184 -1.1837  0.7583
10327TIP3    H252397   2.973  -0.004   4.899 -0.0218 -1.2016 -1.0579
10328TIP3   OH252398   6.424   5.293   5.712  0.5153 -0.0937  0.2296
10328TIP3    H152399   6.399   5.300   5.620  0.0529  1.1318  0.4189
10328TIP3    H252400   6.459   5.205   5.722  0.3504 -0.3160 -1.0646
10329TIP3   OH252401   4.058   2.141   3.820  0.6006 -0.3769 -0.1846
10329TIP3    H152402   4.027   2.219   3.774  1.7142 -1.3568 -2.7486
10329TIP3    H252403   4.031   2.068   3.765  1.0429 -1.7137  1.3034
10330TIP3   OH252404   0.194   5.796  13.780 -0.0115 -0.0673 -0.1001
10330TIP3    H152405   0.219   5.778  13.690 -0.4082 -0.1230 -0.2006
10330TIP3    H252406   0.239   5.877  13.802 -1.0194  0.6981 -0.8107
10331TIP3   OH252407   1.805   0.276  16.018 -0.1912  0.3872 -0.0956
10331TIP3    H152408   1.892   0.236  16.029  1.2181  2.8181 -1.4142
10331TIP3    H252409   1.771   0.286  16.107  1.2805  0.1617  0.5188
10332TIP3   OH252410   1.515   1.663  13.019 -0.1926  0.1054  0.0517
10332TIP3    H152411   1.508   1.631  12.929  2.1366 -0.4428  0.0186
10332TIP3    H252412   1.503   1.584  13.073 -0.3604  0.2248  0.1897
10333TIP3   OH252413   6.553   0.396   6.170  0.2628 -0.4870  0.5374
10333TIP3    H152414   6.505   0.461   6.221  0.6110 -1.0205  1.5557
10333TIP3    H252415   6.594   0.446   6.099  1.0636  0.5152  1.6778
10334TIP3   OH252416   4.705   6.290   0.149 -0.0156  0.3314  0.0491
10334TIP3    H152417   4.641   6.352   0.114 -1.0007 -0.8605 -0.3522
10334TIP3    H252418   4.653   6.226   0.198  0.7509 -1.0477 -0.8430
10335TIP3   OH252419   6.734   1.204  14.260  0.2432 -0.3217 -0.6388
10335TIP3    H152420   6.785   1.263  14.204  0.8742  1.6242  1.7856
10335TIP3    H252421   6.648   1.245  14.265  0.2846 -0.3024  0.0086
10336TIP3   OH252422   3.632   0.137  15.807  0.4612  0.2086  0.8270
10336TIP3    H152423   3.634   0.081  15.885  2.1472  0.4996  1.0392
10336TIP3    H252424   3.679   0.216  15.834  3.0936 -0.5768 -1.1158
10337TIP3   OH252425   0.744   1.553  12.268  0.2728 -0.4274  0.8517
10337TIP3    H152426   0.766   1.643  12.291  0.1314  0.2331 -1.3641
10337TIP3    H252427   0.812   1.526  12.206 -1.9505 -0.2924 -1.8169
10338TIP3   OH252428   0.269   3.687   0.349 -0.5363 -0.2159  0.3100
10338TIP3    H152429   0.361   3.662   0.346 -1.0804 -2.4142  0.0144
10338TIP3    H252430   0.268   3.770   0.396  1.4318 -1.0059  1.8835
10339TIP3   OH252431   6.473   3.870   5.063  0.1844 -0.2913  0.4582
10339TIP3    H152432   6.564   3.876   5.091  0.3534  1.1124 -0.3087
10339TIP3    H252433   6.428   3.826   5.135  1.6063 -1.8003  0.4887
10340TIP3   OH252434   1.027   6.683  12.720 -0.2957  0.3003 -0.2406
10340TIP3    H152435   1.077   6.759  12.751 -2.2720  1.1883  0.9762
10340TIP3    H252436   0.944   6.688  12.768 -1.4874 -1.2098 -2.0135
10341TIP3   OH252437   5.528   2.203   2.010 -0.0499 -0.0613 -0.2930
10341TIP3    H152438   5.495   2.262   2.078 -1.1186 -0.8211 -0.1105
10341TIP3    H252439   5.495   2.240   1.928  2.8876  1.9788 -0.7023
10342TIP3   OH252440   1.069   0.885   5.223  0.1150 -0.0945  0.2054
10342TIP3    H152441   1.058   0.847   5.136 -2.0548  1.2041 -0.1497
10342TIP3    H252442   1.032   0.819   5.282  0.6695 -0.5466  0.0535
10343TIP3   OH252443   4.874   2.814   1.150  0.3009 -0.3544  0.2168
10343TIP3    H152444   4.904   2.831   1.239  1.0459  0.4808 -0.1751
10343TIP3    H252445   4.902   2.725   1.132 -0.8186 -0.9321  1.1847
10344TIP3   OH252446   1.271   5.921   4.522 -0.1204 -0.5954  0.2273
10344TIP3    H152447   1.223   5.924   4.439 -0.9214  0.8259  0.6986
10344TIP3    H252448   1.224   5.982   4.579  1.4025 -0.2727  1.1955
10345TIP3   OH252449   6.370   0.980   3.791 -0.3237 -0.0006 -0.4173
10345TIP3    H152450   6.340   0.898   3.752 -1.1104  0.7314 -1.3900
10345TIP3    H252451   6.296   1.012   3.842 -0.0829  0.1969 -0.1865
10346TIP3   OH252452   6.591   3.623   3.515 -0.1400 -0.5245 -0.5367
10346TIP3    H152453   6.680   3.624   3.480  0.3839 -1.5752  0.6875
10346TIP3    H252454   6.560   3.534   3.498 -0.3704 -0.6386  0.4358
10347TIP3   OH252455   2.500   2.126  13.754  0.4863 -0.2350 -0.2501
10347TIP3    H152456   2.458   2.128  13.668  0.3981 -1.5709 -0.2521
10347TIP3    H252457   2.543   2.211  13.761 -2.2377  1.2761 -0.2213
10348TIP3   OH252458   3.002   0.680   3.117 -0.0553  0.0500 -0.1550
10348TIP3    H152459   2.951   0.599   3.127 -0.7350  0.4257 -0.5272
10348TIP3    H252460   2.985   0.708   3.027  0.5667  0.3512 -0.1829
10349TIP3   OH252461   0.771   3.016   1.819  0.3294 -0.3085 -0.4284
10349TIP3    H152462   0.796   3.090   1.764  1.6519 -0.8598 -0.6222
10349TIP3    H252463   0.711   2.965   1.765  0.7826 -0.2834 -0.9720
10350TIP3   OH252464   2.140   5.600   3.428 -0.6530 -0.2075 -0.0881
10350TIP3    H152465   2.175   5.631   3.512 -1.3603 -1.6154  0.7486
10350TIP3    H252466   2.075   5.534   3.452 -1.8554  0.3351 -1.7087
10351TIP3   OH252467   0.085   0.306   6.281 -0.2357 -0.0741  0.0733
10351TIP3    H152468   0.120   0.394   6.295  2.4390 -1.0463  0.1082
10351TIP3    H252469   0.103   0.259   6.363  1.3063 -1.4688 -0.9789
10352TIP3   OH252470   4.174   1.108  12.122 -0.4982  0.5560  0.0305
10352TIP3    H152471   4.126   1.175  12.073  1.3315 -0.3661 -3.3082
10352TIP3    H252472   4.186   1.037  12.060  2.0577 -0.7273  1.8381
10353TIP3   OH252473   1.889   4.394  11.014 -0.1305 -0.3683  0.1588
10353TIP3    H152474   1.976   4.366  10.983 -0.7083 -1.3919 -0.5730
10353TIP3    H252475   1.834   4.317  11.005 -0.6170 -0.3888  2.7729
10354TIP3   OH252476   1.381   5.148  16.228  0.0919 -0.2308 -0.3493
10354TIP3    H152477   1.380   5.209  16.154  1.8446 -0.5313 -0.6512
10354TIP3    H252478   1.448   5.084  16.206  1.2220  0.1039  1.8268
10355TIP3   OH252479   1.041   2.564   3.385  0.0829 -0.3165 -0.0762
10355TIP3    H152480   1.121   2.581   3.436  0.2330 -1.8188  0.2188
10355TIP3    H252481   1.068   2.573   3.294  0.8350 -1.6640 -0.0150
10356TIP3   OH252482   1.322   2.616  14.103 -0.0267 -0.0141  0.0532
10356TIP3    H152483   1.417   2.621  14.105  0.0658 -0.4897 -1.5006
10356TIP3    H252484   1.293   2.708  14.105  0.4571  0.1298  0.5082
10357TIP3   OH252485   3.244   2.803   1.280 -0.5518  0.1571 -0.1679
10357TIP3    H152486   3.163   2.777   1.235 -0.9048  0.5771  0.2125
10357TIP3    H252487   3.309   2.740   1.250 -1.0769 -0.3355 -0.2969
10358TIP3   OH252488   6.332   4.372   1.424  0.0359 -0.2189 -0.4871
10358TIP3    H152489   6.379   4.403   1.346  1.7049  2.2471  1.3116
10358TIP3    H252490   6.248   4.418   1.421  0.7305  1.1393 -0.1079
10359TIP3   OH252491   2.198   2.702  11.408 -0.1780 -0.3822 -0.1532
10359TIP3    H152492   2.220   2.792  11.385 -1.0149 -0.5998 -1.9369
10359TIP3    H252493   2.277   2.652  11.390 -0.3340 -0.2985 -1.1129
10360TIP3   OH252494   5.793   3.175  15.940  0.1214 -0.8720 -0.2449
10360TIP3    H152495   5.827   3.091  15.971  0.1626 -0.8712 -0.2868
10360TIP3    H252496   5.788   3.165  15.845  2.1914 -0.0853 -0.4926
10361TIP3   OH252497   0.719   5.173   3.850  0.3372  0.8488  0.2307
10361TIP3    H152498   0.720   5.259   3.892  0.3883  1.0382 -0.1507
10361TIP3    H252499   0.807   5.138   3.866  0.7222  1.3750 -0.6235
10362TIP3   OH252500   6.500   4.409  13.528 -0.4795 -0.4368  0.2038
10362TIP3    H152501   6.448   4.377  13.454 -0.5965 -0.0550  0.1177
10362TIP3    H252502   6.504   4.504  13.515 -0.7062 -0.3430  0.8235
10363TIP3   OH252503   0.275   0.531  15.467 -0.1576 -0.2263 -0.0148
10363TIP3    H152504   0.275   0.443  15.504  0.0156 -0.3865 -0.3854
10363TIP3    H252505   0.196   0.572  15.502  0.0228 -0.3600  0.5504
10364TIP3   OH252506   3.313   5.319  12.703 -0.3057 -0.1376  0.5545
10364TIP3    H152507   3.376   5.382  12.738  0.5574 -0.4270 -0.4311
10364TIP3    H252508   3.277   5.275  12.780  1.5979 -0.8290  1.0879
10365TIP3   OH252509   1.615   1.196   0.428 -0.7049  1.0288  0.5494
10365TIP3    H152510   1.622   1.276   0.377  0.2055 -0.4430 -1.7729
10365TIP3    H252511   1.705   1.164   0.435 -1.1902 -0.5323  0.1317
10366TIP3   OH252512   2.739   4.741   3.854  0.8076 -0.5286 -0.2713
10366TIP3    H152513   2.729   4.736   3.949 -0.1962  0.0052 -0.3317
10366TIP3    H252514   2.784   4.660   3.831  2.6650  0.1138  0.8294
10367TIP3   OH252515   2.803   5.785   3.858  0.5460  0.2271 -0.7534
10367TIP3    H152516   2.797   5.741   3.943  2.9048  2.1957  0.5478
10367TIP3    H252517   2.770   5.873   3.874  1.7174  0.8583 -1.6733
10368TIP3   OH252518   0.316   0.321  10.856 -0.4031 -0.4467 -0.1997
10368TIP3    H152519   0.238   0.356  10.812 -0.4698 -1.1070 -0.6261
10368TIP3    H252520   0.356   0.263  10.791 -0.7275 -1.7735  0.7556
10369TIP3   OH252521   0.240   0.258  14.938 -0.6788  0.4582  0.1918
10369TIP3    H152522   0.286   0.174  14.936 -0.1690  0.7119  0.7795
10369TIP3    H252523   0.148   0.235  14.950 -0.8368 -0.0871 -1.7021
10370TIP3   OH252524   3.727   5.356   0.683 -0.0304  0.2006  0.0236
10370TIP3    H152525   3.747   5.276   0.732  0.7143 -0.7082 -1.6671
10370TIP3    H252526   3.703   5.326   0.595 -1.0576  1.7760 -0.2866
10371TIP3   OH252527   6.604   4.817  10.786  0.2009  0.1688  0.3916
10371TIP3    H152528   6.566   4.899  10.817 -1.7315 -0.7269  0.5519
10371TIP3    H252529   6.680   4.802  10.843  0.4065  1.6660  0.5436
10372TIP3   OH252530   1.797   2.611   2.907  0.8074 -0.0985  0.4944
10372TIP3    H152531   1.852   2.599   2.985  2.3337 -0.4484 -0.5811
10372TIP3    H252532   1.794   2.525   2.865  0.1162  0.1156  0.0845
10373TIP3   OH252533   0.377   5.228  14.561 -0.2001 -0.3095 -0.0002
10373TIP3    H152534   0.461   5.237  14.515 -0.9816  0.1741 -1.4058
10373TIP3    H252535   0.370   5.306  14.615 -0.4008  0.4176 -1.0424
10374TIP3   OH252536   1.722   3.319   2.491 -0.1412 -0.1363  0.8615
10374TIP3    H152537   1.677   3.367   2.422  1.2307  1.3439  0.9463
10374TIP3    H252538   1.768   3.248   2.446  0.4426  0.5947  0.2981
10375TIP3   OH252539   3.345   6.652  16.676  0.1313 -0.1096  0.3150
10375TIP3    H152540   3.289   6.579  16.650 -0.2858 -0.0838  1.1000
10375TIP3    H252541   3.360   6.701  16.596 -3.0930  1.3453  0.4801
10376TIP3   OH252542   2.049   5.824   1.502 -0.3522 -0.2193  0.2336
10376TIP3    H152543   2.041   5.865   1.588  0.7964 -0.6756  0.5816
10376TIP3    H252544   1.990   5.749   1.506 -1.8869  0.9089 -0.1398
10377TIP3   OH252545   0.888   5.248  14.873 -0.0655 -0.0419 -0.0606
10377TIP3    H152546   0.859   5.159  14.895  1.5053 -0.6263 -0.2272
10377TIP3    H252547   0.979   5.252  14.904  0.9155  0.4525 -2.7356
10378TIP3   OH252548   3.741   6.390   3.675 -0.0172 -0.1278  0.4215
10378TIP3    H152549   3.772   6.316   3.623 -2.8436 -3.0792  2.4828
10378TIP3    H252550   3.653   6.364   3.704 -0.3563  3.1594  3.0453
10379TIP3   OH252551   1.543   0.297   4.131 -0.4044  0.1859 -0.4736
10379TIP3    H152552   1.614   0.333   4.078 -0.4249 -0.7256 -1.1491
10379TIP3    H252553   1.539   0.205   4.105 -2.6327  0.4742 -1.3278
10380TIP3   OH252554   4.369   3.999   4.006  0.3269 -0.0577 -0.4636
10380TIP3    H152555   4.348   3.940   3.934  1.0303 -1.3942  0.3919
10380TIP3    H252556   4.300   3.982   4.071  0.6302 -0.0647 -0.1424
10381TIP3   OH252557   0.212   3.910  16.910 -0.3592 -0.4494  0.0112
10381TIP3    H152558   0.134   3.939  16.958  0.0941  1.1120 -0.1332
10381TIP3    H252559   0.181   3.890  16.822 -0.7525 -0.7426  0.2170
10382TIP3   OH252560   0.881   4.596   5.685  0.2458 -0.1788  0.2605
10382TIP3    H152561   0.919   4.678   5.714  0.3332  0.4907 -1.6118
10382TIP3    H252562   0.825   4.620   5.611  0.1402 -1.7746 -0.2153
10383TIP3   OH252563   2.300   0.422   2.387 -0.0519 -0.0898  0.0273
10383TIP3    H152564   2.389   0.441   2.357 -0.4438  0.3268 -0.9383
10383TIP3    H252565   2.300   0.329   2.406  0.3242 -0.3072 -0.9764
10384TIP3   OH252566   1.555   0.899   4.246 -0.4486 -0.3118 -0.6336
10384TIP3    H152567   1.579   0.904   4.339 -0.5803 -0.1274 -0.6094
10384TIP3    H252568   1.514   0.813   4.237 -1.5749  0.1723 -0.2528
10385TIP3   OH252569   2.579   1.590  11.406 -0.2798  0.1930 -0.1468
10385TIP3    H152570   2.592   1.566  11.314 -1.0464 -0.8406 -0.0105
10385TIP3    H252571   2.661   1.566  11.449 -0.2113 -0.0836 -0.4296
10386TIP3   OH252572   3.920   1.759   5.275 -0.0284  0.0231  0.0558
10386TIP3    H152573   3.905   1.748   5.181  0.0866 -1.2454  0.1786
10386TIP3    H252574   3.915   1.671   5.312 -1.3870  0.6426  1.4584
10387TIP3   OH252575   0.522   3.795   6.296 -0.1612  0.1811 -0.4604
10387TIP3    H152576   0.595   3.834   6.346 -1.1439  1.4677  0.0377
10387TIP3    H252577   0.466   3.756   6.363 -1.0048  1.0830 -0.6127
10388TIP3   OH252578   0.109   3.352   3.799 -0.0538  0.1257  0.5085
10388TIP3    H152579   0.082   3.260   3.792  2.0763 -0.7186  2.0511
10388TIP3    H252580   0.130   3.377   3.709 -0.0400 -1.1131  0.1399
10389TIP3   OH252581   3.937   2.899   4.750 -0.2567  0.5025  0.3733
10389TIP3    H152582   3.879   2.951   4.695  0.0874  0.8850  0.3642
10389TIP3    H252583   3.994   2.964   4.793  0.5158  0.1078 -0.0299
10390TIP3   OH252584   6.724   3.064  10.322  0.0320 -0.4030 -0.1546
10390TIP3    H152585   6.719   2.969  10.335 -0.3590 -0.4009 -0.2644
10390TIP3    H252586   6.646   3.098  10.366 -1.7467 -0.4649 -3.0434
10391TIP3   OH252587   1.074   3.006  10.923  0.8063  0.0905 -0.1976
10391TIP3    H152588   1.031   3.067  10.862  0.7862  0.9246  0.6243
10391TIP3    H252589   1.070   2.921  10.879  0.1962  0.5479 -1.0587
10392TIP3   OH252590   0.909   1.095   1.694 -0.0340 -0.3912  0.0668
10392TIP3    H152591   1.005   1.097   1.689 -0.0061 -1.4316 -0.1306
10392TIP3    H252592   0.885   1.017   1.644 -0.9492 -0.4956  0.6582
10393TIP3   OH252593   5.755   4.337  16.410  0.3313  0.0080  0.0350
10393TIP3    H152594   5.725   4.285  16.335  0.9882  0.5986 -0.6493
10393TIP3    H252595   5.675   4.371  16.449 -0.0095 -0.1665 -0.4978
10394TIP3   OH252596   6.054   2.422   5.961 -0.1443 -0.3419 -0.1886
10394TIP3    H152597   6.057   2.329   5.986  0.9253 -0.3114 -0.1758
10394TIP3    H252598   5.971   2.453   5.999  0.9009 -0.5487  2.5234
10395TIP3   OH252599   5.809   0.475  11.793 -0.0032  0.1989  0.1656
10395TIP3    H152600   5.827   0.436  11.879 -0.3350  2.9539  1.6188
10395TIP3    H252601   5.717   0.455  11.777  0.1675 -0.6919  0.2248
10396TIP3   OH252602   5.463   4.927  11.918  0.2716  0.0092  0.2981
10396TIP3    H152603   5.418   4.849  11.951  0.5432  0.1956  1.1505
10396TIP3    H252604   5.546   4.929  11.966  0.6643  0.3272 -0.3784
10397TIP3   OH252605   2.362   6.423   2.079  0.2599 -0.1069 -0.6704
10397TIP3    H152606   2.373   6.465   1.994  0.4777  0.0645 -0.5565
10397TIP3    H252607   2.387   6.332   2.065  2.0734  0.3069 -0.3655
10398TIP3   OH252608   6.175   6.469  12.777  0.4475  0.0801 -0.4047
10398TIP3    H152609   6.260   6.445  12.741 -0.2522 -0.5340 -1.7495
10398TIP3    H252610   6.167   6.563  12.760  1.0838  0.2590  0.2527
10399TIP3   OH252611   0.982   2.209  12.134 -0.1970  0.0169  0.1569
10399TIP3    H152612   1.072   2.238  12.121 -0.2370 -0.0392 -0.2680
10399TIP3    H252613   0.945   2.205  12.045  0.3679 -3.2039 -0.0647
10400TIP3   OH252614   1.864   5.386   4.019 -0.0726  0.3270 -0.5453
10400TIP3    H152615   1.778   5.379   4.062  0.1075  0.6844 -0.1189
10400TIP3    H252616   1.844   5.421   3.933 -0.8070 -3.2558 -2.0473
10401TIP3   OH252617   0.013   5.727  15.423  0.8359 -0.4209 -0.5746
10401TIP3    H152618  -0.056   5.784  15.456  1.4532 -0.0649  0.1518
10401TIP3    H252619   0.086   5.787  15.405  1.8192 -1.0462  1.0717
10402TIP3   OH252620   4.639   6.496   2.638  0.3400  0.1660 -0.5423
10402TIP3    H152621   4.631   6.455   2.552 -1.9376 -1.5233  0.3692
10402TIP3    H252622   4.666   6.424   2.695 -0.4563  0.7198  0.5507
10403TIP3   OH252623   2.080   0.361   5.438  0.0477  0.1944  0.1132
10403TIP3    H152624   2.093   0.451   5.470  0.8401  0.1425 -0.0518
10403TIP3    H252625   2.108   0.305   5.510 -0.2015  0.0800  0.1206
10404TIP3   OH252626   3.162   4.337  14.127  0.3946 -0.6880  0.1145
10404TIP3    H152627   3.211   4.413  14.094 -0.8477 -0.2190 -0.7427
10404TIP3    H252628   3.155   4.278  14.052  0.3776 -1.1306  0.4616
10405TIP3   OH252629   0.767   0.135   1.699  1.0254  0.2368 -0.7736
10405TIP3    H152630   0.812   0.187   1.765 -1.5867  1.6254  0.0458
10405TIP3    H252631   0.760   0.048   1.738  2.3706  0.1751 -0.6478
10406TIP3   OH252632   0.665   3.130   2.806 -0.1059  0.1198  0.4471
10406TIP3    H152633   0.716   3.088   2.736  0.0127  3.5316 -1.7898
10406TIP3    H252634   0.731   3.173   2.861 -0.3367  0.7553  0.2408
10407TIP3   OH252635   6.581   0.290  11.600  0.5651 -0.0593  0.0419
10407TIP3    H152636   6.536   0.370  11.574  0.5301  0.2159  0.9259
10407TIP3    H252637   6.527   0.254  11.670 -1.3141 -2.6492 -2.4663
10408TIP3   OH252638   3.526   3.332   0.987  0.4057  0.6330 -0.3097
10408TIP3    H152639   3.470   3.377   1.050  0.4016 -0.1227  0.2364
10408TIP3    H252640   3.608   3.317   1.035 -0.6351 -2.7905  0.7044
10409TIP3   OH252641   1.856   4.906  10.551  0.1826 -0.4844  0.0059
10409TIP3    H152642   1.784   4.914  10.614 -0.8693 -0.8124 -1.1189
10409TIP3    H252643   1.813   4.895  10.466  1.5535 -1.7399 -0.5782
10410TIP3   OH252644   2.440   6.400   1.649  0.2122 -0.1803  0.7812
10410TIP3    H152645   2.361   6.424   1.697 -0.2885  1.1638 -0.6237
10410TIP3    H252646   2.509   6.454   1.689 -0.7825  3.4482 -1.9048
10411TIP3   OH252647   3.633   2.265   4.856  0.4827 -0.2172 -0.2902
10411TIP3    H152648   3.596   2.275   4.768  1.5844  0.6434 -0.6708
10411TIP3    H252649   3.678   2.181   4.852  0.7428 -0.0643 -0.6267
10412TIP3   OH252650   5.798   6.101  14.304  0.0223  0.1075  0.1232
10412TIP3    H152651   5.801   6.197  14.303  0.1731  0.1216  0.8007
10412TIP3    H252652   5.746   6.080  14.382  0.7995 -0.3604  0.5319
10413TIP3   OH252653   5.424   3.934   3.754 -0.0667 -0.2985  0.0707
10413TIP3    H152654   5.438   4.027   3.738 -0.7883  0.0906  1.5198
10413TIP3    H252655   5.357   3.931   3.822  0.6720 -1.8547  0.7895
10414TIP3   OH252656   0.577   3.337  12.990 -0.0242 -0.0929  0.1028
10414TIP3    H152657   0.507   3.308  12.931  0.6805  2.0060 -1.8728
10414TIP3    H252658   0.613   3.255  13.025 -1.5256 -1.3514 -1.1031
10415TIP3   OH252659   5.676   4.960   5.144 -0.2217 -0.4468  0.3670
10415TIP3    H152660   5.665   5.047   5.106  0.7930 -0.6122 -0.3327
10415TIP3    H252661   5.603   4.952   5.206  0.8206  1.7407  2.0504
10416TIP3   OH252662   3.035   4.936  14.146  0.0290 -0.5182  0.1480
10416TIP3    H152663   3.106   4.988  14.183 -0.9607  0.9233  0.1077
10416TIP3    H252664   2.974   4.922  14.219 -0.8120  0.3515 -0.3659
10417TIP3   OH252665   6.455   6.243   6.205 -0.3205 -0.0801 -0.1451
10417TIP3    H152666   6.387   6.236   6.272 -0.8551  0.3952 -0.6311
10417TIP3    H252667   6.537   6.242   6.254 -0.5810 -2.2110  0.3630
10418TIP3   OH252668   3.993   3.290   2.410  0.3255  0.7930  0.4830
10418TIP3    H152669   3.944   3.212   2.436 -1.4546  1.6236 -0.2120
10418TIP3    H252670   3.932   3.339   2.355  2.1160  1.6762 -0.8265
10419TIP3   OH252671   5.444   6.527   2.631  0.2985  0.0352 -0.3331
10419TIP3    H152672   5.530   6.535   2.672 -1.0900  0.8319  2.6952
10419TIP3    H252673   5.389   6.488   2.699 -2.1652  1.3057 -1.5022
10420TIP3   OH252674   5.311   2.604   4.937 -0.9030 -0.4377  0.5339
10420TIP3    H152675   5.309   2.509   4.940 -0.7845 -0.5490 -1.4182
10420TIP3    H252676   5.352   2.630   5.020 -1.2904 -2.0390  1.2660
10421TIP3   OH252677   5.674   5.909   4.605  0.4237 -0.5790  0.1557
10421TIP3    H152678   5.645   5.946   4.689 -2.0945 -0.9478 -0.4686
10421TIP3    H252679   5.689   5.986   4.550 -2.5854 -0.2839 -0.4366
10422TIP3   OH252680   1.710   5.682  12.235  0.0373  0.6550 -0.1504
10422TIP3    H152681   1.752   5.721  12.311 -1.1833  1.5364  0.1216
10422TIP3    H252682   1.617   5.683  12.256 -0.2082 -0.3641 -1.0936
10423TIP3   OH252683   6.099   6.502   4.940  0.0093  0.5017 -0.0051
10423TIP3    H152684   6.106   6.457   4.855 -1.7975 -0.0180  0.0763
10423TIP3    H252685   6.087   6.594   4.918  1.4602  0.6638 -0.2311
10424TIP3   OH252686   3.343   4.121  15.483 -0.4718  0.2353  0.2340
10424TIP3    H152687   3.419   4.145  15.536  0.6481 -0.0412 -1.1765
10424TIP3    H252688   3.274   4.181  15.512  0.3236  0.6243  1.4226
10425TIP3   OH252689   2.687   4.780  14.870  0.6937 -0.0359 -0.1114
10425TIP3    H152690   2.697   4.686  14.886 -0.5799 -0.1671  0.0742
10425TIP3    H252691   2.750   4.822  14.928 -0.7225 -0.6895  2.0367
10426TIP3   OH252692   2.256   1.123  13.460 -0.1446 -0.2973 -0.1193
10426TIP3    H152693   2.326   1.180  13.491  0.0549 -0.8583  0.4732
10426TIP3    H252694   2.220   1.169  13.383 -0.3564  0.8909  0.6611
10427TIP3   OH252695   1.455   5.808  16.252  0.5870 -0.0777 -0.1248
10427TIP3    H152696   1.410   5.723  16.256  0.2981  0.0759 -0.0587
10427TIP3    H252697   1.433   5.842  16.165 -0.4930  0.5750  0.3848
10428TIP3   OH252698   4.875   5.840   6.063 -0.4553  0.5830  0.7721
10428TIP3    H152699   4.916   5.899   6.126 -0.7238  0.5088  1.0196
10428TIP3    H252700   4.900   5.752   6.092  2.9040  0.5865 -1.5901
10429TIP3   OH252701   2.998   5.747   1.344  0.1040 -0.6927  0.2261
10429TIP3    H152702   2.953   5.720   1.264  2.1356 -1.4166 -0.7453
10429TIP3    H252703   3.021   5.839   1.328  2.2062 -1.3486 -0.9477
10430TIP3   OH252704   4.869   2.750  15.436  0.4268 -0.4464  0.2904
10430TIP3    H152705   4.912   2.666  15.427  1.3216 -0.2058  1.9773
10430TIP3    H252706   4.906   2.804  15.366  1.1266 -0.9485  0.2656
10431TIP3   OH252707   4.160   1.195  17.038 -0.6643 -0.0230 -0.0356
10431TIP3    H152708   4.192   1.105  17.042  0.2476  0.3319  1.9505
10431TIP3    H252709   4.077   1.194  17.086 -0.6005  0.1982  0.0838
10432TIP3   OH252710   2.425   4.398  12.062 -0.4947  0.0250 -0.3355
10432TIP3    H152711   2.348   4.420  12.010 -0.3304  1.7237  0.0743
10432TIP3    H252712   2.484   4.356  11.999 -0.7456  1.0252 -1.2744
10433TIP3   OH252713   2.890   1.742   0.921 -0.2075 -0.5423 -0.7395
10433TIP3    H152714   2.804   1.753   0.962  0.9861  0.5328  1.6549
10433TIP3    H252715   2.883   1.789   0.838 -1.5311  0.6759  0.0157
10434TIP3   OH252716   1.389   3.365   0.326 -0.0584 -0.0984 -0.4978
10434TIP3    H152717   1.417   3.352   0.235  1.3831  1.7343 -0.3839
10434TIP3    H252718   1.440   3.440   0.356 -0.1910 -0.9085  1.9830
10435TIP3   OH252719   6.556   2.271   4.219 -0.4089  0.8370  0.0338
10435TIP3    H152720   6.627   2.310   4.270  1.0771  1.9378 -2.6187
10435TIP3    H252721   6.499   2.345   4.197 -1.2824  0.3048  0.4666
10436TIP3   OH252722   4.319   1.735   1.496 -0.2093 -0.1386  0.3334
10436TIP3    H152723   4.330   1.644   1.468  0.7040  0.6013 -1.9785
10436TIP3    H252724   4.406   1.774   1.485 -0.9206  1.3741 -0.2465
10437TIP3   OH252725   1.591   6.474  15.598 -0.2318 -0.6228 -0.0309
10437TIP3    H152726   1.646   6.497  15.673  1.8045  0.6532 -1.7753
10437TIP3    H252727   1.651   6.476  15.523 -2.4061 -0.5517 -1.8854
10438TIP3   OH252728   5.245   3.856   2.712  0.2288  0.8098 -0.0775
10438TIP3    H152729   5.204   3.882   2.630  1.6848  1.0228 -0.7748
10438TIP3    H252730   5.322   3.805   2.685 -0.4489 -0.9915  1.1943
10439TIP3   OH252731   2.177   1.507   0.077  0.5571  0.0703  0.4018
10439TIP3    H152732   2.206   1.462   0.156 -2.7655 -0.6413  1.3882
10439TIP3    H252733   2.209   1.454   0.005  0.7725 -1.2033  1.4102
10440TIP3   OH252734   2.715   4.059   0.964  0.2247  0.3339 -0.2457
10440TIP3    H152735   2.662   4.033   0.889 -1.1073 -2.2303  1.4158
10440TIP3    H252736   2.651   4.074   1.034  1.4748  1.4176  0.7093
10441TIP3   OH252737   5.722   5.288  15.270 -0.4992  0.3784  0.6260
10441TIP3    H152738   5.730   5.379  15.242 -0.7320  0.5878  1.2179
10441TIP3    H252739   5.635   5.283  15.311 -0.8568 -0.3326 -0.2014
10442TIP3   OH252740   3.765   5.353  12.042  0.1749 -0.1146 -0.1012
10442TIP3    H152741   3.812   5.308  11.972  2.0679 -0.5484  1.3570
10442TIP3    H252742   3.834   5.379  12.103 -1.1700  2.2028  0.5496
10443TIP3   OH252743   0.499   0.786  10.988 -0.3003 -0.1774 -0.4642
10443TIP3    H152744   0.437   0.819  10.923 -0.4913 -0.3386 -0.3645
10443TIP3    H252745   0.556   0.727  10.939 -0.6471 -0.5512 -0.4236
10444TIP3   OH252746   0.577   4.864   0.310 -0.6661  0.7404 -0.3557
10444TIP3    H152747   0.505   4.814   0.271  0.0321 -2.4014  2.0253
10444TIP3    H252748   0.656   4.819   0.281  0.0062  0.5705  1.6022
10445TIP3   OH252749   0.224   4.249   4.700  0.0794  0.5822 -0.3866
10445TIP3    H152750   0.251   4.194   4.627 -0.2584 -3.0300  1.9083
10445TIP3    H252751   0.305   4.264   4.750 -0.3033 -1.1278  0.8797
10446TIP3   OH252752   2.498   3.405   3.382  1.0566 -0.0892 -0.1577
10446TIP3    H152753   2.490   3.449   3.298 -0.2018 -0.5722 -0.3120
10446TIP3    H252754   2.535   3.472   3.440  0.7078  0.6575 -0.7769
10447TIP3   OH252755   5.140   3.142   0.004  0.2745 -0.3761  0.5989
10447TIP3    H152756   5.100   3.062   0.037  0.0909 -0.2813  0.6070
10447TIP3    H252757   5.104   3.212   0.059 -1.5351  0.0354 -1.0078
10448TIP3   OH252758   6.433   0.430  15.142 -0.1187 -0.3533 -0.4206
10448TIP3    H152759   6.436   0.337  15.164  0.5640 -0.2209  0.0839
10448TIP3    H252760   6.517   0.464  15.171 -0.5640  0.5300 -0.1337
10449TIP3   OH252761   3.321   0.796  16.258 -0.2812  0.2273 -0.3412
10449TIP3    H152762   3.267   0.854  16.204 -2.2898 -2.6721 -1.6736
10449TIP3    H252763   3.283   0.803  16.346 -0.1101  1.3176 -0.3386
10450TIP3   OH252764   1.979   2.489  11.919 -0.0679 -0.0399 -0.2831
10450TIP3    H152765   1.923   2.434  11.974 -0.3257  1.6179  1.2109
10450TIP3    H252766   2.065   2.485  11.961  0.3397 -0.6171 -1.1483
10451TIP3   OH252767   6.519   3.503   1.286 -0.1260  0.0687 -0.7623
10451TIP3    H152768   6.459   3.577   1.292 -0.6956 -0.4397  0.0313
10451TIP3    H252769   6.606   3.542   1.300 -0.3279  0.7127 -1.2549
10452TIP3   OH252770   4.539   0.370   2.637 -0.1381 -0.6484 -0.0285
10452TIP3    H152771   4.517   0.281   2.663 -0.5384 -0.4621  0.2855
10452TIP3    H252772   4.599   0.360   2.563  1.0520 -1.1892  0.9739
10453TIP3   OH252773   3.046   0.695   0.449 -0.4182  0.4381  0.4749
10453TIP3    H152774   3.104   0.766   0.423  0.0004  0.0273  0.2799
10453TIP3    H252775   3.104   0.622   0.469 -0.8277  0.2423  0.9733
10454TIP3   OH252776   2.763   0.980  10.952  0.3011 -0.5424  0.2940
10454TIP3    H152777   2.698   1.010  11.015  0.5398  0.6947 -0.0292
10454TIP3    H252778   2.717   0.979  10.868  0.8898  1.1912 -0.0933
10455TIP3   OH252779   2.601   4.370   4.278 -1.1277  0.1749 -0.1019
10455TIP3    H152780   2.543   4.446   4.280 -0.5486  0.6191  0.1425
10455TIP3    H252781   2.666   4.390   4.211 -0.9797 -0.1097 -0.0497
10456TIP3   OH252782   5.042   5.455   1.809 -0.1248 -0.3302  0.3219
10456TIP3    H152783   5.128   5.481   1.775  0.7649 -0.5615  2.2903
10456TIP3    H252784   4.989   5.441   1.731  1.6673 -0.3470 -0.9507
10457TIP3   OH252785   0.865   5.800  13.879 -0.4315 -0.1405  0.4191
10457TIP3    H152786   0.790   5.754  13.917 -1.0258  0.0779 -0.4816
10457TIP3    H252787   0.940   5.742  13.898 -1.0729 -1.2030 -0.1733
10458TIP3   OH252788   4.346   5.775   5.326 -0.1261 -0.7971  0.0851
10458TIP3    H152789   4.397   5.802   5.249 -0.2156 -1.5755 -0.2569
10458TIP3    H252790   4.266   5.827   5.320  0.1242 -0.4137 -0.0141
10459TIP3   OH252791   1.753   4.487   6.352 -0.5552 -0.5566 -0.2910
10459TIP3    H152792   1.783   4.503   6.442  1.6729 -0.7627 -0.9389
10459TIP3    H252793   1.680   4.425   6.362 -0.5905 -0.2976  1.3762
10460TIP3   OH252794   3.054   3.436   5.809  0.3297  0.1429 -0.1147
10460TIP3    H152795   3.023   3.519   5.844 -1.0786  0.9487 -2.9608
10460TIP3    H252796   3.149   3.442   5.811  0.2549  2.0212 -0.5957
10461TIP3   OH252797   3.964   5.014  13.964 -0.1270 -0.5175  0.4711
10461TIP3    H152798   3.921   5.099  13.972 -0.0260 -0.2850 -1.0887
10461TIP3    H252799   3.894   4.953  13.938 -0.1364 -0.8509  1.2520
10462TIP3   OH252800   5.764   1.830   0.561  0.4111 -0.6030 -0.6197
10462TIP3    H152801   5.739   1.789   0.644  2.4462  1.3163  1.0354
10462TIP3    H252802   5.684   1.873   0.531  0.5327  2.2254  2.5861
10463TIP3   OH252803   1.604   1.693  15.210 -0.0803  0.7005  0.2261
10463TIP3    H152804   1.531   1.636  15.186 -1.4421  1.8209  1.5031
10463TIP3    H252805   1.682   1.648  15.178 -1.2588 -0.9595 -0.4152
10464TIP3   OH252806   5.266   3.204  16.799 -0.9428  0.4348  1.0032
10464TIP3    H152807   5.251   3.113  16.774 -0.8490  0.7472 -0.2409
10464TIP3    H252808   5.345   3.200  16.854 -0.1488 -0.0921 -0.1275
10465TIP3   OH252809   0.269   2.419  11.565  0.2162  0.4883  0.3980
10465TIP3    H152810   0.294   2.491  11.507  0.4980  0.8825  0.9940
10465TIP3    H252811   0.184   2.390  11.533 -0.3293  1.6890  0.6841
10466TIP3   OH252812   3.756   0.062  14.299 -0.6159  0.1674 -0.4744
10466TIP3    H152813   3.785   0.074  14.389  0.2754 -1.0792 -0.5737
10466TIP3    H252814   3.697   0.135  14.283  2.4225  2.8963 -0.2535
10467TIP3   OH252815   0.148   3.496  11.238  0.3475 -0.4257 -0.2418
10467TIP3    H152816   0.139   3.499  11.143  1.0794 -1.1491 -0.3415
10467TIP3    H252817   0.113   3.411  11.263 -3.4760  1.1655  0.6087
10468TIP3   OH252818   2.636   1.032  11.248  0.0947 -0.0984 -0.1948
10468TIP3    H152819   2.720   0.995  11.275  1.7181  1.6466 -2.5006
10468TIP3    H252820   2.592   0.962  11.201  0.1662 -1.0436  1.0906
10469TIP3   OH252821   5.273   2.950   1.579  0.3758  0.6106  0.2491
10469TIP3    H152822   5.194   2.904   1.551  0.4389  0.2931  0.5781
10469TIP3    H252823   5.248   2.992   1.661  0.4021  0.9232  0.0956
10470TIP3   OH252824   4.008   1.298   2.555  0.2397  0.1813  0.6075
10470TIP3    H152825   3.974   1.379   2.593  0.2641  0.3174  0.3408
10470TIP3    H252826   4.086   1.278   2.607  0.1544  0.2552  0.7626
10471TIP3   OH252827   5.966   1.960  12.968 -0.1456  0.2400 -0.3002
10471TIP3    H152828   5.873   1.939  12.975 -0.6015  1.2739 -2.5155
10471TIP3    H252829   5.992   1.984  13.057 -1.6604 -1.2209  0.6022
10472TIP3   OH252830   2.356   3.811  10.412  0.8036  0.2824  0.3079
10472TIP3    H152831   2.375   3.726  10.372 -1.3756 -0.9094  1.5541
10472TIP3    H252832   2.358   3.873  10.340  1.1493 -1.0621 -0.8851
10473TIP3   OH252833   3.608   5.430  15.165 -0.2480  0.7402 -0.7912
10473TIP3    H152834   3.641   5.365  15.103  1.7127 -0.9207  1.7900
10473TIP3    H252835   3.513   5.417  15.164 -0.1468 -0.2027 -2.3402
10474TIP3   OH252836   5.553   1.753   1.594  0.0568  0.2641 -0.1538
10474TIP3    H152837   5.470   1.706   1.604  0.7668 -0.6080  2.5039
10474TIP3    H252838   5.535   1.820   1.528 -2.9930  0.5492  0.8143
10475TIP3   OH252839   4.613   0.448  11.841 -0.2223  0.1932  0.4787
10475TIP3    H152840   4.695   0.414  11.807 -0.2603 -0.0420  0.6222
10475TIP3    H252841   4.632   0.539  11.864 -0.1844  0.3488 -0.1278
10476TIP3   OH252842   2.237   5.538   4.493 -0.3067 -0.4303  0.0548
10476TIP3    H152843   2.321   5.543   4.538 -0.5899  1.8352  0.4673
10476TIP3    H252844   2.172   5.529   4.562 -0.5587  0.2706 -0.0839
10477TIP3   OH252845   0.295   6.568   3.546 -0.9392  0.4559 -0.5181
10477TIP3    H152846   0.206   6.550   3.576 -0.7683 -0.0559 -0.3059
10477TIP3    H252847   0.290   6.561   3.451 -0.9545 -0.4113 -0.4646
10478TIP3   OH252848   1.313   3.502  12.086 -0.2787  0.3237 -0.1238
10478TIP3    H152849   1.254   3.572  12.114  0.8771  0.8263  1.1689
10478TIP3    H252850   1.381   3.499  12.154  0.3917 -1.2075 -0.8129
10479TIP3   OH252851   1.367   3.378   3.983 -0.1076  0.8861 -0.3754
10479TIP3    H152852   1.449   3.344   3.947 -1.4097 -3.3641  0.2091
10479TIP3    H252853   1.322   3.417   3.908  0.8430 -0.1502 -1.5171
10480TIP3   OH252854   0.437   2.251   0.833  0.0581 -0.6333  0.3407
10480TIP3    H152855   0.451   2.252   0.928  0.1493 -2.3192  0.3754
10480TIP3    H252856   0.416   2.160   0.813  0.5241 -0.4037 -1.3312
10481TIP3   OH252857   3.182   3.253   0.677 -0.5838  0.3425 -0.1998
10481TIP3    H152858   3.175   3.335   0.727  0.0471 -0.4479  1.2445
10481TIP3    H252859   3.222   3.191   0.738 -2.8247 -1.6117 -0.5872
10482TIP3   OH252860   6.470   4.014  15.215  0.3807 -0.7775  0.0029
10482TIP3    H152861   6.400   3.964  15.258 -0.6582 -1.5084 -2.3884
10482TIP3    H252862   6.536   3.949  15.193  0.8997 -0.4097  0.4483
10483TIP3   OH252863   5.495   5.814  13.474  0.2309  0.6153 -0.2153
10483TIP3    H152864   5.550   5.824  13.396  1.9520  0.6116  0.9480
10483TIP3    H252865   5.527   5.734  13.516 -1.2603  0.1371  0.0725
10484TIP3   OH252866   1.169   1.450  13.913 -0.2060 -0.1842  0.0401
10484TIP3    H152867   1.126   1.469  13.996 -0.4488 -2.9400  0.6369
10484TIP3    H252868   1.106   1.478  13.846 -0.8963  0.1728  0.8278
10485TIP3   OH252869   0.010   6.218  13.065 -0.4392 -0.2833 -0.1031
10485TIP3    H152870   0.053   6.299  13.038  0.1987 -0.4149  0.4912
10485TIP3    H252871  -0.082   6.241  13.073 -0.3838  0.1692 -0.7559
10486TIP3   OH252872   3.138   5.834   2.573  0.2026 -0.0234  0.6057
10486TIP3    H152873   3.102   5.756   2.615 -1.0655  0.8361  1.1960
10486TIP3    H252874   3.111   5.906   2.630  0.2797  0.9791 -0.5796
10487TIP3   OH252875   4.699   0.394   3.850  0.5881  0.5869 -0.3365
10487TIP3    H152876   4.633   0.381   3.782  0.7872 -1.0694 -0.2594
10487TIP3    H252877   4.727   0.485   3.839  0.4167  0.4513 -2.2940
10488TIP3   OH252878   0.416   6.497  16.627  0.3715 -0.4265 -0.6438
10488TIP3    H152879   0.339   6.464  16.579  1.1177 -2.1981 -0.6865
10488TIP3    H252880   0.465   6.419  16.651  1.4679  0.5967  0.6033
10489TIP3   OH252881   6.055   5.572  13.531  0.2769 -0.2942  0.4841
10489TIP3    H152882   6.114   5.579  13.456 -0.5222 -0.0929 -0.1444
10489TIP3    H252883   5.987   5.511  13.502 -1.3216  1.5369  0.1213
10490TIP3   OH252884   5.518   4.882   1.586 -0.3509  0.0957 -0.6932
10490TIP3    H152885   5.581   4.832   1.640  0.8730  1.0427 -1.1965
10490TIP3    H252886   5.435   4.837   1.600  0.5015 -1.4670 -0.3137
10491TIP3   OH252887   4.550   3.845   0.450 -0.0143  0.3208 -0.0963
10491TIP3    H152888   4.558   3.924   0.397 -0.5320  0.2839 -0.2314
10491TIP3    H252889   4.545   3.774   0.386 -0.5816  0.2717 -0.0032
10492TIP3   OH252890   6.057   1.732   0.125  0.1001  0.1155  0.0546
10492TIP3    H152891   6.096   1.684   0.051  0.0063  0.9187 -0.5270
10492TIP3    H252892   5.975   1.686   0.143  0.2659 -0.2633 -0.1493
10493TIP3   OH252893   1.722   6.568  14.533 -0.3577  0.7561  0.0192
10493TIP3    H152894   1.724   6.558  14.438  1.2195  0.0089  0.0963
10493TIP3    H252895   1.797   6.517  14.564 -0.6425  1.2642  1.6389
10494TIP3   OH252896   0.589   5.198  13.361  0.0093  0.4857 -0.3609
10494TIP3    H152897   0.534   5.259  13.312  0.4999 -0.2318 -1.8618
10494TIP3    H252898   0.602   5.240  13.446 -2.1720  1.0475 -0.2577
10495TIP3   OH252899   1.458   0.617   4.104 -0.4507 -0.3098 -0.7340
10495TIP3    H152900   1.506   0.629   4.022 -1.2224 -2.0822 -1.5106
10495TIP3    H252901   1.397   0.545   4.085 -0.6631 -0.7572  1.3983
10496TIP3   OH252902   0.504   6.683   1.513 -0.0638  0.2455 -0.6421
10496TIP3    H152903   0.467   6.604   1.473 -0.2650 -0.1837  0.3644
10496TIP3    H252904   0.561   6.651   1.582  0.2651  0.9719 -0.5661
10497TIP3   OH252905   5.947   2.934  16.951  0.3109 -0.3832  0.3071
10497TIP3    H152906   5.992   2.853  16.926 -0.2004 -1.1738  1.7746
10497TIP3    H252907   5.876   2.943  16.888  0.8401 -0.6480 -0.3390
10498TIP3   OH252908   3.509   4.382   5.607 -0.0903  0.4377  0.0924
10498TIP3    H152909   3.467   4.344   5.531  1.2857  2.6525 -1.9353
10498TIP3    H252910   3.591   4.333   5.616 -0.0440  0.4654 -0.1627
10499TIP3   OH252911   2.464   0.531   4.970 -0.6475 -0.0024  0.1231
10499TIP3    H152912   2.444   0.558   5.060  0.8197  0.8944  0.2113
10499TIP3    H252913   2.542   0.477   4.978 -1.3180 -1.1081 -0.4931
10500TIP3   OH252914   5.104   5.183  15.938 -0.3272  0.1975 -0.4686
10500TIP3    H152915   5.112   5.132  16.019  2.4276  1.0359 -0.1272
10500TIP3    H252916   5.020   5.156  15.902 -0.3486 -2.3544  1.2003
10501TIP3   OH252917   6.399   4.412  16.623 -0.1126 -0.6880  0.6458
10501TIP3    H152918   6.385   4.321  16.649 -2.1877  0.1508  2.8428
10501TIP3    H252919   6.467   4.444  16.682  0.5331 -0.7405 -0.0476
10502TIP3   OH252920   1.141   5.869  11.251  0.0736  0.1252 -0.2662
10502TIP3    H152921   1.104   5.915  11.327 -0.2926 -0.1272 -0.2848
10502TIP3    H252922   1.219   5.919  11.228  1.1538 -0.7218  1.3146
10503TIP3   OH252923   4.743   6.442  13.200  0.5253  0.8728 -0.6995
10503TIP3    H152924   4.789   6.422  13.281 -0.8028 -0.4985 -0.2255
10503TIP3    H252925   4.710   6.531  13.211 -0.3243  0.4185  0.6303
10504TIP3   OH252926   6.377   1.720  11.472  0.6319 -0.1292 -0.6282
10504TIP3    H152927   6.462   1.676  11.471  0.7296  0.0584 -0.9581
10504TIP3    H252928   6.384   1.785  11.541  1.7689  1.7948 -2.4267
10505TIP3   OH252929   3.438   4.788  11.687 -0.2952 -0.1682 -0.0893
10505TIP3    H152930   3.363   4.770  11.744 -1.4321 -0.8655 -1.6992
10505TIP3    H252931   3.446   4.710  11.632  1.0557  0.2632 -0.5563
10506TIP3   OH252932   4.084   3.648  12.608 -0.5216  0.5987 -0.3666
10506TIP3    H152933   4.147   3.651  12.680 -0.6371  1.4784 -0.2954
10506TIP3    H252934   4.137   3.626  12.531 -0.4380 -0.6252  0.0146
10507TIP3   OH252935   3.340   5.058  13.507 -0.0195 -0.3691 -0.0354
10507TIP3    H152936   3.260   5.008  13.522  0.0576 -0.6717 -0.5909
10507TIP3    H252937   3.410   4.992  13.510  0.3049 -0.0011  1.2134
10508TIP3   OH252938   0.437   0.818  13.475  0.4266  0.9347 -0.5355
10508TIP3    H152939   0.486   0.900  13.472  2.4026 -0.2040 -1.6541
10508TIP3    H252940   0.480   0.768  13.544  1.1209 -0.2104 -1.7507
10509TIP3   OH252941   1.825   5.444  15.054 -0.0681  0.1873 -0.5587
10509TIP3    H152942   1.886   5.496  15.000 -1.7139  1.5187 -1.2234
10509TIP3    H252943   1.836   5.481  15.142  0.4219  0.0842 -0.5699
10510TIP3   OH252944   5.684   4.432  16.984  0.1251  0.7528 -0.8707
10510TIP3    H152945   5.590   4.417  16.974 -0.3467  1.7674  1.4303
10510TIP3    H252946   5.694   4.526  16.972  0.7812  0.7115 -0.6456
10511TIP3   OH252947   2.888   5.031   3.591  0.2629  0.2631  0.4692
10511TIP3    H152948   2.797   5.006   3.575  0.1744  0.6158  0.4177
10511TIP3    H252949   2.889   5.061   3.682  0.4618 -0.3391  0.6739
10512TIP3   OH252950   2.323   2.792   0.640  0.6833  0.0469  0.4176
10512TIP3    H152951   2.419   2.786   0.637  0.8405  1.6713  1.3398
10512TIP3    H252952   2.297   2.729   0.707  1.0499 -0.6881 -0.1103
10513TIP3   OH252953   3.944   2.986   0.527  0.2493  0.1366 -0.3580
10513TIP3    H152954   3.854   2.965   0.503 -0.3064  0.2701  1.4217
10513TIP3    H252955   3.967   3.062   0.474 -0.7255  0.1641 -0.7483
10514TIP3   OH252956   4.908   5.873   3.857 -0.0625  0.0074  0.2253
10514TIP3    H152957   4.924   5.963   3.827  2.3619 -0.2777  0.4442
10514TIP3    H252958   4.936   5.818   3.784 -1.1541 -0.6055  0.2480
10515TIP3   OH252959   2.230   6.626  14.793  0.3014 -0.2075  0.4086
10515TIP3    H152960   2.244   6.556  14.729  0.5174 -1.0781  1.3952
10515TIP3    H252961   2.265   6.592  14.875 -0.0051  0.8857  1.0187
10516TIP3   OH252962   4.470   2.264   6.314 -0.5033 -0.4050  0.3415
10516TIP3    H152963   4.430   2.251   6.400  0.0698 -1.2083  0.4965
10516TIP3    H252964   4.490   2.358   6.312 -1.4702 -0.1814  0.6536
10517TIP3   OH252965   0.107   5.574   6.202 -0.3658  0.5051  0.2341
10517TIP3    H152966   0.120   5.589   6.296 -1.9972  2.3996  0.2194
10517TIP3    H252967   0.015   5.552   6.193  0.0728 -1.0536 -0.8097
10518TIP3   OH252968   2.787   2.645   2.676  0.4839 -0.3825 -0.0224
10518TIP3    H152969   2.852   2.635   2.606  0.2189 -1.0224 -0.1830
10518TIP3    H252970   2.732   2.567   2.669  1.3931 -1.2607  1.8646
10519TIP3   OH252971   4.146   2.428  11.736 -0.2030 -0.4122  0.4715
10519TIP3    H152972   4.233   2.401  11.705 -0.2340  0.6338 -0.6152
10519TIP3    H252973   4.107   2.473  11.661 -1.0683  0.4942  1.4317
10520TIP3   OH252974   4.255   6.160   6.001  0.1319  0.0907  0.1563
10520TIP3    H152975   4.260   6.064   6.000  3.6777  0.1447 -0.7875
10520TIP3    H252976   4.269   6.183   6.093 -0.0919 -0.2954  0.2918
10521TIP3   OH252977   6.527   0.003   2.207 -0.2144 -0.6065 -0.1237
10521TIP3    H152978   6.473  -0.076   2.209  0.9065 -1.3874  0.2750
10521TIP3    H252979   6.617  -0.029   2.215  0.4518  0.5462 -2.1943
10522TIP3   OH252980   0.728   0.470  16.047 -0.0467  0.6584  0.2908
10522TIP3    H152981   0.739   0.560  16.078  1.8582  0.2510  0.9923
10522TIP3    H252982   0.747   0.416  16.124 -0.9377 -0.3466 -0.1755
10523TIP3   OH252983   6.575   1.490  13.627  0.3290 -0.4755  0.6611
10523TIP3    H152984   6.582   1.435  13.549 -0.6331 -0.2410  0.3963
10523TIP3    H252985   6.577   1.427  13.700  0.4819 -0.7593  0.4146
10524TIP3   OH252986   5.006   3.594  16.523 -0.0460 -0.4529 -0.5170
10524TIP3    H152987   4.944   3.649  16.570 -1.0448  0.2562 -2.5715
10524TIP3    H252988   5.038   3.532  16.589 -1.3731  0.4785  1.0603
10525TIP3   OH252989   6.191   3.981   4.004  0.1962  0.1211 -0.3141
10525TIP3    H152990   6.223   3.975   3.914 -0.2120  1.3109 -0.5640
10525TIP3    H252991   6.101   4.012   3.995  0.8300  2.4836  0.5292
10526TIP3   OH252992   4.092   5.527  12.734 -0.1932  0.2605 -0.2005
10526TIP3    H152993   4.014   5.499  12.782  0.8448 -1.7129  0.4439
10526TIP3    H252994   4.159   5.534  12.801  1.1813 -2.0800 -1.2261
10527TIP3   OH252995   6.035   5.503  14.605 -0.3824  0.3577  0.2661
10527TIP3    H152996   6.030   5.501  14.700 -0.0603  1.2647  0.3094
10527TIP3    H252997   6.021   5.594  14.581 -0.7467  0.0917 -0.5775
10528TIP3   OH252998   2.007   5.606  13.889  0.3594 -0.4206  0.1718
10528TIP3    H152999   2.074   5.554  13.846 -0.2323 -0.0540 -1.2327
10528TIP3    H253000   2.051   5.688  13.912  1.5417 -1.7586  3.1783
10529TIP3   OH253001   5.463   3.019   0.629  0.5766  0.8340  0.4661
10529TIP3    H153002   5.547   3.019   0.674  0.2568  0.7053  1.0701
10529TIP3    H253003   5.484   3.047   0.539  1.5937 -1.2996 -0.0303
10530TIP3   OH253004   0.324   4.260  13.727  0.1196  0.2294 -0.1579
10530TIP3    H153005   0.276   4.258  13.809 -1.3072  0.5625 -0.9570
10530TIP3    H253006   0.282   4.329  13.676 -0.4748 -1.4275 -2.0213
10531TIP3   OH253007   0.624   5.051  11.921 -0.1591 -0.2266 -0.5375
10531TIP3    H153008   0.587   5.132  11.886  0.9554  0.3000 -0.5698
10531TIP3    H253009   0.596   5.048  12.012  1.4136  1.2724  0.0545
10532TIP3   OH253010   3.692   2.710  15.787 -0.3478 -0.0965 -0.0603
10532TIP3    H153011   3.642   2.737  15.864  0.6347 -1.1133  0.9730
10532TIP3    H253012   3.724   2.622  15.809 -0.7689 -0.7772 -1.9951
10533TIP3   OH253013   5.937   1.958  16.539  0.6181 -1.4636 -0.5687
10533TIP3    H153014   5.924   2.052  16.552 -1.7224 -1.8266  0.3460
10533TIP3    H253015   5.963   1.950  16.448 -0.6363  0.0166 -1.1194
10534TIP3   OH253016   6.565   0.358  15.484  0.0758  0.6264  0.3306
10534TIP3    H153017   6.632   0.311  15.435  1.5018  1.0621  1.7596
10534TIP3    H253018   6.578   0.450  15.462 -0.9614  0.6201 -0.4049
10535TIP3   OH253019   0.898   6.076   4.165 -0.5906  0.2544 -0.7426
10535TIP3    H153020   0.983   6.061   4.124  0.5192  0.2417  1.4196
10535TIP3    H253021   0.872   5.990   4.199 -0.3770  0.6606  0.5150
10536TIP3   OH253022   5.683   4.317  13.462  0.1093  0.3667 -0.8201
10536TIP3    H153023   5.712   4.362  13.383  1.2425 -0.6912 -1.0326
10536TIP3    H253024   5.645   4.235  13.430 -0.9000  0.6341 -0.3570
10537TIP3   OH253025   1.946   5.844   2.189 -0.0057 -0.3367  0.4331
10537TIP3    H153026   2.032   5.814   2.159 -0.5005 -0.9145 -0.4330
10537TIP3    H253027   1.966   5.909   2.257  1.1896  1.6762 -1.6999
10538TIP3   OH253028   4.976   3.771  17.148 -0.0122 -0.0090 -0.2008
10538TIP3    H153029   4.901   3.821  17.179 -0.6304 -0.0976 -1.4863
10538TIP3    H253030   4.951   3.680  17.160  0.7628 -0.0522  1.3248
10539TIP3   OH253031   6.534   5.129   6.717 -0.2536  0.2956 -0.4534
10539TIP3    H153032   6.503   5.190   6.783  1.0175 -1.5404  1.9965
10539TIP3    H253033   6.463   5.123   6.653 -2.0927  1.2009  1.4230
10540TIP3   OH253034   1.027   5.316   2.529  0.1699 -0.2522 -0.4645
10540TIP3    H153035   1.079   5.307   2.609 -1.0421 -0.3828  0.3281
10540TIP3    H253036   1.022   5.226   2.495 -0.7653 -0.5009  0.2736
10541TIP3   OH253037   6.388   4.449  12.207  0.0489 -0.1513  0.8222
10541TIP3    H153038   6.429   4.376  12.160  0.1799  0.9476 -0.8835
10541TIP3    H253039   6.462   4.495  12.247  0.5637  1.5684 -1.8737
10542TIP3   OH253040   2.124   3.310  12.874  0.3021 -0.1414  0.3826
10542TIP3    H153041   2.127   3.240  12.939  1.5809 -1.4359 -0.9855
10542TIP3    H253042   2.123   3.391  12.925  1.3340 -1.1077  2.0075
10543TIP3   OH253043   3.241   6.694  12.802 -0.1715  0.8823  0.1133
10543TIP3    H153044   3.180   6.716  12.732 -0.9524 -0.7058  0.2435
10543TIP3    H253045   3.324   6.677  12.757  0.6040  4.2402  0.0413
10544TIP3   OH253046   6.321   4.497   1.131 -0.0920 -0.6928 -0.0964
10544TIP3    H153047   6.245   4.450   1.098  0.4442 -1.5982 -0.0668
10544TIP3    H253048   6.395   4.460   1.084  0.3468  0.1165 -0.0567
10545TIP3   OH253049   0.684   2.227  13.343  0.3142 -0.0710 -0.0528
10545TIP3    H153050   0.626   2.194  13.275  0.0496  0.4876 -0.1070
10545TIP3    H253051   0.764   2.253  13.295 -0.2067  1.1670 -0.3053
10546TIP3   OH253052   0.555   1.014   3.466  0.3931 -0.0427 -0.1067
10546TIP3    H153053   0.594   0.971   3.542  1.3444 -0.8403 -1.0205
10546TIP3    H253054   0.599   1.099   3.461  0.8304 -0.2682 -0.1617
10547TIP3   OH253055   2.974   3.944  16.355  0.1418 -0.1337 -0.1200
10547TIP3    H153056   3.004   3.899  16.276  1.0570 -3.7029  2.0009
10547TIP3    H253057   3.038   4.013  16.370 -0.3941  1.0396 -2.7031
10548TIP3   OH253058   3.539   1.685   4.229 -0.0915 -0.3595  0.0502
10548TIP3    H153059   3.509   1.733   4.152  1.1573 -1.4406 -1.1446
10548TIP3    H253060   3.525   1.593   4.208 -0.9389 -0.6283  1.6588
10549TIP3   OH253061   2.181   5.425   5.088 -0.2121 -0.4956  0.6296
10549TIP3    H153062   2.275   5.427   5.105 -0.2626  1.5280  0.8127
10549TIP3    H253063   2.141   5.414   5.174 -0.1740 -0.8644  0.6038
10550TIP3   OH253064   1.886   1.678  16.226 -0.4146  0.6467 -0.1195
10550TIP3    H153065   1.819   1.615  16.201 -0.7630  0.8240  0.3452
10550TIP3    H253066   1.841   1.763  16.224 -0.3066  0.7274  0.5433
10551TIP3   OH253067   2.746   5.461   5.916 -0.3850 -0.2558 -0.4858
10551TIP3    H153068   2.732   5.415   5.999 -1.9865 -0.5616 -0.8808
10551TIP3    H253069   2.812   5.527   5.936 -2.5543  1.4332  1.7548
10552TIP3   OH253070   2.014   1.562   2.480 -0.0132  0.1237 -0.2045
10552TIP3    H153071   2.049   1.552   2.569  0.9489  0.9161 -0.4787
10552TIP3    H253072   2.087   1.537   2.423 -0.6039 -0.3169 -0.7873
10553TIP3   OH253073   2.972   5.756  16.043  0.0778 -0.2929  0.5703
10553TIP3    H153074   2.984   5.763  15.948  0.9459 -1.7990  0.5443
10553TIP3    H253075   2.929   5.838  16.067  1.3204  0.8501 -0.8822
10554TIP3   OH253076   4.426   3.563   0.833  0.4330  0.3893 -0.2302
10554TIP3    H153077   4.353   3.530   0.885  0.5752 -2.5240 -1.6744
10554TIP3    H253078   4.496   3.580   0.896 -0.8133  1.3235  0.9526
10555TIP3   OH253079   3.946   2.603  13.002  0.2363  0.1020  0.0932
10555TIP3    H153080   3.864   2.564  12.973  0.3644  0.3855 -0.6702
10555TIP3    H253081   3.926   2.639  13.088 -0.1086 -0.8944  0.4430
10556TIP3   OH253082   0.844   5.228  11.232  0.2133 -0.0056  0.1964
10556TIP3    H153083   0.877   5.198  11.316 -0.9374 -0.6422  0.4408
10556TIP3    H253084   0.914   5.283  11.197  0.5371  0.6104  1.7455
10557TIP3   OH253085   0.188   2.447  15.868  0.1731  0.6493 -0.4360
10557TIP3    H153086   0.246   2.462  15.942 -0.7404  0.8737  0.2622
10557TIP3    H253087   0.139   2.368  15.890 -0.7472  1.2150 -0.3487
10558TIP3   OH253088   1.224   0.667  13.891 -0.4471  0.4088  0.5804
10558TIP3    H153089   1.282   0.739  13.915  0.7150 -0.6743  1.1557
10558TIP3    H253090   1.193   0.632  13.975 -1.7262  0.7852  0.2850
10559TIP3   OH253091   6.224   0.696   1.631  0.0773  0.2205 -0.5647
10559TIP3    H153092   6.294   0.674   1.570  0.6739  0.9638 -0.1703
10559TIP3    H253093   6.144   0.667   1.588  0.4939  0.6157 -1.6368
10560TIP3   OH253094   5.594   5.813  14.295 -0.3340  0.3961  0.0462
10560TIP3    H153095   5.550   5.877  14.350  0.7752  0.9251  0.3396
10560TIP3    H253096   5.527   5.746  14.278 -0.5081 -0.2153  2.6761
10561TIP3   OH253097   3.720   5.720   5.589 -0.1753  0.0994  0.0858
10561TIP3    H153098   3.738   5.632   5.554 -3.5714 -0.3485 -0.9749
10561TIP3    H253099   3.631   5.713   5.623 -0.8859  3.3581 -0.8178
10562TIP3   OH253100   2.835   6.716  14.733 -0.1019 -0.7485  0.1155
10562TIP3    H153101   2.782   6.796  14.732  0.5829 -0.3016 -1.3419
10562TIP3    H253102   2.921   6.744  14.765 -0.3634 -1.2667  1.3556
10563TIP3   OH253103   0.643   1.562   0.113 -0.3110  0.1052  0.1796
10563TIP3    H153104   0.612   1.519   0.192  1.3257 -1.0446  0.2704
10563TIP3    H253105   0.590   1.524   0.042 -1.0958  0.3945  0.6035
10564TIP3   OH253106   5.625   5.976   2.180  0.0159 -0.3459 -0.3120
10564TIP3    H153107   5.679   6.055   2.180 -1.8009  0.9834  0.9135
10564TIP3    H253108   5.686   5.905   2.196  1.3567  1.1373  1.5212
10565TIP3   OH253109   3.963   0.193  15.527  0.0842 -0.2196  0.0094
10565TIP3    H153110   3.985   0.144  15.448  2.5153 -0.4378  0.7282
10565TIP3    H253111   4.037   0.177  15.587 -0.4745  1.8952  1.4053
10566TIP3   OH253112   5.225   5.286  11.895  0.3606  0.1268  0.4111
10566TIP3    H153113   5.303   5.256  11.847  0.1994 -0.4504  0.5127
10566TIP3    H253114   5.259   5.351  11.957  0.2481  3.1625 -2.4020
10567TIP3   OH253115   1.010   5.355  16.448  0.0253  0.1890  0.3787
10567TIP3    H153116   0.969   5.270  16.460  3.0965 -1.1808  2.3695
10567TIP3    H253117   0.978   5.408  16.521 -0.7795  0.3198 -0.0511
10568TIP3   OH253118   1.170   1.097  12.875 -0.4073  0.7841 -0.5889
10568TIP3    H153119   1.252   1.144  12.858  0.5863 -0.8426 -0.4390
10568TIP3    H253120   1.117   1.115  12.797  1.0654 -0.1346 -1.8728
10569TIP3   OH253121   5.875   5.784   3.235 -0.4807 -0.4948  0.1589
10569TIP3    H153122   5.941   5.748   3.294  0.4000  1.7611  0.6680
10569TIP3    H253123   5.794   5.782   3.285 -0.1977 -0.6283  0.6193
10570TIP3   OH253124   4.574   6.196   2.675 -0.3514  0.0971  0.2082
10570TIP3    H153125   4.531   6.199   2.760  0.4791 -1.6738  0.7426
10570TIP3    H253126   4.516   6.143   2.620  1.3418 -3.0258  1.1703
10571TIP3   OH253127   1.895   0.601   4.068  0.3862  0.2513  0.0443
10571TIP3    H153128   1.862   0.512   4.053  0.6620 -0.0844  1.3252
10571TIP3    H253129   1.917   0.633   3.981  2.2926 -1.7315 -0.2841
10572TIP3   OH253130   4.695   2.319  12.188  0.2820  0.0230  0.1447
10572TIP3    H153131   4.604   2.326  12.217 -0.1556 -0.2785 -1.0963
10572TIP3    H253132   4.699   2.374  12.109  1.8080  2.0452  1.5163
10573TIP3   OH253133   4.932   6.639   1.349  0.0281 -0.3958  0.3136
10573TIP3    H153134   4.976   6.555   1.355  0.1475 -0.3875 -0.3806
10573TIP3    H253135   4.950   6.682   1.433  2.1822  0.0198 -0.3163
10574TIP3   OH253136   1.710   3.194   3.235 -0.4221  0.3673  1.2331
10574TIP3    H153137   1.674   3.105   3.238  2.7611 -1.2168 -1.1072
10574TIP3    H253138   1.633   3.251   3.241 -2.6916 -2.5032  2.0903
10575TIP3   OH253139   3.741   3.822   3.187  0.1906  0.3093 -0.0807
10575TIP3    H153140   3.786   3.906   3.196  1.8472 -0.5249 -0.2128
10575TIP3    H253141   3.746   3.802   3.093 -1.4623  0.7147 -0.2776
10576TIP3   OH253142   2.882   2.294   1.930  0.5801  0.5524  0.0111
10576TIP3    H153143   2.971   2.327   1.919  0.8815 -0.2893 -0.1210
10576TIP3    H253144   2.840   2.308   1.845  0.0781  2.3953  0.5214
10577TIP3   OH253145   2.810   2.711  15.919 -0.2136 -0.9502 -0.1276
10577TIP3    H153146   2.887   2.690  15.867 -0.6451 -0.8174 -0.8350
10577TIP3    H253147   2.754   2.634  15.912 -0.0365 -1.1455  0.5888
10578TIP3   OH253148   1.834   1.474  11.406  0.0187  0.3945 -0.0482
10578TIP3    H153149   1.926   1.486  11.430 -0.2341 -0.0999  1.2336
10578TIP3    H253150   1.786   1.482  11.488 -1.1781  1.3892 -0.8010
10579TIP3   OH253151   3.491   5.555   6.252 -0.9100  0.3320  0.1650
10579TIP3    H153152   3.561   5.562   6.317  1.4095 -2.7027 -1.7453
10579TIP3    H253153   3.432   5.489   6.288 -0.1140 -0.6731 -0.3065
10580TIP3   OH253154   3.692   3.312  15.109 -0.2825  0.1965  0.4066
10580TIP3    H153155   3.738   3.390  15.078  1.2150 -1.8854 -3.2514
10580TIP3    H253156   3.618   3.302  15.049 -2.6559  0.6666  3.0737
10581TIP3   OH253157   6.241   1.831   2.815 -0.5310  0.2144  0.0403
10581TIP3    H153158   6.317   1.804   2.764  0.8008  0.1750  1.9892
10581TIP3    H253159   6.174   1.849   2.748  0.1099 -2.8204 -1.5869
10582TIP3   OH253160   3.508   0.260   4.369 -0.0739 -0.1238 -0.0201
10582TIP3    H153161   3.554   0.205   4.305 -1.6165 -0.3753 -0.9791
10582TIP3    H253162   3.440   0.303   4.318 -1.7895 -0.8413  1.5646
10583TIP3   OH253163   1.744   2.410  11.669 -0.3345 -0.1044  0.1496
10583TIP3    H153164   1.806   2.339  11.653  1.2629  1.6567 -2.1747
10583TIP3    H253165   1.798   2.485  11.693 -1.7979  0.8222  0.7193
10584TIP3   OH253166   4.623   5.314   2.509  0.0071  0.0569  0.3520
10584TIP3    H153167   4.651   5.363   2.587  0.1013 -0.9222  0.9471
10584TIP3    H253168   4.678   5.348   2.438  1.0288 -0.1304  1.0241
10585TIP3   OH253169   1.323   5.270  15.943  0.5408 -0.0069  0.3967
10585TIP3    H153170   1.339   5.273  15.849  2.5401  1.4210  0.7153
10585TIP3    H253171   1.374   5.343  15.978 -1.7201  0.7453  2.3951
10586TIP3   OH253172   3.257   2.393   0.179 -0.5907 -0.1372  0.0608
10586TIP3    H153173   3.302   2.440   0.108 -0.5708 -0.6516 -0.2684
10586TIP3    H253174   3.180   2.448   0.197 -0.5889  0.0096 -0.3481
10587TIP3   OH253175   1.722   5.710   1.049  0.4225 -0.1137  0.4731
10587TIP3    H153176   1.817   5.718   1.038  0.4682 -0.3733  0.6814
10587TIP3    H253177   1.688   5.704   0.960  0.6004 -0.0200  0.3978
10588TIP3   OH253178   6.306   0.582  16.634 -0.0125  0.1674 -0.5267
10588TIP3    H153179   6.375   0.525  16.667 -0.7029 -1.8223 -2.3099
10588TIP3    H253180   6.242   0.586  16.705  0.6435 -0.2350  0.1015
10589TIP3   OH253181   5.365   3.378   2.599 -0.0210  0.0731 -0.0350
10589TIP3    H153182   5.329   3.296   2.632  0.0277  0.0989  0.0807
10589TIP3    H253183   5.460   3.366   2.603 -0.0131  0.2093  0.1644
10590TIP3   OH253184   6.186   1.906   1.509  0.4725 -0.6456 -0.2510
10590TIP3    H153185   6.100   1.949   1.507  1.3855  1.3604  0.3308
10590TIP3    H253186   6.218   1.919   1.598  0.8744 -2.5097 -0.0881
10591TIP3   OH253187   5.872   2.001   0.235  0.5362 -0.1693  0.1161
10591TIP3    H153188   5.928   1.978   0.160  0.6465 -1.5260  0.5910
10591TIP3    H253189   5.807   1.931   0.239  0.2521  0.1374  1.0164
10592TIP3   OH253190   4.885   0.718  10.721  0.1099 -0.2061  0.6203
10592TIP3    H153191   4.912   0.628  10.737  1.5250  0.0964  0.0886
10592TIP3    H253192   4.793   0.720  10.744  0.2592 -1.5896  1.4361
10593TIP3   OH253193   0.119   2.171   6.040 -0.8644 -0.0196  0.9267
10593TIP3    H153194   0.176   2.244   6.014 -0.9652  0.2561  1.4544
10593TIP3    H253195   0.155   2.142   6.124 -2.0567  0.7878  1.7488
10594TIP3   OH253196   4.051   3.146  10.606 -0.1768  0.7365 -0.1566
10594TIP3    H153197   4.068   3.239  10.590 -0.0437  0.4918 -1.6003
10594TIP3    H253198   4.020   3.113  10.521 -2.0745 -0.1415  0.8176
10595TIP3   OH253199   2.378   2.221  15.451  0.2010 -0.4903  0.0971
10595TIP3    H153200   2.322   2.286  15.408 -0.7260 -0.2912  1.5501
10595TIP3    H253201   2.331   2.198  15.531  2.4455  0.0295  1.6300
10596TIP3   OH253202   4.918   4.640  12.503  0.1424  0.4336  0.1338
10596TIP3    H153203   4.966   4.657  12.422  0.8752  0.6771  0.6091
10596TIP3    H253204   4.928   4.720  12.554 -0.8849  0.5443  0.2012
10597TIP3   OH253205   2.183   1.575  13.673 -0.1840 -0.1505 -0.1217
10597TIP3    H153206   2.132   1.621  13.606  1.4547 -0.3204 -1.5729
10597TIP3    H253207   2.125   1.506  13.704 -2.1843  1.9320  1.0930
10598TIP3   OH253208   3.697   4.873  12.089  0.6249  0.7322  0.5813
10598TIP3    H153209   3.604   4.854  12.102  0.8093 -0.5833  0.0553
10598TIP3    H253210   3.708   4.875  11.994  1.2017  0.5548  0.6432
10599TIP3   OH253211   3.984   4.928  16.358  0.4063  0.4377  0.3293
10599TIP3    H153212   3.990   5.018  16.326 -0.0612  0.4624  0.3052
10599TIP3    H253213   4.075   4.900  16.370  0.5473  1.0211  0.6400
10600TIP3   OH253214   0.658   5.529   4.342 -0.1064 -0.4064  0.1231
10600TIP3    H153215   0.677   5.581   4.264 -0.0488 -2.8025 -1.5837
10600TIP3    H253216   0.670   5.439   4.314 -0.3380 -1.4014  2.8783
10601TIP3   OH253217   1.314   4.125  13.263 -0.2007 -0.0889  0.4303
10601TIP3    H153218   1.292   4.143  13.354 -0.0214  1.0407  0.2629
10601TIP3    H253219   1.233   4.093  13.224 -0.9015  1.5519  0.4536
10602TIP3   OH253220   6.648   2.409   1.389  0.3322  0.0527 -0.3674
10602TIP3    H153221   6.622   2.343   1.453  0.0343  1.3880  0.9358
10602TIP3    H253222   6.742   2.419   1.403 -0.1150  2.2195  1.8024
10603TIP3   OH253223   3.191   4.362  10.871  0.3215  0.4489 -0.7837
10603TIP3    H153224   3.241   4.286  10.842 -0.1112 -0.0021 -0.3713
10603TIP3    H253225   3.211   4.430  10.807  0.5096 -0.0885 -1.3062
10604TIP3   OH253226   0.455   5.048  16.395  0.1107  0.5122 -0.0810
10604TIP3    H153227   0.367   5.014  16.380 -1.1820  2.9042  1.5209
10604TIP3    H253228   0.481   5.086  16.312  0.0084 -0.9010 -0.7906
10605TIP3   OH253229   2.541   2.893  16.359  0.9160  0.0504 -0.1633
10605TIP3    H153230   2.476   2.824  16.349  2.1235 -1.0407 -0.7613
10605TIP3    H253231   2.547   2.906  16.454  2.5023 -2.5469  0.1890
10606TIP3   OH253232   1.380   1.405   0.646  0.0289 -0.6644  0.4661
10606TIP3    H153233   1.402   1.432   0.556 -1.4377  1.2914  0.6611
10606TIP3    H253234   1.460   1.362   0.677  1.6444  1.2901 -0.7471
10607TIP3   OH253235   2.515   2.123  16.116  0.4200  0.1821  0.0212
10607TIP3    H153236   2.541   2.137  16.207 -1.4306 -0.7341  0.7531
10607TIP3    H253237   2.528   2.029  16.102  1.9400  0.5388 -1.1148
10608TIP3   OH253238   0.575   0.103   4.405 -0.5191  0.0406 -0.2178
10608TIP3    H153239   0.594   0.194   4.382 -0.4327  0.3066  0.8513
10608TIP3    H253240   0.496   0.108   4.458 -0.2820 -0.4600  0.1875
10609TIP3   OH253241   4.084   5.054  11.430  0.2918  0.0883 -0.0215
10609TIP3    H153242   4.042   4.968  11.432  1.1447 -0.3401  1.4483
10609TIP3    H253243   4.118   5.063  11.341  0.6037 -1.3219 -0.0680
10610TIP3   OH253244   0.040   1.640  16.320  0.3494 -0.3641  0.0706
10610TIP3    H153245   0.060   1.719  16.370  2.4702 -0.1727 -0.9448
10610TIP3    H253246   0.071   1.568  16.374  2.6076 -0.1599 -0.8339
10611TIP3   OH253247   2.832   2.642  11.526  0.4274  0.2727 -0.0176
10611TIP3    H153248   2.793   2.570  11.477 -0.3372  0.3836  0.4066
10611TIP3    H253249   2.903   2.674  11.470  0.3071 -0.3403 -0.5273
10612TIP3   OH253250   0.467   0.743   0.730  0.0177 -0.0589 -0.3273
10612TIP3    H153251   0.485   0.759   0.637 -0.5666  3.2470 -0.0126
10612TIP3    H253252   0.550   0.758   0.774 -0.0460 -0.1179 -0.1834
10613TIP3   OH253253   4.733   1.154  12.322  0.5283 -0.2739 -0.5206
10613TIP3    H153254   4.698   1.213  12.255  0.3892 -0.4887 -0.6398
10613TIP3    H253255   4.657   1.131  12.376  0.4202 -0.9783 -0.9584
10614TIP3   OH253256   1.331   2.704   0.182 -0.6214 -0.4256  0.0018
10614TIP3    H153257   1.409   2.714   0.128  1.1053 -3.2611  1.6794
10614TIP3    H253258   1.262   2.683   0.119  0.3133  0.4839 -1.4040
10615TIP3   OH253259   3.388   1.915   3.096 -0.6730 -0.3589 -0.3982
10615TIP3    H153260   3.313   1.950   3.143 -0.4105 -1.0177  0.5490
10615TIP3    H253261   3.463   1.963   3.131 -0.6633  0.5483 -1.5939
10616TIP3   OH253262   5.699   5.359  11.496  0.1525 -0.7758 -0.7815
10616TIP3    H153263   5.760   5.287  11.481  0.1139 -0.4461 -2.9114
10616TIP3    H253264   5.748   5.437  11.468  0.1243  0.0425  1.2758
10617TIP3   OH253265   6.125   5.240   4.157 -0.1771 -0.0193  0.9353
10617TIP3    H153266   6.145   5.192   4.076 -1.8779 -1.3680  1.2621
10617TIP3    H253267   6.101   5.328   4.128 -1.9322 -0.8168 -0.1751
10618TIP3   OH253268   5.826   6.339  14.011 -0.0103 -0.4763  0.5747
10618TIP3    H153269   5.898   6.282  14.038  0.0332 -0.9730 -0.5528
10618TIP3    H253270   5.819   6.328  13.916 -0.4449  0.8896  0.4126
10619TIP3   OH253271   6.208   3.000  16.851 -0.1898 -0.0748 -0.1017
10619TIP3    H153272   6.169   2.927  16.899  1.5481  0.2670  1.9527
10619TIP3    H253273   6.147   3.072  16.861 -1.1495 -0.7716 -0.7858
10620TIP3   OH253274   6.396   2.096   2.406 -0.6979  0.2440  0.8664
10620TIP3    H153275   6.332   2.164   2.388  0.0777  0.6449 -0.5388
10620TIP3    H253276   6.345   2.023   2.440 -1.8502  0.6882  0.1391
10621TIP3   OH253277   6.337   1.328   4.873  0.6843  0.1063 -0.0397
10621TIP3    H153278   6.412   1.338   4.931  0.1419 -0.1446  0.7162
10621TIP3    H253279   6.300   1.417   4.866  1.0064  0.2168 -0.3564
10622TIP3   OH253280   0.516   6.438  12.536 -0.2106 -0.3974  0.0955
10622TIP3    H153281   0.559   6.453  12.452 -0.8249 -0.9232 -0.3156
10622TIP3    H253282   0.520   6.523  12.580  1.5418 -0.5074  0.2115
10623TIP3   OH253283   0.122   6.324   5.361 -0.1806  0.1131 -0.0295
10623TIP3    H153284   0.080   6.395   5.313  1.3454  1.4250  0.5040
10623TIP3    H253285   0.210   6.320   5.325 -0.5677 -2.3530 -0.8921
10624TIP3   OH253286   4.605   0.680  15.698  0.6398 -0.2412 -0.2934
10624TIP3    H153287   4.594   0.759  15.644  0.6092 -0.3091 -0.3854
10624TIP3    H253288   4.543   0.617  15.662 -0.4963  0.2274  0.8000
10625TIP3   OH253289   4.730   5.265   4.207  0.0746 -0.1224 -0.1117
10625TIP3    H153290   4.692   5.343   4.167  1.4549  0.7488  0.1901
10625TIP3    H253291   4.793   5.299   4.271  0.3870 -1.4888  0.3494
10626TIP3   OH253292   1.406   1.644  12.439 -0.8887  0.2370 -0.2956
10626TIP3    H153293   1.335   1.660  12.501 -0.2282 -0.4966  0.6800
10626TIP3    H253294   1.376   1.684  12.358 -1.7288  1.3225  0.5161
10627TIP3   OH253295   0.745   5.520   6.851 -0.1547  0.8425 -0.0951
10627TIP3    H153296   0.728   5.458   6.922 -2.3947  1.8905  0.3708
10627TIP3    H253297   0.728   5.470   6.771  1.7423 -0.1572  0.0777
10628TIP3   OH253298   2.980   1.292   1.074 -0.3331 -0.0909  0.5591
10628TIP3    H153299   3.043   1.222   1.086 -1.5251 -1.2676  0.2019
10628TIP3    H253300   3.028   1.372   1.097  1.5920 -0.8024 -0.7226
10629TIP3   OH253301   2.408   2.496   0.297 -0.3023 -0.1163 -0.3703
10629TIP3    H153302   2.438   2.581   0.331  0.9379 -0.6112 -0.1795
10629TIP3    H253303   2.328   2.517   0.249  0.2608  1.2546 -0.7727
10630TIP3   OH253304   1.851   4.326  15.721 -0.3096  0.1350 -0.7523
10630TIP3    H153305   1.820   4.314  15.811 -2.2923  1.1232 -1.2494
10630TIP3    H253306   1.916   4.396  15.727 -0.5248  0.2848 -0.1006
10631TIP3   OH253307   3.939   4.010  13.942 -0.2664 -0.0469  0.9826
10631TIP3    H153308   3.890   3.973  13.869 -1.6455  0.4048  1.6520
10631TIP3    H253309   4.029   3.980  13.927 -0.6011 -0.3813 -0.6119
10632TIP3   OH253310   0.404   6.010  13.725  0.7202 -0.5683 -0.4036
10632TIP3    H153311   0.495   5.983  13.718  0.9380  0.0438 -0.0185
10632TIP3    H253312   0.392   6.031  13.818  0.1005 -0.9439 -0.3904
10633TIP3   OH253313   6.783   5.964   5.622  0.8433  0.0726 -0.4258
10633TIP3    H153314   6.759   5.871   5.618  0.9153  0.0451 -0.2329
10633TIP3    H253315   6.841   5.976   5.546  0.1619  0.1616 -0.9399
10634TIP3   OH253316   3.687   3.401  13.485  0.1897 -0.0492  0.1919
10634TIP3    H153317   3.626   3.401  13.411  0.1145 -0.5134  0.2506
10634TIP3    H253318   3.729   3.487  13.482 -0.3315  0.2042  0.0378
10635TIP3   OH253319   2.216   6.205  12.271 -0.4315  0.1502 -0.0342
10635TIP3    H153320   2.290   6.144  12.272 -0.3544  0.2394 -0.2525
10635TIP3    H253321   2.238   6.270  12.338  0.4235  1.0450 -1.1419
10636TIP3   OH253322   2.924   3.355   5.595 -0.6480  0.1938 -0.1054
10636TIP3    H153323   2.996   3.356   5.659 -0.9895 -2.2557  0.4437
10636TIP3    H253324   2.967   3.376   5.512  0.6631 -0.6868  0.2955
10637TIP3   OH253325   4.300   4.138   1.921 -0.4539  0.0660  0.7547
10637TIP3    H153326   4.393   4.118   1.927 -0.4545 -0.0556  0.4035
10637TIP3    H253327   4.257   4.053   1.925 -0.4825  0.0188 -0.2776
10638TIP3   OH253328   4.582   6.470  12.691 -0.1989 -0.0241 -0.3425
10638TIP3    H153329   4.509   6.529  12.676 -0.8058 -1.1703 -2.4255
10638TIP3    H253330   4.658   6.516  12.656 -0.3286  0.2582 -0.2554
10639TIP3   OH253331   2.560   0.113   5.549  0.1927  0.1016  0.1521
10639TIP3    H153332   2.496   0.056   5.592 -0.2721  1.4402  1.3148
10639TIP3    H253333   2.645   0.075   5.569 -0.1554 -0.8070 -0.0644
10640TIP3   OH253334   1.311   2.730   1.262 -0.0707  0.0801  0.2961
10640TIP3    H153335   1.224   2.691   1.274 -0.2172  0.2640 -0.1227
10640TIP3    H253336   1.354   2.721   1.347 -0.1297 -0.9175  0.2283
10641TIP3   OH253337   4.397   1.879   5.346  0.6404 -0.7463  0.6079
10641TIP3    H153338   4.423   1.919   5.263 -2.7864  0.6573  0.0684
10641TIP3    H253339   4.335   1.811   5.322 -0.7990  0.0121  1.9657
10642TIP3   OH253340   2.178   2.984  12.575  0.7620  0.1430 -0.1497
10642TIP3    H153341   2.186   3.005  12.482 -1.2926  1.1844 -0.1516
10642TIP3    H253342   2.138   2.897  12.576  1.5645 -0.2376 -0.2073
10643TIP3   OH253343   1.887   2.840  17.138  0.0398  0.1982  0.3895
10643TIP3    H153344   1.948   2.803  17.202 -0.3670 -0.7388  0.2444
10643TIP3    H253345   1.900   2.935  17.145  0.7506  0.0575  1.1096
10644TIP3   OH253346   1.815   3.311  12.090  0.2005  0.1077 -0.2120
10644TIP3    H153347   1.863   3.391  12.065 -2.0509  1.4968 -0.3124
10644TIP3    H253348   1.723   3.334  12.082 -0.5601 -2.6926 -0.7089
10645TIP3   OH253349   2.277   4.045   2.491  0.1225 -0.1103  0.6245
10645TIP3    H153350   2.203   4.031   2.550  0.1102 -0.1892  0.5911
10645TIP3    H253351   2.264   3.981   2.421 -0.2882  0.5188  0.1253
10646TIP3   OH253352   5.292   4.754  14.960  0.1442 -0.3306  0.5503
10646TIP3    H153353   5.215   4.709  14.995  0.4610 -1.4229 -0.0764
10646TIP3    H253354   5.365   4.719  15.012  0.2694  0.3338  0.8227
10647TIP3   OH253355   4.793   4.823   1.379  0.3150  0.2136  0.1955
10647TIP3    H153356   4.877   4.859   1.349  0.4091  2.4749  2.7648
10647TIP3    H253357   4.727   4.864   1.324  0.7892 -1.1489 -1.4708
10648TIP3   OH253358   0.431   1.231  16.616  0.0364 -0.2483 -0.0518
10648TIP3    H153359   0.461   1.140  16.612  1.0302 -0.0036  1.2331
10648TIP3    H253360   0.501   1.282  16.574  0.5697  0.1301  1.2469
10649TIP3   OH253361   5.649   4.737  11.461 -0.2295 -0.3139  0.1930
10649TIP3    H153362   5.574   4.775  11.414 -1.1333  0.7227  2.3131
10649TIP3    H253363   5.705   4.701  11.392 -0.9122  2.0609 -1.7553
10650TIP3   OH253364   0.696   3.496  15.034 -0.2372  0.1074  0.1344
10650TIP3    H153365   0.683   3.534  14.947 -0.8171 -2.2095 -0.8787
10650TIP3    H253366   0.788   3.511  15.055  0.5858 -1.4521 -2.0486
10651TIP3   OH253367   4.114   0.861  13.592 -0.4700 -0.3486 -0.6054
10651TIP3    H153368   4.169   0.939  13.599 -0.4674 -0.3228 -0.8802
10651TIP3    H253369   4.162   0.793  13.638 -1.8999  0.5334  2.4177
10652TIP3   OH253370   5.462   6.755   3.470  0.0462  0.0300  0.0635
10652TIP3    H153371   5.498   6.684   3.523 -1.3149 -1.4916 -0.9544
10652TIP3    H253372   5.531   6.774   3.406  0.0698 -0.9948 -0.2204
10653TIP3   OH253373   0.532   1.784   3.397  0.1081 -0.2339 -0.7169
10653TIP3    H153374   0.474   1.708   3.405 -0.1246 -0.1341 -1.3502
10653TIP3    H253375   0.484   1.856   3.437 -0.2731 -0.1247 -1.3443
10654TIP3   OH253376   4.888   0.566   3.382  1.1294 -0.6771 -0.7782
10654TIP3    H153377   4.942   0.638   3.352  1.3254 -0.1466  0.7616
10654TIP3    H253378   4.949   0.492   3.390  1.2851 -0.5358 -0.6617
10655TIP3   OH253379   2.344   1.330   3.768 -0.6428 -0.0476  0.0290
10655TIP3    H153380   2.279   1.260   3.763 -0.6414 -0.0007 -0.9245
10655TIP3    H253381   2.379   1.325   3.857 -0.5690 -1.3218 -0.0518
10656TIP3   OH253382   1.164   2.097  13.125  0.4463 -0.0086 -0.0326
10656TIP3    H153383   1.179   2.138  13.210 -1.4113  0.5944  0.0457
10656TIP3    H253384   1.190   2.164  13.061 -0.1778  0.3564  0.0866
10657TIP3   OH253385   4.607   4.449  14.363 -0.1887  0.5581 -0.0187
10657TIP3    H153386   4.547   4.410  14.426 -1.0401  0.2584 -0.9883
10657TIP3    H253387   4.626   4.536  14.397 -0.4977  0.3392  0.7247
10658TIP3   OH253388   2.057   1.063   2.553  0.1640 -0.1692 -0.0107
10658TIP3    H153389   2.055   1.052   2.458  1.1384  0.2612 -0.0970
10658TIP3    H253390   2.105   1.145   2.567 -0.2620 -0.0546  0.8424
10659TIP3   OH253391   4.845   3.448  12.644  0.6967 -0.5486 -0.4321
10659TIP3    H153392   4.761   3.490  12.661  1.7583  2.0909 -1.1706
10659TIP3    H253393   4.827   3.386  12.573 -0.7795 -0.7276  0.0605
10660TIP3   OH253394   1.024   2.360   5.716 -0.6823  0.3307  0.3418
10660TIP3    H153395   0.960   2.384   5.649  1.2812 -1.9731 -2.5680
10660TIP3    H253396   0.981   2.291   5.766 -0.8525 -0.5747 -1.0120
10661TIP3   OH253397   6.261   4.314  13.424  0.3211 -0.0602  0.5583
10661TIP3    H153398   6.310   4.334  13.345 -0.4503  0.7248  0.2587
10661TIP3    H253399   6.284   4.224  13.445  0.0757 -0.4807 -0.8996
10662TIP3   OH253400   3.019   6.716  12.636 -0.4124  0.5521  0.3900
10662TIP3    H153401   2.942   6.769  12.616 -0.3681  0.7901  0.8241
10662TIP3    H253402   3.039   6.670  12.555 -3.9832 -3.4044  1.3820
10663TIP3   OH253403   3.650   0.856  17.081  0.7972 -0.3069  0.1141
10663TIP3    H153404   3.742   0.839  17.062  0.3210 -2.1113 -0.7332
10663TIP3    H253405   3.649   0.882  17.174  2.2985  1.3138 -0.2604
10664TIP3   OH253406   3.299   6.098   5.520  0.1410  0.2385  0.0328
10664TIP3    H153407   3.245   6.176   5.511  0.5313  0.7865  2.0093
10664TIP3    H253408   3.239   6.025   5.504 -0.2717  0.9005 -1.6134
10665TIP3   OH253409   0.834   2.967  13.443  0.1850 -0.2612 -0.1812
10665TIP3    H153410   0.781   3.045  13.425  0.4759 -0.0422 -0.0920
10665TIP3    H253411   0.827   2.955  13.538 -0.6612 -0.9240 -0.3126
10666TIP3   OH253412   4.917   2.038   1.755 -0.3552 -0.2549  0.0545
10666TIP3    H153413   5.008   2.025   1.782  0.1679  1.8728 -0.4622
10666TIP3    H253414   4.922   2.060   1.662 -1.2170  1.3825  0.3616
10667TIP3   OH253415   2.571   5.477   1.203 -0.1078  0.2889 -0.6580
10667TIP3    H153416   2.585   5.548   1.266  2.3344  0.1083 -0.9037
10667TIP3    H253417   2.557   5.522   1.119  0.0464  0.4835 -0.5803
10668TIP3   OH253418   2.252   3.766   4.473  0.1424  0.6434 -0.4315
10668TIP3    H153419   2.188   3.767   4.401 -0.6271 -2.6324  0.0506
10668TIP3    H253420   2.330   3.725   4.435  0.5440  0.9857  0.0156
10669TIP3   OH253421   3.340   5.248   2.203 -0.3851 -0.2868  0.4317
10669TIP3    H153422   3.373   5.206   2.123  2.3011  0.2171  1.1940
10669TIP3    H253423   3.336   5.341   2.181  0.3477 -0.1479  0.8426
10670TIP3   OH253424   5.787   2.373  16.165 -0.4403 -0.3794 -0.0314
10670TIP3    H153425   5.753   2.397  16.079 -0.1766 -0.7960 -0.2499
10670TIP3    H253426   5.842   2.447  16.190 -1.6181  0.3761  0.3910
10671TIP3   OH253427   2.339   3.756  16.708  0.5353  0.1327  1.0084
10671TIP3    H153428   2.265   3.751  16.648  0.8641 -0.9949  0.6618
10671TIP3    H253429   2.368   3.665  16.717  2.1299  0.5942  0.8022
10672TIP3   OH253430   2.139   3.215  11.409 -0.4147 -0.4883 -0.5256
10672TIP3    H153431   2.194   3.183  11.338  0.6999 -0.3480  0.2543
10672TIP3    H253432   2.200   3.255  11.470 -1.4050 -0.2140  0.3048
10673TIP3   OH253433   1.918   3.225   4.060 -0.1290 -0.0233 -0.6681
10673TIP3    H153434   1.887   3.147   4.014 -0.6004 -1.7682  2.3590
10673TIP3    H253435   1.839   3.264   4.098  0.4003  0.4589 -0.0327
10674TIP3   OH253436   0.954   6.699  13.851  0.0531  0.3562  0.1237
10674TIP3    H153437   0.869   6.744  13.856  0.7429  1.7391  0.0221
10674TIP3    H253438   0.984   6.694  13.942  0.0815  0.3239  0.1128
10675TIP3   OH253439   1.648   0.003  11.756 -0.2637  0.6444  0.2687
10675TIP3    H153440   1.716   0.061  11.723  1.8115 -1.6784  0.2041
10675TIP3    H253441   1.604  -0.030  11.677  0.6765 -0.2818  0.1197
10676TIP3   OH253442   6.021   5.491  16.850  0.3296 -0.1303 -0.1234
10676TIP3    H153443   6.074   5.411  16.851  1.1896  0.4260  1.0683
10676TIP3    H253444   6.011   5.511  16.757  0.3165 -1.4771 -0.4284
10677TIP3   OH253445   3.193   3.738   5.676  0.2937 -0.5123  0.0387
10677TIP3    H153446   3.250   3.675   5.721  2.2033 -1.1078 -2.9376
10677TIP3    H253447   3.224   3.823   5.706  1.1072 -0.8897  0.3104
10678TIP3   OH253448   5.288   4.444  13.926 -0.2837  0.0786 -0.0485
10678TIP3    H153449   5.377   4.478  13.914  0.3426 -1.3729  0.2829
10678TIP3    H253450   5.300   4.352  13.952 -1.8819 -0.1649 -0.0465
10679TIP3   OH253451   5.260   2.863  11.370 -0.3070 -0.3554 -0.2065
10679TIP3    H153452   5.317   2.904  11.434 -0.6111 -0.2058 -0.0299
10679TIP3    H253453   5.320   2.824  11.306  0.0322  2.4412 -1.7296
10680TIP3   OH253454   5.318   5.531   4.512  0.2557  0.1329 -0.0582
10680TIP3    H153455   5.297   5.522   4.605 -0.3193 -0.8347 -0.2729
10680TIP3    H253456   5.394   5.590   4.511  1.1815 -0.9806  1.1326
10681TIP3   OH253457   0.286   5.278  14.275  0.0323  0.5381 -0.5920
10681TIP3    H153458   0.241   5.324  14.345 -1.0335 -0.7711 -0.3676
10681TIP3    H253459   0.370   5.322  14.267 -0.3190  1.4864  0.6679
10682TIP3   OH253460   1.775   3.516  11.864 -0.6612 -0.0499  0.0615
10682TIP3    H153461   1.681   3.512  11.876 -0.8328  0.0062 -1.1644
10682TIP3    H253462   1.797   3.437  11.815  0.0176 -0.3593  0.8371
10683TIP3   OH253463   1.006   4.934   0.052  0.1463 -0.2598  0.5033
10683TIP3    H153464   0.996   4.948   0.146 -0.4621  1.6381  0.1886
10683TIP3    H253465   0.919   4.909   0.022 -0.4107  2.0320  0.0291
10684TIP3   OH253466   0.832   0.525   0.097 -0.0486 -0.3478  0.2282
10684TIP3    H153467   0.921   0.490   0.098  1.1764  2.4254 -0.9009
10684TIP3    H253468   0.787   0.475   0.029  1.3918 -0.2204 -0.8530
10685TIP3   OH253469   4.406   1.874   3.104  0.4526 -0.1878  0.1117
10685TIP3    H153470   4.355   1.923   3.039 -0.9419 -1.6805  0.0053
10685TIP3    H253471   4.492   1.916   3.103  0.1094  0.6085 -1.8243
10686TIP3   OH253472   3.196   1.260   4.320 -0.2989 -0.9432  0.4486
10686TIP3    H153473   3.197   1.173   4.278 -2.4261 -0.3815 -0.9426
10686TIP3    H253474   3.105   1.289   4.311 -0.1469  0.5323  2.8687
10687TIP3   OH253475   3.981   0.687   5.040 -0.0902  0.9291 -0.4813
10687TIP3    H153476   3.944   0.618   4.985 -2.0406  2.6486 -1.4520
10687TIP3    H253477   3.911   0.751   5.049  2.1030  3.5812 -0.9861
10688TIP3   OH253478   3.560   0.654  14.100  0.2803  0.3590 -0.0600
10688TIP3    H153479   3.508   0.574  14.109 -0.3114  0.4375 -2.1429
10688TIP3    H253480   3.510   0.721  14.145 -0.2675 -0.0212 -0.0949
10689TIP3   OH253481   2.134   5.774  11.955 -0.0667  0.5575  0.1923
10689TIP3    H153482   2.150   5.730  11.871  2.6496 -0.6035  1.2122
10689TIP3    H253483   2.211   5.829  11.968 -0.7881  1.2820  1.6093
10690TIP3   OH253484   5.317   0.024   2.637 -0.4670 -0.3965  0.1216
10690TIP3    H153485   5.317   0.063   2.724 -0.3122 -1.4048  0.5888
10690TIP3    H253486   5.378  -0.049   2.644  0.0327 -0.1051 -1.0168
10691TIP3   OH253487   2.343   2.815   3.732 -0.8557 -0.1058 -0.0961
10691TIP3    H153488   2.278   2.753   3.700 -3.0615  2.8237 -1.8606
10691TIP3    H253489   2.297   2.899   3.734  2.7033  2.0719 -0.8820
10692TIP3   OH253490   6.488   0.386   4.766 -0.2833  0.6891 -0.3052
10692TIP3    H153491   6.582   0.401   4.778 -0.1627  0.2383 -0.6616
10692TIP3    H253492   6.461   0.337   4.844 -0.0353  0.0384 -0.6216
10693TIP3   OH253493   3.154   4.224   3.695 -0.3149 -0.3508  0.4196
10693TIP3    H153494   3.235   4.193   3.655 -0.8255  0.9696 -1.8394
10693TIP3    H253495   3.093   4.151   3.684 -0.4583  0.0008 -1.3974
10694TIP3   OH253496   5.027   2.626  14.832 -0.1127 -0.0097  0.0644
10694TIP3    H153497   4.947   2.582  14.803 -0.0866  0.1999 -0.3407
10694TIP3    H253498   5.065   2.661  14.751  0.7726 -0.7468  0.1359
10695TIP3   OH253499   4.879   1.894   0.118 -0.0882  0.0795  0.2395
10695TIP3    H153500   4.826   1.959   0.071  1.1640  1.6707  0.9189
10695TIP3    H253501   4.884   1.927   0.208 -1.5960 -2.3833  1.2992
10696TIP3   OH253502   4.465   5.147   3.803  0.3680  0.2776  0.5351
10696TIP3    H153503   4.496   5.234   3.778  2.0840  0.1166  1.8865
10696TIP3    H253504   4.383   5.164   3.850  0.5716  1.1513  0.6041
10697TIP3   OH253505   1.941   4.489  13.183  0.0692  0.4809  0.2446
10697TIP3    H153506   1.931   4.533  13.268 -0.7441 -0.3468  0.6082
10697TIP3    H253507   1.982   4.405  13.205  0.9674  0.7584 -0.3446
10698TIP3   OH253508   3.966   1.349   6.184  0.0320  0.2079  0.5331
10698TIP3    H153509   4.032   1.281   6.194 -0.1153  0.1357  1.0230
10698TIP3    H253510   4.016   1.430   6.173  0.2119 -0.0054 -0.3277
10699TIP3   OH253511   0.185   0.084  16.867  0.5810 -0.0819 -0.3039
10699TIP3    H153512   0.152   0.163  16.824  0.0145  0.2669  0.7284
10699TIP3    H253513   0.276   0.105  16.888  0.9001 -0.3078 -1.4317
10700TIP3   OH253514   5.460   3.929  15.227 -0.1644 -0.1140  0.4510
10700TIP3    H153515   5.471   3.926  15.322  1.3093  2.6307  0.4535
10700TIP3    H253516   5.421   4.015  15.210  0.0156 -0.3671 -1.4725
10701TIP3   OH253517   5.306   5.476  12.068  0.9441  0.1580 -0.3024
10701TIP3    H153518   5.253   5.529  12.008  1.8031  0.4589 -0.8183
10701TIP3    H253519   5.266   5.491  12.154 -0.0248  0.0807 -0.7272
10702TIP3   OH253520   5.627   0.604   1.090 -0.2748 -0.0141 -0.0690
10702TIP3    H153521   5.560   0.583   1.025 -1.6178  0.2915  1.1616
10702TIP3    H253522   5.637   0.699   1.084 -1.4633  0.2007  1.1417
10703TIP3   OH253523   2.337   5.971   5.454  0.8529  0.0004  0.1510
10703TIP3    H153524   2.376   5.888   5.426 -1.1060  0.1552 -3.5939
10703TIP3    H253525   2.401   6.037   5.427  2.2505 -0.1174  2.8221
10704TIP3   OH253526   4.860   0.746   4.600  0.3000 -0.3658  0.1119
10704TIP3    H153527   4.796   0.799   4.551 -0.0831 -0.0820  0.9085
10704TIP3    H253528   4.817   0.662   4.612  1.1133 -1.0847 -1.6142
10705TIP3   OH253529   1.414   2.378  16.223 -0.1877 -0.2941  0.0149
10705TIP3    H153530   1.364   2.429  16.287 -0.8912  0.4710 -1.0982
10705TIP3    H253531   1.439   2.299  16.270 -0.0680  0.5479  1.4479
10706TIP3   OH253532   0.152   4.834   4.150 -0.1452 -0.3311 -0.3096
10706TIP3    H153533   0.111   4.851   4.066 -1.7503 -2.0234  0.0692
10706TIP3    H253534   0.119   4.748   4.176  3.2569 -1.6287  0.2996
10707TIP3   OH253535   5.822   4.715  13.247 -0.0628 -0.6925  0.0790
10707TIP3    H153536   5.897   4.775  13.255 -0.7917  0.0821  1.3930
10707TIP3    H253537   5.837   4.649  13.314 -0.4849 -0.6097  0.2587
10708TIP3   OH253538   1.841   6.487  14.276 -0.2911  0.4799 -0.0788
10708TIP3    H153539   1.902   6.561  14.282 -1.2956  1.2562  0.9011
10708TIP3    H253540   1.798   6.497  14.192 -2.8710  3.0501  1.3836
10709TIP3   OH253541   5.502   0.009  14.970  0.2657 -0.3634  0.0536
10709TIP3    H153542   5.510   0.104  14.970  0.8131 -0.4008 -0.3558
10709TIP3    H253543   5.587  -0.022  14.939  0.8136 -1.0535  2.0919
10710TIP3   OH253544   2.447   4.485   3.410 -0.1662  0.3227 -0.0329
10710TIP3    H153545   2.513   4.554   3.402  1.6682 -1.3199  0.1550
10710TIP3    H253546   2.440   4.470   3.504  2.0712 -2.0371 -0.1398
10711TIP3   OH253547   2.244   6.563  10.682 -0.1840 -0.5264  0.2561
10711TIP3    H153548   2.159   6.530  10.711 -1.1829  0.7409 -1.0561
10711TIP3    H253549   2.230   6.657  10.669  2.2341  0.3365  2.8305
10712TIP3   OH253550   4.516   2.288   2.009  0.5583  0.3029  0.1553
10712TIP3    H153551   4.559   2.369   2.036 -1.3768  0.9781  1.5172
10712TIP3    H253552   4.586   2.232   1.977  2.0153  2.3503 -0.4056
10713TIP3   OH253553   4.732   6.673   5.983  0.3131  0.3409 -0.3150
10713TIP3    H153554   4.645   6.708   6.003  0.5424  2.4724 -2.5820
10713TIP3    H253555   4.722   6.631   5.898  1.1884 -0.8260  0.1371
10714TIP3   OH253556   1.922   2.779   3.757 -0.4206  0.6148  0.0739
10714TIP3    H153557   1.833   2.752   3.735  0.0970  0.3576 -1.8665
10714TIP3    H253558   1.970   2.773   3.674  1.4170  0.7153  1.0876
10715TIP3   OH253559   4.348   3.456  14.079 -0.3305  0.7655  0.1519
10715TIP3    H153560   4.402   3.512  14.024  0.3876  0.5652  0.6336
10715TIP3    H253561   4.259   3.469  14.047 -0.1828  2.1931  0.2777
10716TIP3   OH253562   6.718   1.019  12.036  0.4694  0.2372  0.5591
10716TIP3    H153563   6.702   0.998  12.128 -1.8666  1.8199  0.6030
10716TIP3    H253564   6.659   1.091  12.017  0.1943 -0.6228 -2.4475
10717TIP3   OH253565   2.610   6.274  16.881 -0.5786 -0.1538  1.0143
10717TIP3    H153566   2.612   6.193  16.932 -1.6182 -1.6638 -1.1532
10717TIP3    H253567   2.606   6.244  16.790 -0.9079  2.3604  0.1303
10718TIP3   OH253568   1.798   2.377   2.036  0.3039 -0.3390 -0.5212
10718TIP3    H153569   1.770   2.355   1.948 -0.6748  1.1066 -0.6211
10718TIP3    H253570   1.882   2.423   2.025  0.5590 -0.8309 -0.6260
10719TIP3   OH253571   4.990   1.495   1.085 -0.1314  0.2577 -0.4321
10719TIP3    H153572   5.077   1.463   1.110 -0.4939  0.0541  0.6427
10719TIP3    H253573   5.007   1.563   1.021  0.7431 -0.9053 -1.5008
10720TIP3   OH253574   4.782   6.256  15.045  0.2312 -0.4250 -0.3456
10720TIP3    H153575   4.826   6.340  15.058 -0.5935 -0.0944  0.4361
10720TIP3    H253576   4.737   6.266  14.961  2.5204 -1.1831 -1.7211
10721TIP3   OH253577   4.234   2.110   5.299  0.1868 -0.2180  0.0161
10721TIP3    H153578   4.278   2.027   5.317  1.1093  0.2962  0.2411
10721TIP3    H253579   4.285   2.175   5.347  1.4775  0.9171 -2.6313
10722TIP3   OH253580   4.144   0.306   3.215 -0.2089 -0.7235 -0.0270
10722TIP3    H153581   4.148   0.393   3.177  1.0239 -0.2902  1.0398
10722TIP3    H253582   4.060   0.271   3.185 -1.4573  1.4118  0.7845
10723TIP3   OH253583   1.001   4.594  17.073  0.3543 -0.3694  0.5081
10723TIP3    H153584   1.074   4.623  17.019 -1.5641  0.1839 -1.9832
10723TIP3    H253585   0.998   4.499  17.061  0.1292 -0.2849 -0.1918
10724TIP3   OH253586   2.062   3.616   6.944  0.0413 -0.4099 -0.7639
10724TIP3    H153587   2.143   3.578   6.912 -0.3525 -1.0447 -1.0175
10724TIP3    H253588   2.043   3.569   7.025  0.3233  0.2662 -0.2917
10725TIP3   OH253589   6.323   3.576  10.963 -0.6115 -0.1653  0.1233
10725TIP3    H153590   6.257   3.586  10.895 -1.1674  1.8692  0.8754
10725TIP3    H253591   6.324   3.482  10.982 -1.9939 -0.4819 -1.1495
10726TIP3   OH253592   1.552   0.413  16.570 -0.4947 -0.1830 -0.2125
10726TIP3    H153593   1.594   0.490  16.531  0.1461 -0.6355 -0.4366
10726TIP3    H253594   1.463   0.442  16.592 -0.0801  0.7962  0.2478
10727TIP3   OH253595   3.650   5.632  16.954  0.0221  0.9165 -0.1428
10727TIP3    H153596   3.695   5.673  17.028 -2.6531  1.3635  1.3699
10727TIP3    H253597   3.561   5.666  16.958 -0.7641 -0.6194 -2.3830
10728TIP3   OH253598   0.214   4.612  11.952 -0.4683 -0.6092  0.3862
10728TIP3    H153599   0.158   4.540  11.925  0.8085 -0.1293 -4.4830
10728TIP3    H253600   0.161   4.691  11.939 -0.8158 -0.4085  2.6118
10729TIP3   OH253601   2.348   0.133   1.414 -0.4818 -0.2025  0.5385
10729TIP3    H153602   2.334   0.225   1.436 -0.3301 -0.1488  0.4124
10729TIP3    H253603   2.431   0.110   1.457  1.0248  0.5335 -1.7863
10730TIP3   OH253604   3.798   3.533   2.558  0.1841  0.3975 -0.5151
10730TIP3    H153605   3.764   3.622   2.560  0.0338  0.3419 -0.5709
10730TIP3    H253606   3.850   3.525   2.637  1.6705  1.1138 -1.3789
10731TIP3   OH253607   2.295   0.961   1.227  0.0908  0.2597  0.2810
10731TIP3    H153608   2.222   1.017   1.199 -0.2314 -1.9113 -3.9655
10731TIP3    H253609   2.253   0.890   1.276 -0.1262  0.8755  1.0208
10732TIP3   OH253610   0.936   5.089  10.918 -0.5283 -0.2151 -0.0533
10732TIP3    H153611   0.986   5.133  10.986  2.8072 -1.6639 -1.3489
10732TIP3    H253612   0.929   5.154  10.847  1.7085 -0.6593 -0.7665
10733TIP3   OH253613   4.890   1.405  13.242  0.2958  0.6301  0.3403
10733TIP3    H153614   4.834   1.328  13.243 -1.6711  1.9777  0.3559
10733TIP3    H253615   4.959   1.385  13.178 -1.1937 -0.4327 -0.9948
10734TIP3   OH253616   2.169   1.973   1.712 -0.1689 -0.5349  0.1170
10734TIP3    H153617   2.194   2.048   1.657 -0.0737 -0.6415  0.0154
10734TIP3    H253618   2.242   1.912   1.703 -0.4461 -0.8295 -0.1492
10735TIP3   OH253619   0.478   0.385   4.269  0.0448 -0.2254 -0.0695
10735TIP3    H153620   0.486   0.333   4.189  0.8892  1.7510 -1.3100
10735TIP3    H253621   0.384   0.383   4.289  0.0193 -1.9878 -0.2011
10736TIP3   OH253622   2.719   3.012  11.668  0.2511 -0.1215 -0.4977
10736TIP3    H153623   2.744   3.094  11.712 -0.8438 -0.2884  0.4790
10736TIP3    H253624   2.660   3.040  11.598  2.2222  0.1722 -2.1189
10737TIP3   OH253625   5.771   3.177   0.113 -0.4171  0.4065  0.1374
10737TIP3    H153626   5.781   3.107   0.178 -2.0827 -1.0249 -1.0651
10737TIP3    H253627   5.848   3.168   0.056  0.2667  0.7127  0.9770
10738TIP3   OH253628   4.966   5.304  11.808  0.2218  0.4701 -0.0795
10738TIP3    H153629   5.062   5.306  11.812  0.2392  1.8803 -0.4681
10738TIP3    H253630   4.944   5.213  11.790  1.4041 -0.2363  1.7097
10739TIP3   OH253631   3.864   5.556  13.155  0.1559  0.1359  0.2204
10739TIP3    H153632   3.893   5.545  13.065  1.1885  0.1230  0.5418
10739TIP3    H253633   3.768   5.549  13.151  0.0059  2.1637 -1.1701
10740TIP3   OH253634   6.384   6.568   2.276 -0.0548 -0.1994 -0.4647
10740TIP3    H153635   6.441   6.611   2.340  0.1705  0.1964 -0.9159
10740TIP3    H253636   6.391   6.475   2.296 -0.4579 -0.0368  0.4581
10741TIP3   OH253637   0.857   3.965   4.875  0.2613  0.6969  0.0199
10741TIP3    H153638   0.770   3.934   4.899  0.7028 -0.3408  0.3448
10741TIP3    H253639   0.844   4.056   4.849 -0.7827  0.8122  0.8801
10742TIP3   OH253640   3.726   2.601  14.625  0.0792 -0.2203 -1.0696
10742TIP3    H153641   3.805   2.645  14.592  1.0591 -0.7630  0.4574
10742TIP3    H253642   3.717   2.633  14.714 -2.3075  0.9461 -1.6379
10743TIP3   OH253643   1.184   2.738  13.463  0.5482 -0.6352  0.0957
10743TIP3    H153644   1.173   2.769  13.373 -1.2415 -1.2682  0.0629
10743TIP3    H253645   1.162   2.814  13.517  0.8445 -0.4839  0.0041
10744TIP3   OH253646   5.339   2.703   0.140 -0.4466 -0.4042 -0.6925
10744TIP3    H153647   5.312   2.705   0.232  1.9493 -1.6750  0.1250
10744TIP3    H253648   5.414   2.643   0.138 -0.6393 -0.7064 -3.5580
10745TIP3   OH253649   1.174   6.022  16.442  0.9762  0.1443 -0.1213
10745TIP3    H153650   1.233   5.947  16.455 -0.0526 -0.5523  0.6736
10745TIP3    H253651   1.163   6.059  16.530  0.5165  0.4847 -0.3173
10746TIP3   OH253652   6.195   3.231   1.711  0.2824 -0.2433 -0.2143
10746TIP3    H153653   6.103   3.245   1.686  0.2225  1.5278  0.8512
10746TIP3    H253654   6.215   3.143   1.679 -1.6354 -0.4777 -0.9063
10747TIP3   OH253655   1.322   5.482  11.565  0.1105 -0.4584  0.4076
10747TIP3    H153656   1.399   5.500  11.512 -0.2112 -1.6247 -0.4855
10747TIP3    H253657   1.292   5.397  11.536 -0.1297 -1.1173  2.4123
10748TIP3   OH253658   2.118   3.132  14.665  0.0821  0.1634 -0.2429
10748TIP3    H153659   2.072   3.207  14.701 -2.0452 -1.2017  0.0457
10748TIP3    H253660   2.160   3.091  14.741  0.0593  0.2664 -0.1744
10749TIP3   OH253661   3.938   1.661   5.005 -0.4299 -0.0199  0.1385
10749TIP3    H153662   3.871   1.635   4.941  1.0275 -2.4048 -0.5327
10749TIP3    H253663   4.000   1.714   4.954 -1.1172  1.1448  0.4749
10750TIP3   OH253664   6.649   6.344  16.853  0.2305  0.5580  0.4158
10750TIP3    H153665   6.576   6.299  16.895  1.4182 -0.8418  1.0352
10750TIP3    H253666   6.728   6.305  16.891  1.4002 -0.6496 -2.8747
10751TIP3   OH253667   4.622   0.069  12.538  0.5056 -0.1283  0.6011
10751TIP3    H153668   4.648   0.158  12.560 -1.8216  0.3213  1.9275
10751TIP3    H253669   4.658   0.053  12.450  0.0237  2.5360 -0.1484
10752TIP3   OH253670   5.374   5.063  12.544  0.2600  0.1991 -0.2460
10752TIP3    H153671   5.297   5.069  12.487  0.8538  0.8998 -0.9890
10752TIP3    H253672   5.337   5.056  12.632 -0.6612 -0.0002 -0.6310
10753TIP3   OH253673   0.679   5.110   6.681 -0.4348  0.0049 -0.6048
10753TIP3    H153674   0.736   5.173   6.638  0.4820  1.6313  2.6205
10753TIP3    H253675   0.593   5.153   6.685 -0.9429 -0.8148 -2.0929
10754TIP3   OH253676   2.661   4.390   5.863  0.0886  0.5479 -0.7121
10754TIP3    H153677   2.696   4.460   5.808 -0.1301  0.1768 -1.3442
10754TIP3    H253678   2.628   4.325   5.800  1.8096 -0.9192 -0.2036
10755TIP3   OH253679   1.012   1.870   2.086 -0.8345  0.0049  0.4510
10755TIP3    H153680   1.007   1.826   2.001 -1.1883 -0.5316  0.7412
10755TIP3    H253681   0.940   1.933   2.084  1.0769  2.2963 -0.8886
10756TIP3   OH253682   5.530   1.379  10.457  0.0396 -1.0972  0.8567
10756TIP3    H153683   5.608   1.348  10.410 -0.3973 -1.8226  0.6123
10756TIP3    H253684   5.459   1.371  10.394 -0.1682 -0.0123  0.9314
10757TIP3   OH253685   0.610   4.707  12.099 -0.0075 -0.0886  0.0512
10757TIP3    H153686   0.661   4.628  12.118 -0.2732  0.2708  2.6612
10757TIP3    H253687   0.669   4.779  12.122 -1.2917  0.3496  2.2227
10758TIP3   OH253688   1.158   2.434   1.133  0.4979  0.5125 -0.3038
10758TIP3    H153689   1.186   2.343   1.128 -1.8553 -0.2531 -1.0190
10758TIP3    H253690   1.116   2.442   1.219  0.2371  0.7577 -0.4501
10759TIP3   OH253691   3.500   1.119  14.097  0.3932 -0.2223 -0.8082
10759TIP3    H153692   3.576   1.100  14.152  1.2130  0.0581 -1.8156
10759TIP3    H253693   3.502   1.052  14.029 -1.7555 -1.7992  0.5597
10760TIP3   OH253694   4.921   5.007   4.440 -0.7900 -0.1079 -0.5989
10760TIP3    H153695   4.859   5.075   4.467 -0.3923  0.4465 -1.0540
10760TIP3    H253696   4.873   4.957   4.374 -1.6407 -1.2581  0.8380
10761TIP3   OH253697   2.088   4.905  12.785 -0.1529  0.0012  0.5900
10761TIP3    H153698   2.145   4.880  12.712  0.3697  1.0773  0.6127
10761TIP3    H253699   2.128   4.985  12.821 -1.8704  1.0334  0.3409
10762TIP3   OH253700   5.332   2.362  12.157  0.4933  0.0132  0.3039
10762TIP3    H153701   5.238   2.378  12.158  0.7102  1.6188  2.5308
10762TIP3    H253702   5.361   2.393  12.071 -1.1045 -1.5430 -0.8671
10763TIP3   OH253703   1.829   3.661  17.069 -0.3141  0.5140  0.2476
10763TIP3    H153704   1.769   3.679  16.997 -0.4615  1.8687  0.6990
10763TIP3    H253705   1.911   3.702  17.043 -0.0023 -0.0686  0.2962
10764TIP3   OH253706   1.174   0.200  14.691  0.0443 -0.8257  0.2267
10764TIP3    H153707   1.239   0.269  14.704 -1.9966  1.3868 -0.5262
10764TIP3    H253708   1.205   0.127  14.745  2.7542  0.3378  0.3941
10765TIP3   OH253709   2.018   1.925   2.950  0.0325  0.2272  0.2559
10765TIP3    H153710   1.999   1.994   3.014  2.4297  0.1063  1.2390
10765TIP3    H253711   2.038   1.848   3.004  0.7454 -0.2569 -0.6754
10766TIP3   OH253712   1.002   6.464   3.183 -0.4438  0.6379 -0.0144
10766TIP3    H153713   1.016   6.559   3.189 -0.4407  0.6788 -0.5722
10766TIP3    H253714   0.932   6.454   3.117  1.1219  0.1608 -1.6844
10767TIP3   OH253715   0.977   4.250  12.986  0.6173  0.0830 -0.5129
10767TIP3    H153716   0.980   4.216  12.897 -0.7642  0.6064 -0.7898
10767TIP3    H253717   0.934   4.335  12.978 -1.2626 -0.6591  0.8323
10768TIP3   OH253718   0.400   4.031  13.601  0.1259 -0.1991  0.3412
10768TIP3    H153719   0.389   4.121  13.631  0.1297 -0.4307  1.0595
10768TIP3    H253720   0.475   3.998  13.652  0.3808 -0.4784 -0.2118
10769TIP3   OH253721   4.035   4.941   5.485 -0.4039 -0.1141 -0.3316
10769TIP3    H153722   4.056   5.015   5.542 -1.6506 -0.8699  1.2131
10769TIP3    H253723   3.999   4.980   5.406 -0.4642  0.9543  0.2066
10770TIP3   OH253724   1.636   1.969   3.813 -0.5367 -0.3267 -0.8094
10770TIP3    H153725   1.688   1.890   3.826  0.8565  0.8917  2.2224
10770TIP3    H253726   1.603   1.990   3.900 -0.7781  2.4309 -1.4675
10771TIP3   OH253727   5.160   3.707   0.526  0.1608  0.3410 -0.2645
10771TIP3    H153728   5.118   3.632   0.484 -0.9931  1.3301 -0.9721
10771TIP3    H253729   5.196   3.758   0.453  0.9967  0.4568  0.2085
10772TIP3   OH253730   5.717   1.081  15.650  0.0147  0.2109  0.1861
10772TIP3    H153731   5.757   1.024  15.716  0.1350  0.0211 -0.0521
10772TIP3    H253732   5.650   1.028  15.608  0.0912  0.2592  0.0004
10773TIP3   OH253733   1.286   3.318   2.679  0.0865  0.1463 -0.1241
10773TIP3    H153734   1.343   3.328   2.756 -0.6037  0.2128  0.3845
10773TIP3    H253735   1.265   3.408   2.653 -0.9297  0.1260  0.5612
10774TIP3   OH253736   6.360   4.484  16.170  0.5028 -0.2175  0.6124
10774TIP3    H153737   6.426   4.456  16.234  0.8152  0.6281  0.6818
10774TIP3    H253738   6.408   4.492  16.088  0.2156 -0.7833  0.3854
10775TIP3   OH253739   4.428   2.396  15.248  0.1818 -0.7317 -0.2890
10775TIP3    H153740   4.450   2.380  15.340 -1.4268 -2.1705 -0.1100
10775TIP3    H253741   4.343   2.439  15.251  0.3557 -0.3022 -1.1225
10776TIP3   OH253742   2.758   6.583   1.483 -0.0855 -0.0895 -0.3195
10776TIP3    H153743   2.712   6.509   1.444  0.7904 -0.3999 -0.7996
10776TIP3    H253744   2.803   6.625   1.410 -0.1247  0.5949  0.0344
10777TIP3   OH253745   0.868   3.339   5.266 -0.2758 -0.0368 -0.1526
10777TIP3    H153746   0.957   3.360   5.237  0.7107  0.4970  2.8887
10777TIP3    H253747   0.831   3.423   5.292 -1.4765 -0.3475 -0.7981
10778TIP3   OH253748   1.961   4.187   3.676 -0.0147 -0.0538 -0.2209
10778TIP3    H153749   1.894   4.121   3.660  1.9216 -2.1547 -0.1933
10778TIP3    H253750   2.026   4.173   3.608  1.6919  0.0955  1.3108
10779TIP3   OH253751   1.530   0.646  11.610  0.4806  0.1892  0.5200
10779TIP3    H153752   1.470   0.720  11.614 -0.8797 -0.6711 -1.7745
10779TIP3    H253753   1.583   0.661  11.532 -0.0239 -1.3498 -0.1661
10780TIP3   OH253754   6.065   0.466  14.744  0.3917 -0.1492  0.5670
10780TIP3    H153755   6.047   0.520  14.821 -1.2176 -0.1068  0.1858
10780TIP3    H253756   6.047   0.523  14.670  0.8581 -0.5338  0.1510
10781TIP3   OH253757   3.182   3.596  14.084  0.1441  0.7017 -0.3917
10781TIP3    H153758   3.125   3.618  14.158  1.9251  1.6625  0.7679
10781TIP3    H253759   3.132   3.531  14.034 -0.3625 -1.5651  2.7361
10782TIP3   OH253760   3.195   1.349  16.672  0.0310 -0.4796 -0.3506
10782TIP3    H153761   3.201   1.329  16.765  1.4166 -0.2693 -0.3728
10782TIP3    H253762   3.285   1.340  16.639 -0.1435  0.9358 -1.3399
10783TIP3   OH253763   1.637   3.557   3.838  0.3919 -0.1965 -0.0990
10783TIP3    H153764   1.608   3.628   3.896 -0.1841 -0.2991 -0.2531
10783TIP3    H253765   1.729   3.577   3.821  1.1668 -1.2141  2.4073
10784TIP3   OH253766   1.259   4.162  11.457  0.3750  0.3539  0.3989
10784TIP3    H153767   1.308   4.137  11.379 -0.0571 -0.0982  0.2699
10784TIP3    H253768   1.183   4.104  11.458  1.3143 -0.9689  2.1581
10785TIP3   OH253769   3.679   5.038  16.720 -0.0332  0.3360  0.2354
10785TIP3    H153770   3.697   5.103  16.788 -1.7063  0.0913  0.9535
10785TIP3    H253771   3.693   5.085  16.638  2.5539  0.4846  0.6912
10786TIP3   OH253772   0.767   6.127   2.079 -0.1417 -0.0944  0.2581
10786TIP3    H153773   0.771   6.223   2.085  1.3512 -0.0397 -1.1646
10786TIP3    H253774   0.696   6.110   2.017 -1.4992 -0.0049  1.7200
10787TIP3   OH253775   2.682   5.177   0.285  0.3216  0.0790  0.3264
10787TIP3    H153776   2.663   5.093   0.325 -2.0987  0.7581  0.7712
10787TIP3    H253777   2.634   5.241   0.338  1.0470  1.5995 -0.7526
10788TIP3   OH253778   2.044   4.239   0.348  0.3776 -0.0525 -0.8207
10788TIP3    H153779   1.996   4.277   0.422  4.5768  2.3110  1.0427
10788TIP3    H253780   2.037   4.306   0.279 -0.8109 -0.7538 -1.3999
10789TIP3   OH253781   1.917   2.091   1.726 -0.1097 -0.5159 -0.5847
10789TIP3    H153782   2.003   2.050   1.712  0.4343  0.3586  0.0861
10789TIP3    H253783   1.898   2.075   1.819 -0.1070  0.3212 -0.4326
10790TIP3   OH253784   1.845   1.304   0.263  0.3878 -0.4151  0.0090
10790TIP3    H153785   1.770   1.359   0.242  0.4139 -0.0175  0.9452
10790TIP3    H253786   1.890   1.349   0.335  0.7913 -1.3048  0.3350
10791TIP3   OH253787   1.460   3.770   2.293 -0.3138 -0.5153  0.4042
10791TIP3    H153788   1.467   3.857   2.333  0.5244 -0.7024  0.6820
10791TIP3    H253789   1.374   3.770   2.251  0.3541  1.0894 -1.1022
10792TIP3   OH253790   4.599   2.796   5.377 -0.2568  0.1090  0.2415
10792TIP3    H153791   4.622   2.704   5.369 -1.1478 -0.2039  1.0798
10792TIP3    H253792   4.618   2.818   5.469  0.2895  0.8653 -0.0365
10793TIP3   OH253793   4.292   2.072   4.454  0.5288  0.0378  0.8339
10793TIP3    H153794   4.210   2.029   4.480  0.6746 -0.5589  0.3456
10793TIP3    H253795   4.360   2.013   4.487  0.7242 -1.2983 -1.6827
10794TIP3   OH253796   4.389   6.721   0.187  0.0874  0.3912  0.0831
10794TIP3    H153797   4.307   6.674   0.203 -0.8334  1.3269 -1.5603
10794TIP3    H253798   4.433   6.723   0.272 -2.2359  1.0294  1.3586
10795TIP3   OH253799   2.315   0.253  16.543  0.9475  0.2533 -0.1721
10795TIP3    H153800   2.350   0.337  16.513 -0.5316  1.2493  0.7559
10795TIP3    H253801   2.361   0.188  16.490  2.1029  1.6375 -0.9512
10796TIP3   OH253802   2.487   1.615   4.519 -0.2863 -0.2375  0.2122
10796TIP3    H153803   2.561   1.599   4.460  0.3547 -0.3337  1.0350
10796TIP3    H253804   2.494   1.707   4.543 -1.0058  0.0077 -0.4643
10797TIP3   OH253805   2.753   4.580  11.264  0.4195 -0.0352  0.1030
10797TIP3    H153806   2.831   4.617  11.222 -0.3255  1.3029 -0.1676
10797TIP3    H253807   2.682   4.641  11.242 -0.3341 -0.1606  1.9585
10798TIP3   OH253808   4.203   4.774   5.317  0.1723  0.5293 -0.0079
10798TIP3    H153809   4.144   4.822   5.376  1.1426  2.7063 -0.6920
10798TIP3    H253810   4.240   4.842   5.261  0.3379 -1.2965 -2.2349
10799TIP3   OH253811   4.445   2.865   0.689  0.4115 -0.0839  0.2317
10799TIP3    H153812   4.352   2.876   0.668  0.6026 -0.2666 -0.7474
10799TIP3    H253813   4.490   2.924   0.629  1.0170 -1.1314 -0.3768
10800TIP3   OH253814   4.593   3.522  15.680  0.1385  0.6628  0.1195
10800TIP3    H153815   4.537   3.592  15.714  1.0038  1.1339  0.6141
10800TIP3    H253816   4.643   3.492  15.757 -0.6133 -0.8986  0.0403
10801TIP3   OH253817   1.934   3.080  11.534 -0.0566  0.8278  0.0944
10801TIP3    H153818   2.000   3.093  11.466  1.1790  1.2336  1.3240
10801TIP3    H253819   1.980   3.031  11.602 -0.8189  1.7292  1.2788
10802TIP3   OH253820   5.219   4.941   5.654 -0.2356 -0.1488  0.1402
10802TIP3    H153821   5.303   4.928   5.608 -0.3028  1.4616 -0.4948
10802TIP3    H253822   5.162   4.979   5.588 -1.4527 -1.0713  0.6210
10803TIP3   OH253823   2.126   2.421  15.520  0.3160  0.0937  0.0907
10803TIP3    H153824   2.105   2.446  15.430  1.0335 -0.0326 -0.1201
10803TIP3    H253825   2.068   2.347  15.539  1.4491 -1.1159 -0.9446
10804TIP3   OH253826   6.070   2.384  11.902 -0.6455  0.2130  0.4659
10804TIP3    H153827   6.021   2.466  11.911 -2.0116 -0.5810  0.6230
10804TIP3    H253828   6.009   2.325  11.857  1.2133  0.0407 -2.0672
10805TIP3   OH253829   5.608   1.651   0.799  0.7562  0.3898 -0.0814
10805TIP3    H153830   5.553   1.582   0.837 -0.6017 -0.3392 -2.9943
10805TIP3    H253831   5.697   1.628   0.824  0.0615 -0.5073  1.7457
10806TIP3   OH253832   6.640   6.174   1.468  0.2389 -0.3267  0.4972
10806TIP3    H153833   6.640   6.150   1.561  0.8360  0.3795  0.6899
10806TIP3    H253834   6.577   6.114   1.428 -0.1370 -0.5450  1.3829
10807TIP3   OH253835   5.385   6.243   4.546  0.3294 -0.0167 -0.0069
10807TIP3    H153836   5.314   6.297   4.581  0.2275  0.0461 -0.3085
10807TIP3    H253837   5.383   6.258   4.452  1.0372  0.3285  0.0289
10808TIP3   OH253838   5.939   5.333   3.842  0.0872 -0.0694 -0.2488
10808TIP3    H153839   6.003   5.330   3.771 -0.3447  1.0970 -0.7154
10808TIP3    H253840   5.873   5.395   3.812 -1.0418 -0.9036  0.4120
10809TIP3   OH253841   2.195   1.341   3.423 -0.1437 -0.0932  0.1199
10809TIP3    H153842   2.270   1.399   3.440  0.8954 -0.8946 -1.4635
10809TIP3    H253843   2.226   1.254   3.447 -0.7152 -0.3787 -0.1553
10810TIP3   OH253844   5.840   1.881  14.919 -0.2290 -0.1050 -0.1040
10810TIP3    H153845   5.851   1.856  15.011 -0.6508  0.0560 -0.0067
10810TIP3    H253846   5.835   1.976  14.920 -1.0549 -0.1429 -0.2004
10811TIP3   OH253847   6.061   2.228   1.795 -0.2306 -0.0293  0.1188
10811TIP3    H153848   6.081   2.302   1.853  1.3305  0.5350 -1.0549
10811TIP3    H253849   5.984   2.187   1.834  0.4024  0.6707  2.2476
10812TIP3   OH253850   6.468   2.220  14.768 -0.0173 -0.1953  0.3710
10812TIP3    H153851   6.472   2.131  14.734 -0.9371 -0.3219  0.5712
10812TIP3    H253852   6.420   2.269  14.700  2.0338  0.5821 -0.6073
10813TIP3   OH253853   2.556   0.703   0.452 -0.0758  1.0068  0.3373
10813TIP3    H153854   2.644   0.713   0.416 -0.4266  0.7669 -0.6264
10813TIP3    H253855   2.569   0.701   0.547  0.8915  1.5524  0.2319
10814TIP3   OH253856   3.792   6.168   5.934  0.0308 -0.1516  0.0428
10814TIP3    H153857   3.809   6.076   5.954  1.6502 -0.1618 -1.1607
10814TIP3    H253858   3.802   6.175   5.839 -1.2925  1.0513 -0.0447
10815TIP3   OH253859   3.743   5.677   3.899  0.4577  0.3220 -0.2004
10815TIP3    H153860   3.665   5.644   3.855 -1.2119  1.4526  1.7103
10815TIP3    H253861   3.799   5.600   3.913  0.5448 -0.2373 -3.1158
10816TIP3   OH253862   6.224   1.060   2.412  0.3103 -0.3365 -0.1026
10816TIP3    H153863   6.268   1.053   2.497  0.6478  0.5343 -0.1961
10816TIP3    H253864   6.142   1.012   2.423  0.4269 -0.3661  0.6631
10817TIP3   OH253865   2.799   6.245  14.589  0.1623  0.1776 -0.5322
10817TIP3    H153866   2.806   6.171  14.649 -1.8035  0.7809  0.5269
10817TIP3    H253867   2.800   6.323  14.645 -3.0019  0.7199 -1.0280
10818TIP3   OH253868   6.549   0.227   3.589  0.0618 -0.2221  0.2678
10818TIP3    H153869   6.644   0.233   3.605  0.0623 -1.3369  0.7500
10818TIP3    H253870   6.542   0.187   3.502  0.0336 -0.3082  0.3099
10819TIP3   OH253871   1.415   3.304   1.974  0.5650  0.7756 -0.3754
10819TIP3    H153872   1.357   3.321   2.048  1.3570 -0.1151  0.4815
10819TIP3    H253873   1.472   3.380   1.969  0.5010  0.8421 -0.0683
10820TIP3   OH253874   4.379   4.397  11.906 -0.6135 -0.1527  0.1670
10820TIP3    H153875   4.433   4.318  11.893 -1.0108 -0.3005 -0.6079
10820TIP3    H253876   4.433   4.453  11.962  0.1604 -0.4919 -0.2177
10821TIP3   OH253877   2.219   0.429  13.572 -0.1636 -0.3703  0.2944
10821TIP3    H153878   2.283   0.388  13.513 -1.2364 -1.2372 -0.3216
10821TIP3    H253879   2.191   0.508  13.525  1.7363  1.0193  1.3775
10822TIP3   OH253880   3.988   3.596   5.913  0.1624  0.3431 -0.2646
10822TIP3    H153881   3.970   3.679   5.957 -0.5326 -0.5790  1.2771
10822TIP3    H253882   4.049   3.619   5.843 -1.3077  2.4175 -0.9751
10823TIP3   OH253883   0.973   6.751  16.589 -0.4351  0.4095  0.2190
10823TIP3    H153884   1.062   6.720  16.568 -0.6259  0.0049 -0.0012
10823TIP3    H253885   0.963   6.735  16.683  0.3983  2.1588  0.6612
10824TIP3   OH253886   2.255   5.398   3.739 -0.1880 -0.1459 -0.0368
10824TIP3    H153887   2.319   5.453   3.695 -1.7611  1.6780 -0.1952
10824TIP3    H253888   2.299   5.367   3.818  1.0564  0.6046 -0.4122
10825TIP3   OH253889   6.048   2.080   1.176 -0.1012 -0.1898 -0.0703
10825TIP3    H153890   6.069   1.987   1.161  0.5123 -0.2497  1.1159
10825TIP3    H253891   6.010   2.109   1.093 -0.5726 -1.5816 -0.3701
10826TIP3   OH253892   3.416   0.279   0.571  0.1381  0.3850  0.2627
10826TIP3    H153893   3.423   0.190   0.536 -0.9182  0.4873 -0.2417
10826TIP3    H253894   3.380   0.268   0.660 -1.1811  0.3553 -0.2485
10827TIP3   OH253895   0.206   4.195   5.315  0.0120 -0.0927 -0.4086
10827TIP3    H153896   0.225   4.102   5.310 -1.0656 -0.4310  1.3194
10827TIP3    H253897   0.288   4.237   5.287  0.4021 -1.5253 -1.5562
10828TIP3   OH253898   5.646   2.062  15.536  0.3690  0.1919  0.0890
10828TIP3    H153899   5.655   1.967  15.528  1.2564  0.3362 -0.9310
10828TIP3    H253900   5.693   2.097  15.460 -0.7990  1.4258 -0.1110
10829TIP3   OH253901   6.572   5.854  13.546  0.5560 -0.1201 -0.2800
10829TIP3    H153902   6.538   5.930  13.592 -1.7850 -0.9728 -0.4825
10829TIP3    H253903   6.593   5.791  13.615 -0.2501 -0.3516 -0.2448
10830TIP3   OH253904   1.390   1.257  11.192  0.3191 -0.0733 -0.2571
10830TIP3    H153905   1.470   1.207  11.175  0.4969 -0.0245  0.4019
10830TIP3    H253906   1.402   1.294  11.280  0.6444  2.0083 -1.1184
10831TIP3   OH253907   3.562   1.731   2.148 -0.0227 -0.2140  0.0684
10831TIP3    H153908   3.556   1.817   2.191 -0.8786  0.2032 -0.8414
10831TIP3    H253909   3.655   1.722   2.126  0.0609  0.5348  0.0691
10832TIP3   OH253910   2.632   4.259   4.543 -0.0546  0.0534  0.4518
10832TIP3    H153911   2.695   4.186   4.541 -1.5279 -1.2585 -0.0532
10832TIP3    H253912   2.645   4.303   4.459  0.1828 -0.2094  0.3475
10833TIP3   OH253913   6.672   4.330  15.892  0.1938 -0.1641 -0.6291
10833TIP3    H153914   6.634   4.245  15.915  0.4600 -0.0987  0.0651
10833TIP3    H253915   6.614   4.365  15.825  0.0620 -0.8796 -0.8920
10834TIP3   OH253916   4.445   0.306  12.796 -0.0723  0.2777  0.8490
10834TIP3    H153917   4.443   0.364  12.873  0.7528  0.5629  0.6646
10834TIP3    H253918   4.530   0.323  12.755  0.1695 -1.0407  0.7591
10835TIP3   OH253919   1.888   1.065   0.473  0.2075  0.1051 -0.3396
10835TIP3    H153920   1.909   0.973   0.491 -0.6363  0.1749  1.1888
10835TIP3    H253921   1.877   1.104   0.560 -0.2455  1.4598 -0.9845
10836TIP3   OH253922   5.702   3.323  12.455  0.0683  0.0552 -0.0114
10836TIP3    H153923   5.745   3.352  12.535  0.3913  0.2235 -0.2412
10836TIP3    H253924   5.765   3.262  12.416 -0.5741 -0.9035  0.4317
10837TIP3   OH253925   4.926   1.982  13.637  0.2515  0.2098  0.1172
10837TIP3    H153926   4.991   2.045  13.606  2.1800  0.2643  3.6638
10837TIP3    H253927   4.924   1.995  13.732 -3.6792 -1.1012  0.4177
10838TIP3   OH253928   2.441   5.718  14.558  0.1964 -0.8083 -0.3088
10838TIP3    H153929   2.408   5.745  14.644  0.2037 -0.4263 -0.4231
10838TIP3    H253930   2.500   5.789  14.532 -0.1412 -0.7103 -0.8208
10839TIP3   OH253931   0.130   4.718  14.344  0.2303  0.4594 -0.4058
10839TIP3    H153932   0.038   4.744  14.352  0.4312  1.0109  0.1662
10839TIP3    H253933   0.155   4.693  14.433  0.7925  0.8603 -0.4481
10840TIP3   OH253934   1.470   4.009  15.436  0.3841  0.4746  0.6325
10840TIP3    H153935   1.431   4.058  15.364  0.5062 -0.9895 -0.4771
10840TIP3    H253936   1.396   3.985  15.491  0.4661  3.1382  2.0633
10841TIP3   OH253937   6.078   1.132   5.419  0.2273 -0.5659 -0.0294
10841TIP3    H153938   6.101   1.219   5.387  1.3387  0.1768  2.5291
10841TIP3    H253939   6.153   1.078   5.397  0.6864 -0.2229  0.6500
10842TIP3   OH253940   5.828   3.252   4.680 -0.2234  0.1769 -0.0621
10842TIP3    H153941   5.907   3.222   4.725  0.6573  1.3622 -0.7549
10842TIP3    H253942   5.769   3.279   4.751  0.3684  0.1512  0.4465
10843TIP3   OH253943   3.871   6.658   6.107 -0.2386 -0.2958  0.0536
10843TIP3    H153944   3.854   6.566   6.087  0.4907 -0.0922 -1.6105
10843TIP3    H253945   3.800   6.705   6.064  0.2861  0.0263 -0.4615
10844TIP3   OH253946   3.225   4.394   4.429  0.2231  0.7643  0.3423
10844TIP3    H153947   3.311   4.427   4.403  0.6240 -0.2515  0.3327
10844TIP3    H253948   3.174   4.394   4.347  0.6656  0.0428  0.0551
10845TIP3   OH253949   6.517   2.852   2.012 -0.4620  0.1994  0.7099
10845TIP3    H153950   6.591   2.857   2.072 -0.6621  1.6961  0.8779
10845TIP3    H253951   6.488   2.943   2.003 -0.1082  0.1037 -2.0872
10846TIP3   OH253952   5.349   3.880  13.928 -0.3560 -0.4152 -0.4034
10846TIP3    H153953   5.398   3.946  13.879 -0.3292 -0.1489 -0.0203
10846TIP3    H253954   5.267   3.870  13.880 -1.1095  1.1697  0.4798
10847TIP3   OH253955   2.955   6.361  16.967 -0.9906  0.7757 -0.0739
10847TIP3    H153956   2.971   6.284  17.021 -0.4818  1.3239  0.5768
10847TIP3    H253957   2.892   6.332  16.900  0.0338 -0.4765 -0.5154
10848TIP3   OH253958   6.143   0.706   2.957  0.0164 -0.1268 -0.0879
10848TIP3    H153959   6.104   0.626   2.991 -1.8134  1.1199  0.8993
10848TIP3    H253960   6.136   0.769   3.029 -0.5982  1.5359 -1.5296
10849TIP3   OH253961   1.878   1.083   4.537 -0.0676 -0.0338 -0.5948
10849TIP3    H153962   1.905   0.991   4.540  1.0778  0.2781 -0.8957
10849TIP3    H253963   1.921   1.118   4.459 -0.4820  0.7625 -0.4720
10850TIP3   OH253964   0.037   0.853   0.966 -0.0045 -0.0039 -0.2902
10850TIP3    H153965   0.028   0.874   1.059 -1.5489 -0.8243 -0.2186
10850TIP3    H253966   0.052   0.938   0.924 -0.0371  0.4691  0.6188
10851TIP3   OH253967   3.036   5.151   1.356 -0.0046 -0.2093 -0.5595
10851TIP3    H153968   3.047   5.066   1.315  0.8845  0.5556 -2.0066
10851TIP3    H253969   2.961   5.190   1.310 -0.8099 -0.4232  0.5247
10852TIP3   OH253970   4.227   6.627   6.378  0.2900  0.3602  0.4535
10852TIP3    H153971   4.172   6.705   6.381 -1.3324 -0.7496  1.5705
10852TIP3    H253972   4.226   6.594   6.468  0.4920 -1.2257 -0.0873
10853TIP3   OH253973   5.721   4.929  13.837 -0.5827 -0.2210 -0.3941
10853TIP3    H153974   5.785   4.981  13.788 -0.6337 -0.8867 -1.1842
10853TIP3    H253975   5.648   4.917  13.776 -0.5109 -1.3383 -0.2811
10854TIP3   OH253976   0.790   0.676   5.081 -0.1372  0.0929 -0.0016
10854TIP3    H153977   0.844   0.723   5.018 -0.3324  0.5393  0.1521
10854TIP3    H253978   0.754   0.602   5.032  0.4220 -0.0776 -0.1651
10855TIP3   OH253979   1.145   5.985  12.108 -0.5053 -0.2464  0.0129
10855TIP3    H153980   1.137   5.969  12.014 -1.8858 -1.6608  0.3268
10855TIP3    H253981   1.077   5.931  12.148 -0.8957  1.4082  1.7490
10856TIP3   OH253982   4.110   4.092   3.220  0.2421  0.3545  0.1645
10856TIP3    H153983   4.099   4.009   3.174  0.7021 -0.1453  0.9361
10856TIP3    H253984   4.064   4.156   3.166  0.0631 -0.3660 -0.5456
10857TIP3   OH253985   6.452   5.045   1.754  0.1633 -0.0244 -0.0773
10857TIP3    H153986   6.377   4.994   1.782 -1.0335  1.3777 -0.5889
10857TIP3    H253987   6.512   5.044   1.828  0.3036 -2.3268 -0.1702
10858TIP3   OH253988   6.640   3.984  13.055 -0.2838  0.3331 -0.2242
10858TIP3    H153989   6.588   3.989  13.135 -0.6178 -0.3673 -0.3851
10858TIP3    H253990   6.676   4.072  13.043  1.1976  0.0486  1.6347
10859TIP3   OH253991   4.512   4.902  16.346  0.0703 -0.4629 -0.7301
10859TIP3    H153992   4.576   4.953  16.394 -0.2732  0.5911 -1.3679
10859TIP3    H253993   4.542   4.811  16.355 -0.5739 -0.4932  2.3928
10860TIP3   OH253994   3.132   0.862  14.578  0.1354  0.0415  0.2016
10860TIP3    H153995   3.043   0.879  14.608 -0.3573 -0.0359 -1.1453
10860TIP3    H253996   3.135   0.767  14.565  0.1376  0.1331 -0.5333
10861TIP3   OH253997   0.249   1.915  16.041 -0.0581  0.2319 -0.4873
10861TIP3    H153998   0.264   1.826  16.075 -1.5329  0.2238  0.2202
10861TIP3    H253999   0.187   1.953  16.103 -0.0795  1.4768 -1.2578
10862TIP3   OH254000   0.619   6.721  14.067  0.1729 -0.2581  0.4809
10862TIP3    H154001   0.524   6.732  14.064  0.3830  2.3587  1.2609
10862TIP3    H254002   0.634   6.632  14.034 -2.5934 -1.1118  1.3003
10863TIP3   OH254003   3.237   2.572  16.984  0.0384 -0.2039 -0.4166
10863TIP3    H154004   3.155   2.544  16.944  0.3701  1.2176 -2.2576
10863TIP3    H254005   3.210   2.624  17.060 -0.6224 -2.6131  1.0730
10864TIP3   OH254006   3.800   0.902   1.231 -0.8406  0.1657 -0.0450
10864TIP3    H154007   3.811   0.954   1.152 -0.5831 -0.0419 -0.1492
10864TIP3    H254008   3.712   0.923   1.263 -1.3712 -0.5698 -0.9853
10865TIP3   OH254009   3.131   0.849  16.496 -0.3321 -0.0538  0.5172
10865TIP3    H154010   3.050   0.895  16.517 -0.6755 -0.5556  0.2905
10865TIP3    H254011   3.134   0.775  16.557 -1.0263 -1.1642 -0.7585
10866TIP3   OH254012   4.892   1.018   3.966  0.4304 -0.2635  0.1611
10866TIP3    H154013   4.832   0.950   3.995 -0.8454  0.1719 -1.3367
10866TIP3    H254014   4.863   1.097   4.011  1.4563 -0.5199  1.3333
10867TIP3   OH254015   4.659   2.239  16.333 -0.3010 -0.2916 -0.8624
10867TIP3    H154016   4.637   2.271  16.245  2.8660 -0.7063 -1.9269
10867TIP3    H254017   4.591   2.175  16.352 -2.8522  1.9738 -1.6073
10868TIP3   OH254018   1.870   3.403  16.487  0.2612 -0.3174  0.1019
10868TIP3    H154019   1.939   3.366  16.432  0.5209 -0.3491  0.4461
10868TIP3    H254020   1.796   3.344  16.476  0.2681 -0.2493 -0.3191
10869TIP3   OH254021   1.229   0.951  15.040  0.3212  0.1900 -0.1580
10869TIP3    H154022   1.137   0.967  15.022  0.2832  1.0644  0.7219
10869TIP3    H254023   1.275   0.976  14.960 -0.1356  0.5306 -0.3147
10870TIP3   OH254024   1.097   0.886  12.645  0.1813  0.0664 -0.2653
10870TIP3    H154025   1.097   0.981  12.640  0.6559  0.1522  0.9938
10870TIP3    H254026   1.005   0.861  12.642  0.0275  0.6024  0.0171
10871TIP3   OH254027   0.979   3.284   3.327 -0.1878 -0.1558 -0.3508
10871TIP3    H154028   0.975   3.188   3.322  0.1173 -0.1391 -0.9052
10871TIP3    H254029   0.985   3.313   3.236 -1.0132  0.4272 -0.2359
10872TIP3   OH254030   6.513   1.636   0.178  0.2396 -0.3078 -0.0296
10872TIP3    H154031   6.598   1.608   0.144  0.8850  2.1458 -0.6260
10872TIP3    H254032   6.525   1.728   0.201 -2.3103  0.1861 -0.3304
10873TIP3   OH254033   4.647   2.613  15.558 -0.0017  0.2421 -0.9477
10873TIP3    H154034   4.650   2.623  15.653  0.0964 -1.4125 -0.7464
10873TIP3    H254035   4.728   2.655  15.527  1.4417 -1.6385  0.0102
10874TIP3   OH254036   3.259   3.055   1.371  0.4057  0.1766 -0.0384
10874TIP3    H154037   3.266   2.961   1.358  2.1080  0.3077 -0.3403
10874TIP3    H254038   3.197   3.084   1.304 -0.7751 -0.8165  0.6010
10875TIP3   OH254039   1.495   1.157   3.523  0.1436  0.2092 -0.1702
10875TIP3    H154040   1.501   1.149   3.618 -1.8290 -0.0806 -0.0284
10875TIP3    H254041   1.564   1.220   3.500  0.3019  0.6994  1.5069
10876TIP3   OH254042   3.375   6.763  13.649 -1.0110 -0.2907  0.0505
10876TIP3    H154043   3.306   6.733  13.591  0.7743 -0.9691 -1.8424
10876TIP3    H254044   3.425   6.684  13.671  0.1712  0.3946 -0.0367
10877TIP3   OH254045   6.557   4.263   2.924 -0.1956 -0.0270  0.0799
10877TIP3    H154046   6.576   4.217   2.842 -1.8926 -1.2169  0.3041
10877TIP3    H254047   6.642   4.275   2.966  0.6381  0.0821 -1.5671
10878TIP3   OH254048   2.813   6.715   5.133  0.0170  0.2742 -0.4808
10878TIP3    H154049   2.856   6.714   5.219 -0.1808  0.3656 -0.3812
10878TIP3    H254050   2.878   6.754   5.074  0.3405 -0.2436 -0.4730
10879TIP3   OH254051   2.414   3.156  16.194  0.1739  0.2694 -0.0461
10879TIP3    H154052   2.369   3.073  16.207 -0.4049  0.5672 -0.1398
10879TIP3    H254053   2.365   3.200  16.124  0.1321  0.9353  0.3866
10880TIP3   OH254054   4.665   5.611  11.776 -0.3601 -0.6775  0.3878
10880TIP3    H154055   4.617   5.533  11.748 -0.3700 -0.3332 -0.5954
10880TIP3    H254056   4.603   5.660  11.830 -1.0411 -0.3744 -0.6421
10881TIP3   OH254057   6.101   1.620   3.991  0.2737 -0.6794 -0.3402
10881TIP3    H154058   6.018   1.632   4.037 -0.2412 -2.5193 -0.7124
10881TIP3    H254059   6.105   1.526   3.972  1.4341 -0.3040 -2.2319
10882TIP3   OH254060   0.234   5.543  15.593 -0.5143  0.2283  0.0982
10882TIP3    H154061   0.161   5.605  15.599  0.0465  0.8702  0.3463
10882TIP3    H254062   0.280   5.553  15.676 -0.7140 -0.9052  0.3570
10883TIP3   OH254063   4.090   5.882   5.422  0.0976 -0.6950  0.7269
10883TIP3    H154064   3.998   5.908   5.420  0.5623  1.0571 -1.2134
10883TIP3    H254065   4.102   5.829   5.344  1.0364  0.3148  0.1636
10884TIP3   OH254066   3.692   3.105   4.319 -0.0613  0.0077 -0.0044
10884TIP3    H154067   3.666   3.197   4.318 -1.7450 -0.4317  0.3032
10884TIP3    H254068   3.712   3.085   4.228  1.9841  1.0715  0.1434
10885TIP3   OH254069   6.017   4.293  15.646 -0.1139  1.1310 -0.2090
10885TIP3    H154070   5.996   4.263  15.558  0.7458 -0.6600  0.1487
10885TIP3    H254071   5.950   4.255  15.701  0.7222  0.1774  0.1903
10886TIP3   OH254072   6.415   6.564   5.087  0.0391 -0.4888 -0.2930
10886TIP3    H154073   6.448   6.627   5.151  1.5827 -0.8818 -0.6653
10886TIP3    H254074   6.326   6.593   5.068 -0.5749 -0.5107  2.2193
10887TIP3   OH254075   3.723   2.494  15.954 -0.4117  0.2945  1.0846
10887TIP3    H154076   3.657   2.428  15.934  0.9484 -1.1006  0.9891
10887TIP3    H254077   3.697   2.529  16.039 -2.7530  1.7619 -0.1309
10888TIP3   OH254078   2.157   0.733  16.473 -0.0573  0.2243  0.2028
10888TIP3    H154079   2.174   0.652  16.521  1.6345  0.8682  0.7586
10888TIP3    H254080   2.171   0.709  16.381 -1.2456 -0.4974  0.1804
10889TIP3   OH254081   0.766   2.177  14.924 -0.7722  0.3957 -0.0933
10889TIP3    H154082   0.771   2.248  14.860 -1.3229  0.9814  0.4959
10889TIP3    H254083   0.779   2.220  15.009 -1.4396 -0.1460  0.2953
10890TIP3   OH254084   2.911   0.253  13.121  0.2522 -0.2305  0.1110
10890TIP3    H154085   2.934   0.346  13.131 -2.7208  0.6375 -0.0805
10890TIP3    H254086   2.841   0.253  13.056 -1.6530 -2.2540  1.9709
10891TIP3   OH254087   3.475   1.861  14.249  0.0719 -0.3065  0.5086
10891TIP3    H154088   3.394   1.910  14.234  0.4497  0.7075  1.6009
10891TIP3    H254089   3.452   1.770  14.229 -0.9215  0.1570 -0.6282
10892TIP3   OH254090   4.615   2.148  10.478  0.3295  0.0082  0.6690
10892TIP3    H154091   4.600   2.060  10.512  2.4314 -1.2726 -1.3592
10892TIP3    H254092   4.530   2.177  10.445 -0.6974 -0.6334  2.6293
10893TIP3   OH254093   3.062   4.505   6.432  0.5290 -0.3646  0.6483
10893TIP3    H154094   3.133   4.512   6.368  0.6940 -1.0605  0.7546
10893TIP3    H254095   2.983   4.530   6.383  0.6213 -1.1247  0.1074
10894TIP3   OH254096   0.437   3.767   2.937 -0.0860 -0.1700 -0.3054
10894TIP3    H154097   0.377   3.697   2.912  0.1278 -0.6767  0.5767
10894TIP3    H254098   0.428   3.774   3.032  2.3651 -1.3256  0.0859
10895TIP3   OH254099   2.224   2.401  13.588  0.4298  0.1727  0.5847
10895TIP3    H154100   2.290   2.447  13.641  0.8776 -1.6903  1.7095
10895TIP3    H254101   2.140   2.428  13.626  0.6704  0.3856  0.9770
10896TIP3   OH254102   2.817   3.474   2.874  0.5833  0.2431  0.1187
10896TIP3    H154103   2.887   3.409   2.868 -0.5180 -1.0414  0.5997
10896TIP3    H254104   2.805   3.506   2.785  0.6069 -0.8214 -0.2784
10897TIP3   OH254105   2.878   1.700  13.841  0.4659  0.1205  0.2679
10897TIP3    H154106   2.855   1.787  13.808  1.7307  1.0001  1.6109
10897TIP3    H254107   2.836   1.695  13.927  1.5967 -0.0153  0.8207
10898TIP3   OH254108   5.557   5.997  14.744 -0.1677  0.8087 -0.1966
10898TIP3    H154109   5.567   6.092  14.753 -0.5532  0.8614 -0.3131
10898TIP3    H254110   5.618   5.974  14.674  1.0627  0.7372  0.8646
10899TIP3   OH254111   2.036   1.343  17.030 -0.2918 -0.3730  0.6942
10899TIP3    H154112   1.973   1.409  17.058  0.2672 -0.1735  1.5207
10899TIP3    H254113   1.993   1.259  17.050 -1.6216 -0.3481 -1.6986
10900TIP3   OH254114   4.737   3.239  16.200 -0.1388  0.0581 -0.9029
10900TIP3    H154115   4.728   3.247  16.105 -3.6103 -0.3638 -0.7498
10900TIP3    H254116   4.803   3.304  16.223  1.5352 -0.5048 -3.6465
10901TIP3   OH254117   5.277   6.366  12.486 -0.4964 -0.1941  0.0802
10901TIP3    H154118   5.311   6.352  12.397 -1.3895 -0.8649 -0.1698
10901TIP3    H254119   5.224   6.445  12.480 -0.5805 -0.2563  0.0132
10902TIP3   OH254120   5.870   3.456  13.391  0.1067  0.0017  0.1818
10902TIP3    H154121   5.906   3.496  13.470 -0.4540 -0.0692  0.4770
10902TIP3    H254122   5.857   3.530  13.331  0.3215  0.0866  0.2385
10903TIP3   OH254123   0.106   4.767  16.589 -0.5169  0.0475 -0.2019
10903TIP3    H154124   0.183   4.768  16.646 -0.5256 -0.1604 -0.1877
10903TIP3    H254125   0.142   4.752  16.501 -0.5885 -0.6213 -0.1238
10904TIP3   OH254126   0.364   2.575  16.075  0.2972 -0.3937  0.2932
10904TIP3    H154127   0.377   2.541  16.164 -1.0622 -1.1906  0.2118
10904TIP3    H254128   0.328   2.662  16.087 -2.1905 -1.3906  0.5998
10905TIP3   OH254129   0.194   3.192   0.326  0.7268  0.5551 -0.2661
10905TIP3    H154130   0.217   3.278   0.292 -1.6411  1.5065  0.3330
10905TIP3    H254131   0.152   3.147   0.253  0.5857  0.4977 -0.1506
10906TIP3   OH254132   1.887   2.017  12.488  0.3684  0.4155 -0.2012
10906TIP3    H154133   1.950   1.995  12.420  0.8374  2.0609 -0.3411
10906TIP3    H254134   1.831   1.940  12.495  1.1430 -0.2918 -1.5006
10907TIP3   OH254135   5.152   3.198  12.823 -0.1565  0.5350  0.4292
10907TIP3    H154136   5.168   3.244  12.741 -2.1122  2.6834  1.1331
10907TIP3    H254137   5.061   3.219  12.845 -0.6517 -2.4470  1.6615
10908TIP3   OH254138   2.301   0.941   4.963  0.4521 -0.0250  0.0044
10908TIP3    H154139   2.287   0.880   4.891 -0.2058 -1.8799  1.6167
10908TIP3    H254140   2.256   1.021   4.936  0.8076 -0.4253 -1.8972
10909TIP3   OH254141   2.976   2.076  12.619  0.1279 -0.2767 -1.0227
10909TIP3    H154142   2.887   2.068  12.652  0.2475  0.1825 -0.5777
10909TIP3    H254143   3.010   1.987  12.618  0.2462 -0.2670  0.4490
10910TIP3   OH254144   5.020   0.118  11.372  0.6256  0.5429 -0.3547
10910TIP3    H154145   4.992   0.027  11.381 -0.1669  0.7853 -0.2850
10910TIP3    H254146   5.039   0.128  11.279 -1.9825  1.0225 -0.9204
10911TIP3   OH254147   1.459   3.796  10.907  0.3751 -0.0666  0.3810
10911TIP3    H154148   1.480   3.883  10.872  1.1988  0.2301  1.5308
10911TIP3    H254149   1.505   3.735  10.849 -1.0750  0.1591 -1.0785
10912TIP3   OH254150   0.606   2.594  14.805 -0.2334 -0.0593 -0.1054
10912TIP3    H154151   0.700   2.585  14.792 -0.2668 -0.3565 -0.1466
10912TIP3    H254152   0.567   2.564  14.723 -0.3960 -0.7539  0.2209
10913TIP3   OH254153   1.126   2.185  10.498 -0.0336  0.6254 -0.0944
10913TIP3    H154154   1.127   2.160  10.591  2.7556 -2.6529 -0.7715
10913TIP3    H254155   1.037   2.163  10.469 -0.7688  1.1210  1.6217
10914TIP3   OH254156   3.661   1.132   3.563  0.0738 -0.4681 -0.0957
10914TIP3    H154157   3.679   1.047   3.602 -0.7407  0.0180  1.4028
10914TIP3    H254158   3.719   1.193   3.609 -1.7077  0.2975  1.2754
10915TIP3   OH254159   0.950   4.939   5.119  0.1472 -0.0565 -0.2657
10915TIP3    H154160   0.919   4.858   5.159  2.1693  0.3190  2.3158
10915TIP3    H254161   1.035   4.917   5.082 -0.7997  0.1193 -2.7152
10916TIP3   OH254162   6.405   4.580   3.202  0.0088 -0.5769 -0.2282
10916TIP3    H154163   6.363   4.539   3.278  1.0917  1.1131  1.3689
10916TIP3    H254164   6.377   4.672   3.207  0.9040 -0.2340 -1.3027
10917TIP3   OH254165   1.981   4.413  15.076  0.9052  0.1082 -0.0730
10917TIP3    H154166   2.060   4.400  15.129  1.1965  0.2998 -0.4461
10917TIP3    H254167   1.954   4.324  15.052  2.1696  0.0790 -1.5855
10918TIP3   OH254168   6.463   2.109   0.937 -0.3212 -0.6538 -0.0207
10918TIP3    H154169   6.504   2.189   0.970 -0.3608  0.5397 -2.6776
10918TIP3    H254170   6.536   2.054   0.909 -0.3810 -0.0347 -1.4443
10919TIP3   OH254171   6.110   5.922   2.309  0.7703 -0.2829 -0.5772
10919TIP3    H154172   6.204   5.915   2.291  0.6723 -0.8901 -0.8824
10919TIP3    H254173   6.096   5.865   2.385  0.7128  0.1083 -0.2931
10920TIP3   OH254174   6.484   3.864  17.056 -0.6870 -0.1557  0.4636
10920TIP3    H154175   6.400   3.858  17.102 -0.1866 -1.9960  1.2097
10920TIP3    H254176   6.548   3.877  17.126 -0.3458  1.6433 -0.1357
10921TIP3   OH254177   1.738   1.247   4.725 -0.5253  0.3029 -0.0139
10921TIP3    H154178   1.772   1.165   4.689 -1.3224  0.0512 -0.2167
10921TIP3    H254179   1.787   1.260   4.807 -0.9904 -0.8256  0.4572
10922TIP3   OH254180   5.698   1.995   5.175 -0.4298  0.0833 -0.5261
10922TIP3    H154181   5.636   1.927   5.201 -0.0857  0.1027  0.3827
10922TIP3    H254182   5.711   1.980   5.081  0.3429 -1.6913 -0.1770
10923TIP3   OH254183   4.235   1.245  14.586 -0.5987 -0.5646  0.0851
10923TIP3    H154184   4.295   1.251  14.512 -0.9909  0.6764 -0.1418
10923TIP3    H254185   4.150   1.225  14.547 -0.6144 -0.8934  0.2852
10924TIP3   OH254186   2.769   3.114  12.019  0.2498  0.1414 -0.1130
10924TIP3    H154187   2.690   3.085  12.065 -0.5714  1.0834 -0.8568
10924TIP3    H254188   2.735   3.160  11.942  1.4887  1.6366  0.1809
10925TIP3   OH254189   4.576   1.559  14.331 -0.1912  0.3307  0.0712
10925TIP3    H154190   4.536   1.632  14.283 -1.2507  0.7873  1.5636
10925TIP3    H254191   4.558   1.579  14.423 -0.8730 -2.0234  0.5166
10926TIP3   OH254192   2.337   4.148  16.564 -0.2465  0.6353 -0.5910
10926TIP3    H154193   2.293   4.224  16.528  2.1367  2.2672 -0.2939
10926TIP3    H254194   2.376   4.105  16.487 -1.4616 -0.2302 -0.7418
10927TIP3   OH254195   2.397   5.095  11.640 -0.4901 -0.1552 -0.6418
10927TIP3    H154196   2.394   5.015  11.587 -0.2942 -0.4670 -0.1862
10927TIP3    H254197   2.349   5.073  11.720 -1.1303  0.4418 -0.8548
10928TIP3   OH254198   6.195   3.848  17.091  0.0531  0.4318 -0.8069
10928TIP3    H154199   6.125   3.895  17.138  0.8231  0.0343  0.8003
10928TIP3    H254200   6.193   3.759  17.128  0.1632 -0.1600 -2.1395
10929TIP3   OH254201   1.157   6.651   3.505 -0.6772 -0.3901  0.1419
10929TIP3    H154202   1.252   6.647   3.498 -0.7016  0.8846 -1.4216
10929TIP3    H254203   1.137   6.600   3.583  1.3627  0.0769  1.0438
10930TIP3   OH254204   4.459   4.393   4.821 -0.1194  0.7011  0.6158
10930TIP3    H154205   4.483   4.324   4.883  0.2432  2.1318  2.1233
10930TIP3    H254206   4.541   4.416   4.778 -0.0392  0.9279  0.8878
10931TIP3   OH254207   5.982   5.529   5.506  0.1192 -1.1756  0.0626
10931TIP3    H154208   6.074   5.538   5.480 -0.4062  0.3217 -1.4917
10931TIP3    H254209   5.980   5.451   5.561  2.0437 -2.2890 -1.3175
10932TIP3   OH254210   3.397   4.763  12.138 -0.2959  0.6315 -0.0348
10932TIP3    H154211   3.394   4.838  12.079  0.4508 -1.0494 -2.3518
10932TIP3    H254212   3.321   4.710  12.114  0.5990 -0.5975 -0.2898
10933TIP3   OH254213   4.071   2.435   4.519 -0.1677 -0.4277 -0.7241
10933TIP3    H154214   3.992   2.476   4.553  1.1224  1.7454 -0.1741
10933TIP3    H254215   4.116   2.504   4.471  0.6001 -2.0647 -2.5087
10934TIP3   OH254216   3.758   1.173   5.198 -0.4611 -0.1017 -0.2645
10934TIP3    H154217   3.712   1.136   5.274  0.3444 -3.5211 -1.2632
10934TIP3    H254218   3.832   1.220   5.236 -2.6009  2.3552  1.1930
10935TIP3   OH254219   3.787   6.403  14.045 -0.1377  0.4510  0.5979
10935TIP3    H154220   3.768   6.409  13.951 -0.7390 -0.1413  0.6722
10935TIP3    H254221   3.777   6.493  14.077 -0.2586  0.5990  0.1549
10936TIP3   OH254222   6.128   0.945   6.175 -0.0710  0.4213 -0.4718
10936TIP3    H154223   6.211   0.906   6.200 -0.3023 -0.9322 -1.6806
10936TIP3    H254224   6.150   1.004   6.103 -0.5104 -3.0454 -3.7830
10937TIP3   OH254225   1.282   0.269  15.398 -0.0689 -0.1672  0.4902
10937TIP3    H154226   1.357   0.270  15.458 -0.7805  0.9244  1.3829
10937TIP3    H254227   1.253   0.178  15.399  1.5722 -0.7534 -0.3284
10938TIP3   OH254228   0.734   1.492  11.909 -0.1693 -0.8495  0.2588
10938TIP3    H154229   0.686   1.442  11.842  0.0457 -1.0200  0.2320
10938TIP3    H254230   0.715   1.584  11.888 -1.1424 -0.9271  0.7263
10939TIP3   OH254231   5.310   2.688   0.851  0.4083  0.2986  0.4257
10939TIP3    H154232   5.309   2.610   0.907  2.0726  1.0063  1.5216
10939TIP3    H254233   5.374   2.668   0.782  0.4394  0.4837  0.3993
10940TIP3   OH254234   5.107   4.012  14.362  0.9418  0.2018  0.1950
10940TIP3    H154235   5.142   3.937  14.314 -1.4153 -1.2813  0.5937
10940TIP3    H254236   5.072   4.069  14.294  0.1539 -0.5181 -0.0324
10941TIP3   OH254237   5.512   2.194   1.471  0.4776 -0.2100 -0.3654
10941TIP3    H154238   5.578   2.262   1.489 -0.3654  0.7290 -0.7264
10941TIP3    H254239   5.441   2.213   1.532  0.2178 -0.7709 -0.4862
10942TIP3   OH254240   4.760   1.951   2.196 -0.4686  0.2941  0.4664
10942TIP3    H154241   4.782   1.859   2.177  0.3470  0.3284  1.2113
10942TIP3    H254242   4.800   1.968   2.281 -0.2799  1.4621  0.1520
10943TIP3   OH254243   0.688   2.711   2.712 -0.2399 -0.2415 -0.9085
10943TIP3    H154244   0.753   2.780   2.697 -0.1714  0.2309  1.1459
10943TIP3    H254245   0.604   2.757   2.715 -0.1772 -0.1574  0.6353
10944TIP3   OH254246   6.592   0.245  13.973 -0.5552 -0.3229  0.1957
10944TIP3    H154247   6.569   0.163  14.016 -1.4908  0.5182  1.4065
10944TIP3    H254248   6.532   0.309  14.012  1.0956  1.2025  0.3555
10945TIP3   OH254249   0.578   2.481   4.391  0.1378  0.1594  0.6443
10945TIP3    H154250   0.540   2.394   4.401 -0.0979  0.3806  1.7685
10945TIP3    H254251   0.532   2.520   4.317 -0.1606 -0.4569  0.5082
10946TIP3   OH254252   4.984   6.421  15.397 -0.0286 -0.4508 -0.1974
10946TIP3    H154253   4.975   6.442  15.304 -1.6092 -1.3484 -0.2786
10946TIP3    H254254   5.060   6.472  15.426  0.3268  0.0488 -1.9073
10947TIP3   OH254255   4.260   4.757  14.401 -0.4161  0.3213 -0.4319
10947TIP3    H154256   4.214   4.769  14.318  0.4600  0.5822 -0.8969
10947TIP3    H254257   4.348   4.728  14.375 -0.2323  0.0852  0.4199
10948TIP3   OH254258   2.843   4.079  13.406 -0.5084  0.1976  0.5201
10948TIP3    H154259   2.831   4.169  13.377 -1.2492  0.3512  1.2613
10948TIP3    H254260   2.800   4.075  13.492 -1.0585 -1.0107  0.2175
10949TIP3   OH254261   6.403   1.471  16.128 -0.3418 -0.3011  0.1455
10949TIP3    H154262   6.412   1.386  16.086  0.1656  0.3415 -1.1237
10949TIP3    H254263   6.474   1.524  16.090 -0.4243  0.5798  1.1676
10950TIP3   OH254264   1.711   6.276  13.876 -0.0953  0.4697  0.2090
10950TIP3    H154265   1.635   6.237  13.833 -0.8087  2.2679 -0.2794
10950TIP3    H254266   1.750   6.205  13.926 -1.5240 -0.7379 -0.3154
10951TIP3   OH254267   3.463   5.957   3.406  0.0883  0.3744 -0.5580
10951TIP3    H154268   3.420   5.987   3.486 -1.2514  2.1884 -1.8663
10951TIP3    H254269   3.552   5.989   3.414  0.8750 -1.9615  1.4269
10952TIP3   OH254270   1.258   4.366   4.983 -0.3248  0.7549  0.1532
10952TIP3    H154271   1.194   4.295   4.992  2.2629 -2.0401 -1.7781
10952TIP3    H254272   1.317   4.355   5.057  0.4683  0.4460 -0.5151
10953TIP3   OH254273   3.799   5.527   3.506  0.3455  0.1123  0.0517
10953TIP3    H154274   3.749   5.505   3.585  0.0652  1.0907  0.1508
10953TIP3    H254275   3.742   5.584   3.455  0.7834  0.0280 -0.5498
10954TIP3   OH254276   2.441   5.813   3.413 -0.0092 -0.4212 -0.0935
10954TIP3    H154277   2.360   5.782   3.453 -0.1479 -0.3203 -0.2938
10954TIP3    H254278   2.413   5.856   3.332  0.1846  0.1386  0.1287
10955TIP3   OH254279   4.083   6.144   3.683 -0.2543  0.2120  0.1470
10955TIP3    H154280   4.076   6.049   3.674 -0.9042  0.1155  1.4543
10955TIP3    H254281   4.172   6.164   3.656 -0.1437 -0.7550 -0.2419
10956TIP3   OH254282   0.989   2.272  13.879  0.3386  0.1499  0.4709
10956TIP3    H154283   0.910   2.219  13.869  0.6689 -0.6313  1.7703
10956TIP3    H254284   1.061   2.209  13.875  0.9033  0.8147 -0.3744
10957TIP3   OH254285   5.457   0.799  17.184 -0.0421  0.1420  0.1657
10957TIP3    H154286   5.375   0.834  17.219  0.6291  2.1941 -0.2141
10957TIP3    H254287   5.443   0.792  17.090  0.4555  1.2707 -0.0087
10958TIP3   OH254288   1.667   2.222  15.574  0.0877 -0.3183  0.1330
10958TIP3    H154289   1.623   2.138  15.587  1.1365 -1.0331 -0.7462
10958TIP3    H254290   1.699   2.247  15.661 -1.6361  0.0230  0.7202
10959TIP3   OH254291   0.248   3.171   3.999  0.7994  0.7587 -0.0274
10959TIP3    H154292   0.299   3.251   4.007 -1.1228  2.3576 -2.4916
10959TIP3    H254293   0.237   3.158   3.905 -2.9176  0.3473  0.3048
10960TIP3   OH254294   2.335   6.525   4.884  0.2504 -0.2851 -0.6283
10960TIP3    H154295   2.349   6.560   4.796  0.2933  0.4759 -0.3262
10960TIP3    H254296   2.422   6.526   4.924  0.1419 -0.1080 -0.3938
10961TIP3   OH254297   3.179   1.146  13.772  0.2682 -0.1631  0.1725
10961TIP3    H154298   3.245   1.079  13.791  2.1010  1.9289  1.7048
10961TIP3    H254299   3.097   1.108  13.805  1.1582 -1.8209  0.5856
10962TIP3   OH254300   2.335   3.516  14.659 -0.3812  0.0671 -0.7083
10962TIP3    H154301   2.404   3.558  14.608 -0.5873 -0.5227 -1.4954
10962TIP3    H254302   2.361   3.424  14.663 -1.9193 -0.5145 -2.4470
10963TIP3   OH254303   1.452   2.500   3.063  0.4753  0.6817 -0.4966
10963TIP3    H154304   1.443   2.422   3.008  0.7990  0.9589 -0.9415
10963TIP3    H254305   1.468   2.571   3.002  2.7174  0.7095  0.0402
10964TIP3   OH254306   0.079   3.113  11.961  0.3326 -0.0885 -0.0202
10964TIP3    H154307   0.035   3.063  12.029  0.3690 -0.1681 -0.0545
10964TIP3    H254308   0.142   3.167  12.008 -2.1109  2.5861  0.3867
10965TIP3   OH254309   6.501   4.596  16.420 -0.0338 -0.1868 -0.8269
10965TIP3    H154310   6.583   4.577  16.374  0.8536 -1.2004  1.0410
10965TIP3    H254311   6.456   4.511  16.424 -0.3633  0.0075 -0.3220
10966TIP3   OH254312   5.034   5.809  13.335 -0.7174  0.7164  0.0491
10966TIP3    H154313   5.106   5.746  13.328  0.9889  2.5070  0.5579
10966TIP3    H254314   4.989   5.804  13.251  0.8693  0.5163 -0.8174
10967TIP3   OH254315   3.512   0.024   3.274  0.0053 -0.7372  0.4850
10967TIP3    H154316   3.490  -0.069   3.273 -0.1610 -0.6958  0.0167
10967TIP3    H254317   3.437   0.067   3.233  0.7041 -0.5447 -0.6313
10968TIP3   OH254318   0.918   6.543  15.478 -0.4040 -0.4973 -0.3199
10968TIP3    H154319   0.920   6.448  15.484 -3.1811 -0.6127 -0.0671
10968TIP3    H254320   0.919   6.561  15.384 -1.2523 -0.8560 -0.4033
10969TIP3   OH254321   2.430   1.835  12.817 -0.4532  0.2154  0.6871
10969TIP3    H154322   2.380   1.886  12.753  0.4526  1.6535  1.0712
10969TIP3    H254323   2.466   1.762  12.767 -2.1481 -0.3501  0.2095
10970TIP3   OH254324   0.267   4.273   0.855 -0.4759  0.0974 -0.5457
10970TIP3    H154325   0.331   4.262   0.926 -1.2060  0.0203  0.1128
10970TIP3    H254326   0.219   4.352   0.878 -0.8441 -0.0315 -0.8547
10971TIP3   OH254327   3.162   3.199  15.004 -0.2808 -0.0990 -0.5368
10971TIP3    H154328   3.224   3.137  14.966  0.6937  0.9905 -0.7806
10971TIP3    H254329   3.080   3.150  15.011  0.1818 -1.0772 -1.7042
10972TIP3   OH254330   2.609   4.814  11.167  0.1334 -0.2126 -0.1408
10972TIP3    H154331   2.569   4.813  11.080  1.2730  2.0290 -0.7692
10972TIP3    H254332   2.546   4.860  11.222  0.1964 -0.0234 -0.2253
10973TIP3   OH254333   1.387   6.502   0.827  0.1102  0.5020 -0.2237
10973TIP3    H154334   1.324   6.541   0.887  0.0374 -1.1677  0.8747
10973TIP3    H254335   1.351   6.416   0.807  1.1113  0.2632 -1.0907
10974TIP3   OH254336   5.369   3.585   1.672  0.2931  0.8756 -0.4126
10974TIP3    H154337   5.330   3.501   1.651 -0.2334  0.1819  2.8270
10974TIP3    H254338   5.460   3.565   1.694 -0.0026  0.9698  1.0286
10975TIP3   OH254339   4.619   2.288   3.687 -0.1095  0.0391  0.1454
10975TIP3    H154340   4.677   2.234   3.741  1.0600  1.2665  0.1714
10975TIP3    H254341   4.568   2.225   3.635  2.8789 -1.1072 -1.6335
10976TIP3   OH254342   5.433   3.930  10.639  0.1046 -0.5908  0.1675
10976TIP3    H154343   5.487   3.997  10.682  1.9878 -1.1503 -1.1571
10976TIP3    H254344   5.463   3.847  10.676 -1.2434 -0.8188  0.7987
10977TIP3   OH254345   4.655   2.621  14.996 -0.3042 -0.5382  0.1312
10977TIP3    H154346   4.657   2.608  14.902  2.8469  0.2251 -0.0481
10977TIP3    H254347   4.687   2.711  15.009  1.2707 -1.2690  1.9159
10978TIP3   OH254348   3.648   1.335  12.650  0.1834 -0.2499  0.4770
10978TIP3    H154349   3.589   1.261  12.637 -0.9895  0.5335  1.2250
10978TIP3    H254350   3.702   1.310  12.726  1.2253 -1.1869 -0.5237
10979TIP3   OH254351   5.753   0.933   4.421  0.0090 -0.6240  0.2259
10979TIP3    H154352   5.832   0.987   4.416  0.8972 -1.8131  0.9495
10979TIP3    H254353   5.760   0.873   4.346 -0.9484  0.2034 -0.5480
10980TIP3   OH254354   4.526   1.634   0.294 -0.2794  0.1893 -0.1955
10980TIP3    H154355   4.568   1.720   0.289 -0.2366  0.1322 -0.7880
10980TIP3    H254356   4.597   1.571   0.283 -0.4396  0.0883 -0.6649
10981TIP3   OH254357   3.820   6.349   0.347  0.2077  0.2807 -0.2957
10981TIP3    H154358   3.763   6.408   0.396  0.6163  0.4714 -0.0507
10981TIP3    H254359   3.768   6.325   0.270 -0.1825  0.4988 -0.1031
10982TIP3   OH254360   0.674   5.940  16.699 -0.1581 -0.4042  0.0102
10982TIP3    H154361   0.752   5.886  16.689 -0.8344 -1.1977 -1.3903
10982TIP3    H254362   0.660   5.947  16.793  1.9610  0.3359  0.3192
10983TIP3   OH254363   0.010   5.907  11.342  0.5853 -0.2079  0.1240
10983TIP3    H154364  -0.066   5.928  11.289  0.3838 -0.8134  0.1677
10983TIP3    H254365  -0.023   5.902  11.432  0.3957 -1.8006 -0.0081
10984TIP3   OH254366   5.645   3.031  14.957 -0.5071 -0.5498  0.6180
10984TIP3    H154367   5.691   2.959  14.914 -0.3272 -0.2794  0.3559
10984TIP3    H254368   5.589   2.988  15.022 -0.3940 -0.9248  0.4708
10985TIP3   OH254369   4.577   3.451  14.460  0.4356  0.0773 -0.0136
10985TIP3    H154370   4.636   3.385  14.497  1.0854  0.3864 -0.4783
10985TIP3    H254371   4.634   3.505  14.406 -0.0649  1.1126  0.4755
10986TIP3   OH254372   3.441   1.535   5.515  0.1293  0.0353 -0.1705
10986TIP3    H154373   3.469   1.618   5.476 -2.4048  2.3494  2.5066
10986TIP3    H254374   3.366   1.508   5.461 -0.0248  0.3286 -0.1032
10987TIP3   OH254375   3.955   6.544   4.373 -0.1013  0.7335 -0.5945
10987TIP3    H154376   4.030   6.598   4.398 -0.9189  0.8180  1.9987
10987TIP3    H254377   3.940   6.488   4.449 -1.2680 -0.9139 -1.9648
10988TIP3   OH254378   2.431   5.540   4.671  0.1329  0.3477  0.0439
10988TIP3    H154379   2.487   5.482   4.721  0.4378  1.0048  0.4743
10988TIP3    H254380   2.469   5.627   4.683 -0.7206  0.7395 -0.0182
10989TIP3   OH254381   2.542   4.299  17.010  0.0976 -0.0795 -0.2247
10989TIP3    H154382   2.543   4.230  16.944 -0.2819 -0.1677 -0.1378
10989TIP3    H254383   2.625   4.288  17.056 -0.1506 -0.7682  0.0807
10990TIP3   OH254384   6.557   3.012  11.839  0.0287 -0.0457 -0.0561
10990TIP3    H154385   6.564   3.065  11.918  0.4587 -0.0783 -0.0694
10990TIP3    H254386   6.478   3.043  11.796 -0.2221 -0.0481  0.4027
10991TIP3   OH254387   4.722   2.285  16.945  0.5226  0.0786 -0.0252
10991TIP3    H154388   4.686   2.241  16.867 -3.3561  0.4245  1.3217
10991TIP3    H254389   4.710   2.378  16.927  4.3262  0.5347 -0.9295
10992TIP3   OH254390   4.161   1.989  15.043  0.6560  0.9055  0.5267
10992TIP3    H154391   4.256   1.976  15.046  0.4485 -1.1317 -0.0790
10992TIP3    H254392   4.138   2.025  15.128  2.1312  2.8100  0.1743
10993TIP3   OH254393   2.053   0.457  15.838  0.0126 -0.1588  0.4941
10993TIP3    H154394   2.065   0.368  15.805 -0.5995 -0.2780  0.5719
10993TIP3    H254395   2.006   0.502  15.767 -0.9315 -0.2961  1.0066
10994TIP3   OH254396   1.581   5.162   1.922 -0.1727  0.2793 -0.5291
10994TIP3    H154397   1.583   5.133   1.831  0.0159  0.5363 -0.6081
10994TIP3    H254398   1.520   5.236   1.922 -1.0987 -0.4695 -0.2217
10995TIP3   OH254399   2.255   2.920   2.095  0.2203  0.0749 -0.1585
10995TIP3    H154400   2.165   2.953   2.097  0.5189  1.3109 -2.5357
10995TIP3    H254401   2.308   2.997   2.072  1.9564 -0.5666  1.4346
10996TIP3   OH254402   1.349   3.160  12.845  0.2787 -0.0094  0.2303
10996TIP3    H154403   1.359   3.078  12.893  0.9825  0.4721  0.9344
10996TIP3    H254404   1.255   3.174  12.841  0.0695 -1.4471 -0.9567
10997TIP3   OH254405   6.297   6.115   4.595  0.1271  0.5512  0.8218
10997TIP3    H154406   6.364   6.089   4.532  1.0450  0.6300  1.7529
10997TIP3    H254407   6.218   6.069   4.566  0.1277  1.7213 -1.2673
10998TIP3   OH254408   4.668   6.525   1.358  0.3432  0.1204  0.7057
10998TIP3    H154409   4.749   6.569   1.384 -0.5501  2.0530  0.3625
10998TIP3    H254410   4.640   6.478   1.437  0.8146  0.9766  1.4026
10999TIP3   OH254411   6.779   6.390  15.727  0.2043 -0.2702  0.7553
10999TIP3    H154412   6.719   6.379  15.801  1.7556 -2.3222  1.8511
10999TIP3    H254413   6.859   6.424  15.768  1.5988 -2.8538  0.3882
11000TIP3   OH254414   1.552   1.671  15.871 -0.1690 -0.0115 -0.4376
11000TIP3    H154415   1.619   1.608  15.842  0.7443  0.8149 -0.1612
11000TIP3    H254416   1.494   1.619  15.927 -0.6067 -1.0792 -1.8092
11001TIP3   OH254417   3.618   0.154   3.041  0.6708 -0.9221 -0.8496
11001TIP3    H154418   3.554   0.176   2.974 -0.3589  0.7718  0.5877
11001TIP3    H254419   3.587   0.072   3.079  0.8154 -1.4618 -1.8817
11002TIP3   OH254420   3.218   0.586   5.722 -0.1027 -0.1415  0.7139
11002TIP3    H154421   3.265   0.617   5.799  1.7995  0.8397 -0.7588
11002TIP3    H254422   3.136   0.635   5.723 -0.1795 -0.2658  2.1823
11003TIP3   OH254423   3.891   0.128   4.059 -0.2836  0.6022 -0.0525
11003TIP3    H154424   3.917   0.043   4.025  1.3010  0.9746  0.1664
11003TIP3    H254425   3.818   0.155   4.002 -2.9107 -2.1733  1.7216
11004TIP3   OH254426   0.425   5.167  12.223  0.2095 -0.1262 -0.0698
11004TIP3    H154427   0.344   5.154  12.173  0.2904  1.6036 -0.7083
11004TIP3    H254428   0.445   5.080  12.259 -1.6582 -0.6860 -0.2934
11005TIP3   OH254429   4.893   6.724   4.584 -0.2410 -0.3307 -0.2435
11005TIP3    H154430   4.860   6.712   4.673  0.9628  0.6440  0.3647
11005TIP3    H254431   4.987   6.707   4.591 -0.5896 -3.8041 -2.0829
11006TIP3   OH254432   1.448   3.563   0.946  0.1923  0.4319 -0.6992
11006TIP3    H154433   1.512   3.496   0.972  0.0800  0.4607 -0.3369
11006TIP3    H254434   1.497   3.645   0.951  0.4845  0.3311 -1.6755
11007TIP3   OH254435   1.680   5.184   5.754  0.4230  0.7510  0.0767
11007TIP3    H154436   1.617   5.191   5.825  0.6960 -0.6036  0.4718
11007TIP3    H254437   1.714   5.095   5.760  2.3983  1.4494 -0.1013
11008TIP3   OH254438   3.013   1.159   0.479 -0.1053  0.0987  0.0987
11008TIP3    H154439   3.101   1.132   0.453  0.2924 -0.5211  1.9756
11008TIP3    H254440   3.002   1.245   0.439  1.4221  0.2605 -0.0269
11009TIP3   OH254441   4.245   5.006   1.839 -0.3159 -0.5875 -0.4594
11009TIP3    H154442   4.336   4.977   1.832 -0.8195 -2.0601 -1.5280
11009TIP3    H254443   4.198   4.954   1.773 -1.9233  0.1792  0.0191
11010TIP3   OH254444   5.654   0.103   1.825 -0.2492 -0.2991 -0.2100
11010TIP3    H154445   5.581   0.119   1.765  0.6488 -1.2682 -1.6094
11010TIP3    H254446   5.621   0.131   1.910 -2.2651 -0.7328 -0.7973
11011TIP3   OH254447   1.826   6.521  12.453 -0.0646 -0.1617 -0.5879
11011TIP3    H154448   1.918   6.543  12.470 -0.4468  0.5365  0.6582
11011TIP3    H254449   1.794   6.593  12.399  0.5287 -1.2378 -2.4911
11012TIP3   OH254450   3.932   2.869  11.579  0.1184  0.0266  0.4807
11012TIP3    H154451   4.025   2.870  11.554  0.4195 -0.7262  1.5335
11012TIP3    H254452   3.896   2.948  11.538  0.4194 -1.4106 -2.8353
11013TIP3   OH254453   2.106   0.796   3.620 -0.1165 -0.2217 -0.3523
11013TIP3    H154454   2.165   0.721   3.620  1.4031  0.9323 -0.2042
11013TIP3    H254455   2.112   0.831   3.709 -0.7655  0.1249 -0.4349
11014TIP3   OH254456   4.464   0.170   0.824 -0.0546  0.2975 -0.2562
11014TIP3    H154457   4.378   0.203   0.850  0.7823  2.8991 -0.4805
11014TIP3    H254458   4.489   0.110   0.894 -0.1876  2.9474  2.2487
11015TIP3   OH254459   6.710   6.209  14.525 -0.1730  0.2249  0.0100
11015TIP3    H154460   6.797   6.173  14.542 -0.2380 -0.0579 -0.2307
11015TIP3    H254461   6.679   6.239  14.610  0.4387  0.9722 -0.0256
11016TIP3   OH254462   4.736   5.312   1.849  0.2435 -0.7660  0.3640
11016TIP3    H154463   4.793   5.353   1.784  1.4593 -0.8982  1.3098
11016TIP3    H254464   4.659   5.369   1.854  0.2869 -0.5770 -0.9204
11017TIP3   OH254465   2.603   0.919  13.758  0.1131  0.5055  0.1778
11017TIP3    H154466   2.546   0.846  13.737  0.4449  0.1174  0.6070
11017TIP3    H254467   2.649   0.892  13.837  0.8551  0.8240 -0.1286
11018TIP3   OH254468   6.352   5.218   6.299  0.0188 -0.2533 -0.0591
11018TIP3    H154469   6.396   5.300   6.321  1.5690 -1.6713  2.6029
11018TIP3    H254470   6.346   5.171   6.383 -3.2790 -1.7579 -0.9683
11019TIP3   OH254471   2.868   2.652   0.942  0.0751 -0.0085  0.1576
11019TIP3    H154472   2.937   2.718   0.948  0.8015 -0.5970 -1.2048
11019TIP3    H254473   2.899   2.591   0.875 -0.6701 -1.6079  1.1789
11020TIP3   OH254474   0.945   2.754   3.836 -0.2457 -0.0903  0.3927
11020TIP3    H154475   0.948   2.785   3.746 -0.9974  0.4001  0.5205
11020TIP3    H254476   0.966   2.832   3.888 -0.3632 -0.2329  0.6546
11021TIP3   OH254477   4.203   0.215   1.812  0.0489  0.7906  0.4627
11021TIP3    H154478   4.121   0.183   1.850  0.4099  1.8174  2.1806
11021TIP3    H254479   4.194   0.310   1.811  0.3497  0.8369 -1.4410
11022TIP3   OH254480   1.767   1.680   4.080 -0.4161  0.8787 -0.1962
11022TIP3    H154481   1.688   1.683   4.027 -0.2790  1.5571 -0.3697
11022TIP3    H254482   1.741   1.717   4.164  0.2402  3.2267 -0.9650
11023TIP3   OH254483   4.694   3.999   3.363  0.3388  0.1240  0.4614
11023TIP3    H154484   4.730   4.087   3.366  2.3511 -0.6417  0.3732
11023TIP3    H254485   4.600   4.011   3.376  0.8067  2.0968  2.6971
11024TIP3   OH254486   4.111   0.226  16.540  0.3053  0.1340  0.1784
11024TIP3    H154487   4.174   0.179  16.486 -0.5497 -1.3153  0.3875
11024TIP3    H254488   4.161   0.299  16.576  1.6186 -0.4403 -0.3933
11025TIP3   OH254489   5.778   0.508  13.907 -0.6626  0.2338 -0.4311
11025TIP3    H154490   5.763   0.415  13.923 -0.6580  0.0655 -1.3636
11025TIP3    H254491   5.872   0.515  13.893 -0.8604  0.0813 -2.0756
11026TIP3   OH254492   4.503   1.750  15.868  0.3094  0.5685  0.0609
11026TIP3    H154493   4.412   1.748  15.837  0.3193  0.8200  0.0153
11026TIP3    H254494   4.531   1.658  15.864 -0.6961  0.0759  2.3444
11027TIP3   OH254495   5.890   0.369  11.346  0.3286  0.1203 -0.2673
11027TIP3    H154496   5.937   0.448  11.321  1.0311 -0.4311 -0.7348
11027TIP3    H254497   5.950   0.323  11.405  0.5968 -0.8187 -1.2427
11028TIP3   OH254498   3.214   2.607  12.518  0.5324  0.6869  0.8453
11028TIP3    H154499   3.289   2.644  12.566  0.9327  1.5506 -0.3937
11028TIP3    H254500   3.207   2.518  12.551  2.3692  0.4479  0.7151
11029TIP3   OH254501   4.612   2.321  16.087  0.2041  0.1874  0.3875
11029TIP3    H154502   4.522   2.331  16.056  0.0852 -0.3606  0.5546
11029TIP3    H254503   4.666   2.350  16.014 -0.1216  2.8895  1.1064
11030TIP3   OH254504   6.124   5.553   6.045  0.2132  0.3474  0.0068
11030TIP3    H154505   6.166   5.534   5.962  0.3369 -0.5131  0.2615
11030TIP3    H254506   6.191   5.601   6.095  0.3298  0.3814 -0.1811
11031TIP3   OH254507   5.559   0.490   6.129  0.2407 -0.3063  0.2627
11031TIP3    H154508   5.573   0.584   6.117 -1.0743 -0.1127  0.1280
11031TIP3    H254509   5.475   0.483   6.174  0.8387 -1.3869  1.2672
11032TIP3   OH254510   2.818   3.305  14.920  0.3014  0.3722  0.0978
11032TIP3    H154511   2.850   3.391  14.895  0.8668  0.4246  0.9561
11032TIP3    H254512   2.845   3.247  14.850  0.7412  0.7316 -0.0325
11033TIP3   OH254513   1.089   1.255   2.093 -0.4634  0.4703  0.6544
11033TIP3    H154514   1.183   1.254   2.109  0.2367  0.2692 -2.6979
11033TIP3    H254515   1.065   1.162   2.087 -1.1000  0.4973  2.3131
11034TIP3   OH254516   0.938   6.555  14.672 -0.0870  0.0977  0.2160
11034TIP3    H154517   0.980   6.535  14.588 -3.0740 -0.4603 -1.2827
11034TIP3    H254518   0.980   6.495  14.734  2.0989  0.4090 -0.8633
11035TIP3   OH254519   2.673   6.140  16.421 -0.3880 -0.3194 -0.0266
11035TIP3    H154520   2.632   6.070  16.470  1.5828 -1.5964 -0.0819
11035TIP3    H254521   2.660   6.117  16.329  0.0936 -0.5206 -0.0475
11036TIP3   OH254522   1.891   6.559   2.360 -0.0964  0.3213  0.2459
11036TIP3    H154523   1.875   6.505   2.437  0.0568 -0.9617 -0.5955
11036TIP3    H254524   1.979   6.535   2.332  0.5655  2.0992  0.6835
11037TIP3   OH254525   2.175   5.864  10.402  1.0666  0.5736  0.3366
11037TIP3    H154526   2.122   5.786  10.389 -0.0701  1.4478 -0.3848
11037TIP3    H254527   2.223   5.847  10.484  0.1201 -0.4731  0.6925
11038TIP3   OH254528   0.162   6.111   1.526 -0.1085  0.2343 -0.0968
11038TIP3    H154529   0.146   6.186   1.469  1.6114 -0.4195 -1.5371
11038TIP3    H254530   0.168   6.148   1.613 -0.5470  1.5898 -0.6153
11039TIP3   OH254531   1.113   4.420  14.463 -0.0377  0.1589  0.1851
11039TIP3    H154532   1.049   4.490  14.455 -0.5825 -0.4729 -1.5077
11039TIP3    H254533   1.147   4.428  14.552 -2.3098  0.6397  1.0737
11040TIP3   OH254534   5.121   3.754   5.227 -1.0183  0.0600  0.2995
11040TIP3    H154535   5.083   3.786   5.145  0.8820  1.9932  0.0947
11040TIP3    H254536   5.163   3.831   5.266  1.0153 -1.5188  1.4144
11041TIP3   OH254537   4.157   1.351   5.730  0.3663 -0.4882  0.4591
11041TIP3    H154538   4.211   1.402   5.790 -0.5103  0.5565  0.3974
11041TIP3    H254539   4.068   1.359   5.765  0.3607 -3.2881  1.3397
11042TIP3   OH254540   3.259   0.955  11.873  0.4851 -0.0021  0.2158
11042TIP3    H154541   3.322   0.887  11.899  0.1850 -0.2342  0.3397
11042TIP3    H254542   3.231   0.994  11.956  1.1926  0.7601  0.1055
11043TIP3   OH254543   0.014   1.336   2.751  0.2807 -0.0350 -0.6577
11043TIP3    H154544   0.042   1.427   2.754  0.0192  0.0303 -0.0193
11043TIP3    H254545  -0.024   1.320   2.837 -1.3558 -0.2116 -1.3723
11044TIP3   OH254546   4.905   1.652  14.160  0.1915  0.0581 -0.2983
11044TIP3    H154547   4.831   1.606  14.121 -0.4352  1.0370 -0.2846
11044TIP3    H254548   4.898   1.742  14.128  0.9018  0.3640  0.3600
11045TIP3   OH254549   1.749   1.336  15.822  0.4263 -0.3855  0.4669
11045TIP3    H154550   1.706   1.279  15.886  2.1958  0.0629  2.1428
11045TIP3    H254551   1.689   1.337  15.747 -0.7833 -2.5162  1.3161
11046TIP3   OH254552   3.080   6.674  14.421 -0.2305  0.1149 -0.1838
11046TIP3    H154553   3.073   6.730  14.499  1.2196  1.8551 -1.2418
11046TIP3    H254554   3.157   6.620  14.438  0.5295  1.0127 -0.6874
11047TIP3   OH254555   3.766   1.917  14.670  0.9863 -1.2192  0.5350
11047TIP3    H154556   3.819   1.909  14.749  3.3866  0.0517 -0.8492
11047TIP3    H254557   3.808   1.986  14.619 -1.8921 -0.2825 -0.8160
11048TIP3   OH254558   4.553   1.524   5.299  0.4787 -0.4909  0.4575
11048TIP3    H154559   4.637   1.555   5.333  0.3396  1.8885 -1.1103
11048TIP3    H254560   4.539   1.575   5.219 -1.4761 -2.3367 -0.4934
11049TIP3   OH254561   1.440   2.931   0.631  0.0510 -0.1629 -0.6702
11049TIP3    H154562   1.393   2.958   0.552 -3.4821 -0.1516  1.2398
11049TIP3    H254563   1.437   2.835   0.629 -2.7146 -0.2131  0.7080
11050TIP3   OH254564   3.199   5.736  13.700 -0.6337  0.6940  0.2854
11050TIP3    H154565   3.106   5.721  13.716 -1.0036  1.0511 -1.3927
11050TIP3    H254566   3.221   5.677  13.628  0.6162  0.1462  1.0809
11051TIP3   OH254567   3.878   4.187  15.340 -0.2354 -0.0321 -0.0965
11051TIP3    H154568   3.948   4.131  15.372  0.2079  0.9038  0.6076
11051TIP3    H254569   3.888   4.186  15.245  2.1768  1.8679  0.0586
11052TIP3   OH254570   6.581   3.551  12.257 -0.3515  0.4118 -0.3289
11052TIP3    H154571   6.670   3.515  12.266 -0.5943 -0.2456 -0.5198
11052TIP3    H254572   6.591   3.644  12.279  0.0796  0.0167  1.2540
11053TIP3   OH254573   3.211   1.433   5.390 -0.1824 -0.3744 -0.5282
11053TIP3    H154574   3.148   1.397   5.453  0.0320  0.6081  0.2659
11053TIP3    H254575   3.160   1.495   5.338 -0.2227 -0.7505 -0.9448
11054TIP3   OH254576   0.306   1.863  13.996  0.3348 -0.4166 -0.3289
11054TIP3    H154577   0.357   1.864  13.915 -0.3494  0.5056 -0.7711
11054TIP3    H254578   0.216   1.854  13.968  0.1680 -1.1888  0.4027
11055TIP3   OH254579   5.488   4.610  13.656  0.1521 -0.2625 -0.5089
11055TIP3    H154580   5.525   4.528  13.691  0.7503  0.2114 -0.0155
11055TIP3    H254581   5.496   4.601  13.561 -0.4147 -1.0663 -0.4990
11056TIP3   OH254582   0.532   5.647  11.810  0.5401  0.2553  0.2373
11056TIP3    H154583   0.449   5.691  11.790 -0.6195 -2.1731 -0.8560
11056TIP3    H254584   0.518   5.607  11.896  0.0064 -1.2374 -0.5016
11057TIP3   OH254585   2.413   1.494   3.412  0.5545 -0.3226  0.2876
11057TIP3    H154586   2.490   1.438   3.411  2.2253  1.7272 -2.2416
11057TIP3    H254587   2.383   1.494   3.321 -0.0871  1.8327  0.4340
11058TIP3   OH254588   2.595   2.052   4.063 -0.0104 -0.1449 -0.5778
11058TIP3    H154589   2.672   1.996   4.074 -0.0273 -0.2830 -1.1290
11058TIP3    H254590   2.559   2.027   3.978  0.5814  1.3957 -1.3360
11059TIP3   OH254591   1.788   1.545  13.337 -0.6660  0.1651 -0.2077
11059TIP3    H154592   1.814   1.463  13.379 -0.5414  0.7287  0.8533
11059TIP3    H254593   1.730   1.587  13.401 -2.5202 -0.0885 -1.6324
11060TIP3   OH254594   1.249   5.618   2.486  0.0899 -0.2880 -0.1311
11060TIP3    H154595   1.305   5.541   2.486 -0.2039 -0.5066  0.2330
11060TIP3    H254596   1.170   5.590   2.440  0.7810  0.4064 -1.8049
11061TIP3   OH254597   4.022   3.781   4.334 -0.0915  0.5853 -0.4410
11061TIP3    H154598   4.030   3.848   4.402  0.6415  1.1410 -1.0560
11061TIP3    H254599   4.049   3.700   4.378 -1.8578  0.4880  0.5646
11062TIP3   OH254600   1.896   3.749  15.939  0.0640  0.2885  0.1358
11062TIP3    H154601   1.876   3.800  15.861 -1.5441 -0.2675  0.1333
11062TIP3    H254602   1.837   3.784  16.006  2.7313  2.0694  1.7257
11063TIP3   OH254603   5.794   5.018   1.353  0.4388  0.6580  0.2962
11063TIP3    H154604   5.827   5.107   1.342  3.4846 -0.1627  1.5915
11063TIP3    H254605   5.782   5.008   1.447  0.6688 -0.4535  0.2238
11064TIP3   OH254606   5.927   1.184   1.601 -0.0892  0.5859  0.5539
11064TIP3    H154607   5.874   1.182   1.680 -0.8315 -0.5041  0.0467
11064TIP3    H254608   5.968   1.097   1.597 -0.9586  0.2133 -0.8471
11065TIP3   OH254609   5.513   5.998  15.087 -0.6903  0.1124 -0.0147
11065TIP3    H154610   5.518   5.976  14.994 -1.8863 -0.9852  0.1544
11065TIP3    H254611   5.551   6.086  15.093 -1.1092  0.4276 -1.6161
11066TIP3   OH254612   5.466   2.458   5.243  0.0195 -0.7333  0.3770
11066TIP3    H154613   5.438   2.477   5.333 -0.2497 -0.2143  0.1881
11066TIP3    H254614   5.495   2.367   5.246  1.6772 -0.2209  1.4039
11067TIP3   OH254615   1.037   3.004  13.877 -0.5881 -0.7309  0.0095
11067TIP3    H154616   1.124   3.038  13.859 -0.6260 -1.1595 -1.0606
11067TIP3    H254617   1.034   2.994  13.972 -0.0822  0.8864  0.2267
11068TIP3   OH254618   1.415   0.031   2.428 -0.1401  0.4215 -0.4959
11068TIP3    H154619   1.352  -0.023   2.381 -0.2579 -0.0570  0.2009
11068TIP3    H254620   1.404   0.119   2.392 -3.6162  1.1462  1.8832
11069TIP3   OH254621   5.408   4.250   5.320  0.2281  0.3744  0.1316
11069TIP3    H154622   5.353   4.289   5.387 -1.3469 -2.9307  0.9980
11069TIP3    H254623   5.353   4.248   5.241  1.2104  2.0752 -0.6438
11070TIP3   OH254624   4.559   4.208   0.069  0.8384 -0.4155  0.1116
11070TIP3    H154625   4.653   4.219   0.051  0.6705  0.2034 -0.4140
11070TIP3    H254626   4.542   4.116   0.052  1.4922 -0.6934  0.8797
11071TIP3   OH254627   3.340   2.347  12.629  0.0399 -0.0025  0.8462
11071TIP3    H154628   3.425   2.375  12.596  0.2358 -1.2640  0.2081
11071TIP3    H254629   3.357   2.260  12.667 -1.2784 -1.0957 -0.9217
11072TIP3   OH254630   2.293   4.465  16.204  0.2975  0.1719  0.4001
11072TIP3    H154631   2.208   4.438  16.169  0.6419  0.6861 -0.9086
11072TIP3    H254632   2.356   4.416  16.151  0.8328 -0.1934  1.3510
11073TIP3   OH254633   1.698   1.341   3.395  0.0731  0.1219  0.0661
11073TIP3    H154634   1.753   1.419   3.396  0.1520  0.0969  1.9826
11073TIP3    H254635   1.746   1.278   3.341  1.5405  0.3865  0.9978
11074TIP3   OH254636   0.718   2.248   5.386 -0.3489  0.2330  0.5336
11074TIP3    H154637   0.711   2.208   5.299 -1.3791  1.0587  0.2065
11074TIP3    H254638   0.787   2.313   5.377  0.4126 -0.5313  0.6998
11075TIP3   OH254639   1.901   1.497  14.083  0.1566  0.7169  0.0042
11075TIP3    H154640   1.972   1.459  14.135 -0.4756  0.6064  0.8125
11075TIP3    H254641   1.821   1.470  14.129 -0.3818  1.3174 -0.5651
11076TIP3   OH254642   5.374   2.034  11.268 -0.3935  0.2388  0.6640
11076TIP3    H154643   5.308   1.984  11.221 -1.1411  1.9212 -0.1814
11076TIP3    H254644   5.456   1.989  11.249 -1.0367 -0.7262  0.0491
11077TIP3   OH254645   4.767   3.934   0.911 -0.2051 -0.5818 -0.0500
11077TIP3    H154646   4.777   3.956   0.818 -0.3617  0.1955  0.1095
11077TIP3    H254647   4.837   3.870   0.929  0.2592 -0.2163 -0.5343
11078TIP3   OH254648   3.220   2.068   2.840  0.1997 -0.2512  0.2687
11078TIP3    H154649   3.293   2.013   2.869 -1.0551 -1.1102  1.9950
11078TIP3    H254650   3.142   2.017   2.861 -0.9390  1.2028 -0.2722
11079TIP3   OH254651   3.966   5.392   6.606 -0.2240  0.4355  0.0738
11079TIP3    H154652   3.983   5.358   6.519 -1.5910 -3.3598  1.1125
11079TIP3    H254653   4.048   5.376   6.654 -0.1193  0.7354 -0.0021
11080TIP3   OH254654   6.692   1.442   0.011  0.3312  0.3037  0.0016
11080TIP3    H154655   6.635   1.367  -0.005  0.1545  0.1012  1.4403
11080TIP3    H254656   6.678   1.500  -0.064 -0.8434 -0.2925 -0.2577
11081TIP3   OH254657   0.639   3.412   0.550 -0.4865  0.4318  1.0373
11081TIP3    H154658   0.707   3.397   0.615  0.2738 -0.2555  0.1074
11081TIP3    H254659   0.662   3.356   0.476 -0.7464  1.9196 -0.2459
11082TIP3   OH254660   2.961   3.019  15.136  0.3084  0.0505  0.2269
11082TIP3    H154661   2.882   3.062  15.170  0.1518  0.1490 -0.2390
11082TIP3    H254662   2.938   2.927  15.131  0.3463  0.0303  0.4263
11083TIP3   OH254663   1.647   0.708   2.744 -0.1629  0.1109  0.0582
11083TIP3    H154664   1.733   0.716   2.702 -0.0633  1.6995  0.5188
11083TIP3    H254665   1.666   0.667   2.829  0.6840  3.4226  1.6129
11084TIP3   OH254666   5.026   6.140  14.777 -0.4971 -0.2060  0.0454
11084TIP3    H154667   4.949   6.186  14.743 -0.5668 -0.6549 -0.4193
11084TIP3    H254668   4.991   6.074  14.836 -0.5640 -1.1958 -1.0677
11085TIP3   OH254669   5.121   4.917   1.907 -0.7596 -0.0159  0.5130
11085TIP3    H154670   5.174   4.975   1.961 -1.1607  0.5550  0.2951
11085TIP3    H254671   5.046   4.894   1.963 -1.1631  0.5576  0.2186
11086TIP3   OH254672   0.514   2.264   1.114 -0.4785  0.6910  1.2017
11086TIP3    H154673   0.466   2.301   1.188 -0.4037  0.5549  1.3201
11086TIP3    H254674   0.600   2.306   1.118 -0.9555  1.7917  0.3101
11087TIP3   OH254675   4.806   0.320  11.705  0.0367 -0.5262 -0.1067
11087TIP3    H154676   4.882   0.337  11.649  0.9772  0.0354  1.2790
11087TIP3    H254677   4.799   0.224  11.707  0.9565 -0.6001  0.0619
11088TIP3   OH254678   4.344   4.396   2.494  0.6222 -0.1067  0.1227
11088TIP3    H154679   4.265   4.433   2.454  0.9505  1.0944  0.5589
11088TIP3    H254680   4.376   4.335   2.428  0.0452  0.3534 -0.6112
11089TIP3   OH254681   4.384   4.408   4.208  0.0440 -0.5235 -0.5516
11089TIP3    H154682   4.402   4.319   4.239  1.2437 -0.9474 -2.2869
11089TIP3    H254683   4.386   4.462   4.286  0.1807 -1.8948  0.4312
11090TIP3   OH254684   0.873   2.779  16.706 -0.0211 -0.1858  0.2632
11090TIP3    H154685   0.888   2.702  16.652 -0.5971 -0.4518  0.4710
11090TIP3    H254686   0.918   2.850  16.660  0.4824 -0.6382  0.0549
11091TIP3   OH254687   1.888   3.335  11.044 -0.8073 -0.1756  0.3057
11091TIP3    H154688   1.803   3.359  11.007 -1.9877 -1.7445  1.7796
11091TIP3    H254689   1.869   3.257  11.097  1.4435 -0.1885  1.1966
11092TIP3   OH254690   3.499   1.762   1.597  0.6219 -0.4473 -0.0954
11092TIP3    H154691   3.437   1.824   1.634 -0.8743 -1.7995 -0.2745
11092TIP3    H254692   3.553   1.734   1.671  1.3755  1.0719 -0.0242
11093TIP3   OH254693   6.083   4.834  13.143  0.2558 -0.3341 -0.4086
11093TIP3    H154694   6.085   4.834  13.048 -1.9473 -1.4326 -0.5148
11093TIP3    H254695   6.164   4.790  13.169  0.7378 -0.2794 -1.7579
11094TIP3   OH254696   6.087   0.749  11.836 -0.1926  0.3860 -0.7247
11094TIP3    H154697   6.055   0.727  11.924  2.5822 -3.2323 -0.4035
11094TIP3    H254698   6.043   0.687  11.778  1.8201 -0.8107 -1.0487
11095TIP3   OH254699   6.143   3.438  13.847 -0.5246  0.0674 -0.3631
11095TIP3    H154700   6.165   3.503  13.913  0.2450 -0.7114  0.1769
11095TIP3    H254701   6.069   3.389  13.884  1.1846 -1.6955  0.8947
11096TIP3   OH254702   0.631   6.263   3.249 -0.6256  0.1024 -0.2317
11096TIP3    H154703   0.625   6.313   3.331 -0.7073  0.6648 -0.5808
11096TIP3    H254704   0.665   6.178   3.276  1.1394  0.8898  0.1451
11097TIP3   OH254705   5.620   5.671   5.217 -0.0927  0.0008 -0.2584
11097TIP3    H154706   5.662   5.659   5.303 -2.0324 -0.0305  0.7330
11097TIP3    H254707   5.618   5.584   5.179 -0.8730 -0.3333  0.5013
11098TIP3   OH254708   2.984   2.449  11.038  0.2091  0.2494 -0.0441
11098TIP3    H154709   2.982   2.481  10.948  2.0532  0.8017  0.0826
11098TIP3    H254710   3.017   2.360  11.031  4.4422  1.6009  0.3140
11099TIP3   OH254711   4.835   6.112   5.539  0.0693  0.1346  0.2873
11099TIP3    H154712   4.922   6.087   5.508  0.2953 -2.7411  2.7655
11099TIP3    H254713   4.777   6.045   5.503 -0.3361 -0.6411  2.2412
11100TIP3   OH254714   1.234   2.135   1.937  0.2198  0.0858 -0.1031
11100TIP3    H154715   1.172   2.140   1.865 -2.0391  0.1540  1.7469
11100TIP3    H254716   1.272   2.223   1.943 -1.2839  0.7443  0.1874
11101TIP3   OH254717   3.102   4.379   1.992  0.3854  0.3396 -0.2723
11101TIP3    H154718   3.192   4.347   1.982  0.2578  0.6127 -2.7345
11101TIP3    H254719   3.113   4.466   2.032  1.1366  0.0415  0.2082
11102TIP3   OH254720   4.416   3.385  16.008 -0.7482  0.3401 -0.3185
11102TIP3    H154721   4.321   3.379  16.006 -0.8168  0.9830  0.8312
11102TIP3    H254722   4.445   3.298  16.037 -1.0036  0.3397 -0.0683
11103TIP3   OH254723   4.676   4.992  12.705  0.1966  0.1240  0.2810
11103TIP3    H154724   4.595   4.953  12.738 -1.2975  0.9695 -2.1415
11103TIP3    H254725   4.670   5.084  12.732  0.8402 -0.0137  0.9149
11104TIP3   OH254726   0.899   1.761   4.281 -0.4965 -0.0353 -0.8400
11104TIP3    H154727   0.820   1.715   4.309  0.0878 -1.3621 -1.2835
11104TIP3    H254728   0.940   1.791   4.363 -1.5982  0.9553 -0.6242
11105TIP3   OH254729   3.292   1.406  12.543  0.1847 -0.1012 -0.2648
11105TIP3    H154730   3.346   1.479  12.573 -0.2010  0.7001 -1.4518
11105TIP3    H254731   3.291   1.346  12.617  0.6525  1.0093  0.6887
11106TIP3   OH254732   4.472   0.862  13.778 -0.2175  0.3318  0.2289
11106TIP3    H154733   4.386   0.820  13.769  0.2187 -0.3996 -0.7221
11106TIP3    H254734   4.487   0.902  13.692  1.4822 -1.7080 -0.5195
11107TIP3   OH254735   5.798   2.214  16.661  0.0431 -0.4625 -0.3418
11107TIP3    H154736   5.883   2.255  16.644 -0.2388  0.8339  1.0497
11107TIP3    H254737   5.806   2.180  16.750 -1.6550  2.0419  0.9103
11108TIP3   OH254738   3.234   4.767  16.027  0.3366 -0.2213  0.1294
11108TIP3    H154739   3.214   4.769  16.121  0.0197 -0.0939  0.0621
11108TIP3    H254740   3.217   4.856  15.998  0.8525 -0.1534  0.0317
11109TIP3   OH254741   0.879   2.319  16.027 -0.5513  0.0846 -0.3961
11109TIP3    H154742   0.895   2.412  16.042 -1.7916  0.4599 -1.2206
11109TIP3    H254743   0.788   2.306  16.054 -0.3075 -0.9449 -0.0464
11110TIP3   OH254744   5.969   4.558   2.224 -0.7687  0.5356 -0.5802
11110TIP3    H154745   5.969   4.529   2.316 -0.7338 -2.9996 -1.5237
11110TIP3    H254746   5.957   4.652   2.228 -1.5345  0.4247  3.0289
11111TIP3   OH254747   6.724   4.310  17.020  0.7743  0.1306  0.2791
11111TIP3    H154748   6.689   4.260  17.093  0.2275 -0.5094 -0.4149
11111TIP3    H254749   6.756   4.391  17.060 -0.4510  0.2376  1.0760
11112TIP3   OH254750   3.092   1.569   5.605 -0.2925 -0.2300  0.2538
11112TIP3    H154751   3.157   1.630   5.570  1.0005  0.3796  3.3534
11112TIP3    H254752   3.019   1.625   5.632 -0.4321 -0.4169  0.2618
11113TIP3   OH254753   1.703   6.286   4.951  0.4179 -0.3163 -0.1487
11113TIP3    H154754   1.783   6.321   4.912 -0.6016  0.4678 -1.5927
11113TIP3    H254755   1.682   6.346   5.023  1.4059 -0.8527  0.6229
11114TIP3   OH254756   1.361   4.150   4.325  0.1012 -0.2630 -0.4254
11114TIP3    H154757   1.358   4.245   4.317  0.9457 -0.3204 -1.7441
11114TIP3    H254758   1.310   4.118   4.250  1.5224 -0.8405 -1.1875
11115TIP3   OH254759   5.328   5.723  12.302 -0.0417 -0.0727  0.7743
11115TIP3    H154760   5.252   5.677  12.266 -0.6484  1.7400 -0.4688
11115TIP3    H254761   5.292   5.779  12.371 -0.0203  1.3192 -0.2899
11116TIP3   OH254762   4.128   3.003  14.917 -0.2632  0.0169  0.5721
11116TIP3    H154763   4.050   3.058  14.924  0.1466  0.5581  1.0106
11116TIP3    H254764   4.152   2.984  15.008 -1.0327 -1.8250  0.4343
11117TIP3   OH254765   5.526   0.439  13.021 -0.1625 -0.0735 -0.0276
11117TIP3    H154766   5.616   0.451  13.049  0.0113  1.2905 -1.0553
11117TIP3    H254767   5.485   0.524  13.033 -1.2191 -0.5698  0.0595
11118TIP3   OH254768   1.587   4.564   4.614 -0.1860  0.5333  0.5801
11118TIP3    H154769   1.540   4.575   4.697 -0.4949  0.9090  0.3621
11118TIP3    H254770   1.666   4.616   4.624 -0.4085  0.8923  0.5010
11119TIP3   OH254771   3.713   0.193   2.419 -0.0940 -0.1286 -0.1562
11119TIP3    H154772   3.683   0.149   2.340 -0.6007  0.0358 -0.0613
11119TIP3    H254773   3.804   0.214   2.401  0.9291 -3.3034  0.7115
11120TIP3   OH254774   3.099   6.091  12.915  0.1712 -0.1150  0.0356
11120TIP3    H154775   3.040   6.167  12.915  0.0320 -0.2202  0.6229
11120TIP3    H254776   3.153   6.103  12.993  1.3181  0.2699 -0.7953
11121TIP3   OH254777   2.232   3.358   3.096  0.2295  0.2956  0.4389
11121TIP3    H154778   2.184   3.275   3.101 -0.0711  0.4933  0.8594
11121TIP3    H254779   2.304   3.340   3.035  0.4663 -0.4282  0.9121
11122TIP3   OH254780   6.753   2.797  13.961  0.0163 -0.0351 -0.5610
11122TIP3    H154781   6.685   2.841  14.012 -0.0403  0.4788 -1.0700
11122TIP3    H254782   6.719   2.709  13.946  0.3177 -0.4102  0.8312
11123TIP3   OH254783   3.818   5.939   5.456 -0.6510 -0.1155  0.1338
11123TIP3    H154784   3.777   5.866   5.504 -3.1653  1.5554  0.7334
11123TIP3    H254785   3.766   6.015   5.480  1.5102  1.8216 -0.9452
11124TIP3   OH254786   2.710   6.245   5.777  0.0565 -0.7844 -0.4915
11124TIP3    H154787   2.629   6.204   5.745 -2.2105  1.5001  1.8752
11124TIP3    H254788   2.722   6.210   5.865  0.3893  0.5361  0.0106
11125TIP3   OH254789   1.781   1.325  12.938 -0.1838 -0.1427  0.3642
11125TIP3    H154790   1.772   1.405  12.990 -1.0339 -0.3078  0.4898
11125TIP3    H254791   1.867   1.290  12.962  0.1399  0.6568  0.4032
11126TIP3   OH254792   0.029   0.695  14.923  0.4194 -0.1321  0.2806
11126TIP3    H154793   0.008   0.788  14.917 -0.9921 -0.4564 -0.2888
11126TIP3    H254794   0.073   0.685  15.008  0.3450  1.0040  0.4648
11127TIP3   OH254795   6.229   3.335  16.608 -0.1885 -0.2208 -0.6589
11127TIP3    H154796   6.276   3.412  16.577 -1.6187  0.8225 -0.3573
11127TIP3    H254797   6.223   3.347  16.702 -0.7364 -0.5060 -0.6528
11128TIP3   OH254798   3.411   1.065   3.701  0.4329  0.2468 -1.0316
11128TIP3    H154799   3.473   1.049   3.629  0.5923 -0.5312 -0.7337
11128TIP3    H254800   3.456   1.128   3.758  1.4792 -1.1800 -0.2080
11129TIP3   OH254801   4.719   2.945  15.565 -0.0205  0.0429 -0.1007
11129TIP3    H154802   4.644   2.928  15.509  0.4863 -0.4534 -0.6522
11129TIP3    H254803   4.787   2.885  15.533 -0.1145 -1.2398  1.9092
11130TIP3   OH254804   0.947   2.664   4.172 -0.5162  0.1969 -0.1582
11130TIP3    H154805   0.958   2.645   4.079  2.1488  0.0944  0.1103
11130TIP3    H254806   1.006   2.738   4.188 -2.6369  1.7467  1.0371
11131TIP3   OH254807   1.546   5.556   0.833 -0.7176 -0.3513 -0.7335
11131TIP3    H154808   1.463   5.590   0.802 -2.0251 -1.8344  0.9564
11131TIP3    H254809   1.584   5.512   0.758 -1.6340  0.0024 -1.4178
11132TIP3   OH254810   4.269   0.664  11.608 -0.2555  0.0913 -0.3984
11132TIP3    H154811   4.302   0.595  11.551  0.8671 -1.0132  1.4865
11132TIP3    H254812   4.175   0.646  11.615 -0.0917 -0.8584 -0.4567
11133TIP3   OH254813   3.436   0.574  16.449  0.1942 -0.0923 -0.9518
11133TIP3    H154814   3.363   0.544  16.395  0.6193 -0.0313 -1.5631
11133TIP3    H254815   3.511   0.576  16.390  0.9090 -1.0618 -0.1106
11134TIP3   OH254816   0.868   2.713  14.486  0.1511  0.1912 -0.3358
11134TIP3    H154817   0.812   2.636  14.474 -3.0580  2.3780 -0.9996
11134TIP3    H254818   0.957   2.681  14.475 -0.8845 -3.6335  0.9055
11135TIP3   OH254819   3.234   6.525   0.899  0.4619  0.0613 -0.1065
11135TIP3    H154820   3.268   6.512   0.988  0.4155 -0.8812 -0.2219
11135TIP3    H254821   3.148   6.483   0.900  1.0547 -1.2363 -0.9987
11136TIP3   OH254822   2.028   2.275   4.535  0.8506 -0.5530  0.5133
11136TIP3    H154823   1.964   2.204   4.531 -0.7908  0.9164 -0.7220
11136TIP3    H254824   2.074   2.271   4.452  0.3592  0.1433  0.1958
11137TIP3   OH254825   4.533   0.923   4.480  0.0139 -0.1108 -0.6564
11137TIP3    H154826   4.536   0.831   4.508  2.6086  0.4463  1.2400
11137TIP3    H254827   4.564   0.972   4.556  1.6350  2.0812 -2.6117
11138TIP3   OH254828   4.162   1.023   0.200 -0.3283 -0.2032  0.8081
11138TIP3    H154829   4.076   0.993   0.171 -0.9685  0.5980  1.8068
11138TIP3    H254830   4.192   0.957   0.262 -0.0671 -0.6534  0.2067
11139TIP3   OH254831   3.167   1.317  14.764  0.1681  0.0859 -0.3279
11139TIP3    H154832   3.195   1.285  14.679  0.0779 -0.2734 -0.2269
11139TIP3    H254833   3.130   1.240  14.807 -0.4446  0.4224 -0.2380
11140TIP3   OH254834   5.885   3.919  14.943  0.2242 -0.1918 -0.4552
11140TIP3    H154835   5.976   3.927  14.913  0.2292 -0.7967 -0.6249
11140TIP3    H254836   5.890   3.926  15.038  0.4426 -0.1466 -0.4699
11141TIP3   OH254837   5.954   1.007   3.257  0.0195  0.4037  0.0706
11141TIP3    H154838   6.041   1.022   3.292  1.5083 -1.4107 -2.4996
11141TIP3    H254839   5.948   1.066   3.182 -0.8816  0.3200  0.0647
11142TIP3   OH254840   3.470   3.843   6.060  0.3721  0.2387  0.0791
11142TIP3    H154841   3.493   3.750   6.066 -1.3744 -0.1996  0.3516
11142TIP3    H254842   3.474   3.874   6.151  0.4051  0.2983  0.0578
11143TIP3   OH254843   0.889   1.700   1.899  0.0151  0.0014 -0.1018
11143TIP3    H154844   0.830   1.758   1.851  0.6284  0.3337 -0.4820
11143TIP3    H254845   0.879   1.615   1.857  0.4848  0.2716 -0.7880
11144TIP3   OH254846   2.384   3.758   3.517 -0.5181  0.2089 -0.5269
11144TIP3    H154847   2.480   3.750   3.518 -0.3725  1.4897  1.4993
11144TIP3    H254848   2.353   3.675   3.551 -0.0540  0.2741  0.0743
11145TIP3   OH254849   4.504   2.123  13.076 -0.8891  0.0484  0.1406
11145TIP3    H154850   4.488   2.178  13.153 -0.8525  3.1914 -1.9226
11145TIP3    H254851   4.416   2.105  13.041 -0.8176  0.8016 -0.4526
11146TIP3   OH254852   0.114   4.719  13.688 -0.3079  0.2158 -0.3844
11146TIP3    H154853   0.138   4.649  13.748 -0.9716  0.0038 -0.3664
11146TIP3    H254854   0.173   4.707  13.613  0.2593  0.2530  0.0441
11147TIP3   OH254855   5.975   3.331   2.446  1.0598 -0.4483 -0.0343
11147TIP3    H154856   5.969   3.308   2.539  3.6615 -0.6224  0.1675
11147TIP3    H254857   5.952   3.424   2.443 -3.5221 -1.3279  0.0047
11148TIP3   OH254858   6.546   0.324   2.674 -0.1188  0.1669  0.1706
11148TIP3    H154859   6.513   0.332   2.585 -0.1237  0.6740  0.2167
11148TIP3    H254860   6.473   0.286   2.723  0.0495 -0.5727 -0.1364
11149TIP3   OH254861   5.024   5.039   1.338  0.0853 -0.3397  0.4223
11149TIP3    H154862   5.037   5.040   1.432  0.3363 -0.9787  0.4006
11149TIP3    H254863   5.039   5.129   1.310  0.9247 -0.3340  0.8730
11150TIP3   OH254864   1.337   0.020   0.137 -0.4198 -0.6220  0.1748
11150TIP3    H154865   1.376   0.108   0.139  1.8645 -1.5627  0.1920
11150TIP3    H254866   1.302   0.011   0.049 -1.8271  0.7434  0.5579
11151TIP3   OH254867   0.536   3.611   0.356 -0.2883 -0.7586 -0.2729
11151TIP3    H154868   0.574   3.547   0.417 -0.5070 -1.7662 -1.1769
11151TIP3    H254869   0.607   3.631   0.296 -0.1469  0.0545  0.1539
11152TIP3   OH254870   0.436   2.403  14.977 -0.8531  0.4608  0.1931
11152TIP3    H154871   0.412   2.494  14.959 -3.2883 -0.1929 -0.3974
11152TIP3    H254872   0.453   2.366  14.890 -1.7898 -0.0746  0.2202
11153TIP3   OH254873   3.736   0.870   3.695 -0.0527  0.6580  0.1088
11153TIP3    H154874   3.797   0.798   3.708  0.1734  0.5397 -1.4958
11153TIP3    H254875   3.750   0.926   3.772 -0.0843 -0.8561  1.2733
11154TIP3   OH254876   0.618   1.603  12.572  0.1309  0.4122 -0.0475
11154TIP3    H154877   0.542   1.565  12.615 -0.4422  0.7449 -0.7545
11154TIP3    H254878   0.653   1.533  12.517  0.0227  0.4255 -0.1317
11155TIP3   OH254879   3.447   2.554  13.326 -0.2011  0.3423  0.7331
11155TIP3    H154880   3.518   2.513  13.276  0.5855  1.3465  0.9765
11155TIP3    H254881   3.394   2.599  13.260 -0.0800  0.3371  0.6318
11156TIP3   OH254882   1.403   0.601  13.082 -0.4082  0.2048 -0.2132
11156TIP3    H154883   1.350   0.558  13.014 -0.0930 -0.1189 -0.2608
11156TIP3    H254884   1.481   0.546  13.088 -1.5788 -1.3920  2.3237
11157TIP3   OH254885   0.687   3.787   0.594  0.0177 -0.7730 -0.3765
11157TIP3    H154886   0.777   3.820   0.603  0.0449 -0.7554 -0.7054
11157TIP3    H254887   0.637   3.835   0.661  0.8961 -3.3184  2.3345
11158TIP3   OH254888   0.889   2.923   6.273  0.3171  0.0191  0.3313
11158TIP3    H154889   0.843   2.923   6.189  0.5377 -0.0092  0.2098
11158TIP3    H254890   0.857   2.845   6.319 -1.4039  1.1354  1.1570
11159TIP3   OH254891   1.490   2.373  14.484 -0.4393  0.3507 -0.9194
11159TIP3    H154892   1.496   2.281  14.457  0.5562  0.4704 -1.1482
11159TIP3    H254893   1.484   2.422  14.402  0.1301  0.5547 -0.8443
11160TIP3   OH254894   4.227   3.193   3.913 -0.3282 -0.0328 -0.0647
11160TIP3    H154895   4.165   3.168   3.844  1.0600  0.4331 -1.5594
11160TIP3    H254896   4.312   3.160   3.882  0.8076  2.5206  0.0224
11161TIP3   OH254897   1.288   2.679  12.148  0.1620 -0.1707  0.3412
11161TIP3    H154898   1.286   2.766  12.189 -1.2420  0.5430 -1.1432
11161TIP3    H254899   1.221   2.683  12.081  0.8337 -2.0656 -0.4974
11162TIP3   OH254900   0.778   0.950   4.008  0.4055  0.3949 -0.0640
11162TIP3    H154901   0.869   0.929   3.986  1.2185  1.6360  1.8408
11162TIP3    H254902   0.781   1.041   4.035 -0.7756 -0.3439  2.9998
11163TIP3   OH254903   4.899   3.273  11.002 -0.3073  0.4592  0.3581
11163TIP3    H154904   4.853   3.354  11.024  0.2662  0.4902  1.4898
11163TIP3    H254905   4.908   3.276  10.907 -0.2680  1.7355  0.3868
11164TIP3   OH254906   2.932   0.724   4.453 -0.1642 -0.3982 -0.5921
11164TIP3    H154907   2.837   0.737   4.457  0.0287  0.8893  1.1971
11164TIP3    H254908   2.962   0.741   4.542  1.8339 -0.0824 -1.2743
11165TIP3   OH254909   6.268   0.935   5.405  1.0263  0.0957  0.2577
11165TIP3    H154910   6.274   0.854   5.355  0.4954 -0.2144  0.6961
11165TIP3    H254911   6.309   0.916   5.489  0.8199  0.2528  0.3966
11166TIP3   OH254912   5.390   1.680  13.655  0.0764 -0.1442 -0.1252
11166TIP3    H154913   5.401   1.693  13.750  0.0362  0.0645 -0.1486
11166TIP3    H254914   5.349   1.761  13.625 -1.2091 -0.7697 -0.0975
11167TIP3   OH254915   3.209   2.745   0.001 -0.0982  0.3960  0.1295
11167TIP3    H154916   3.273   2.703   0.058 -0.3493 -0.4951 -0.2280
11167TIP3    H254917   3.138   2.772   0.060 -0.4101 -0.6224  0.2348
11168TIP3   OH254918   4.473   4.375  13.930  0.4829  0.1073  0.0280
11168TIP3    H154919   4.485   4.445  13.994 -1.0618 -0.0631  0.5549
11168TIP3    H254920   4.456   4.420  13.848 -2.3269  0.4876  0.6985
11169TIP3   OH254921   4.071   6.081   1.146 -0.2933 -0.6381  0.0710
11169TIP3    H154922   4.057   6.013   1.211 -0.5281 -0.6496  0.0082
11169TIP3    H254923   4.016   6.154   1.174 -0.6360 -0.7575 -0.2843
11170TIP3   OH254924   1.634   5.190   5.250 -0.3504  0.1708  0.7914
11170TIP3    H154925   1.675   5.106   5.227 -0.6711 -0.2482  1.6991
11170TIP3    H254926   1.688   5.224   5.321  0.3023  1.1811 -0.1442
11171TIP3   OH254927   2.766   1.494  15.457 -0.3192 -0.5223 -0.4910
11171TIP3    H154928   2.711   1.492  15.378 -0.8643 -0.7954 -0.1119
11171TIP3    H254929   2.846   1.448  15.432 -0.7109 -1.0866 -0.7282
11172TIP3   OH254930   5.955   2.010   5.300 -0.3256  0.0391 -0.2581
11172TIP3    H154931   5.877   1.999   5.245 -1.0209 -0.3561  0.7686
11172TIP3    H254932   5.925   2.064   5.373  0.8034  1.2948 -0.6910
11173TIP3   OH254933   5.523   3.173  16.256 -0.8575 -0.3435 -0.2247
11173TIP3    H154934   5.615   3.145  16.252 -0.2542  1.6725 -2.3483
11173TIP3    H254935   5.509   3.195  16.348  1.1276  0.3277 -0.0357
11174TIP3   OH254936   3.962   0.928   3.290  0.0971  0.0971 -0.3348
11174TIP3    H154937   3.966   1.013   3.333  0.2823  0.0482 -0.2529
11174TIP3    H254938   4.025   0.934   3.219  0.2354 -0.0284 -0.2242
11175TIP3   OH254939   2.916   6.491   5.462  0.0174  0.3992 -0.1529
11175TIP3    H154940   2.855   6.422   5.487  0.1647  0.2913 -0.0860
11175TIP3    H254941   2.892   6.566   5.516  0.0922  0.2839  0.0430
11176TIP3   OH254942   3.468   6.783  16.126 -0.2179  0.0058 -0.4485
11176TIP3    H154943   3.468   6.727  16.048 -0.7833  0.9024 -1.1086
11176TIP3    H254944   3.379   6.819  16.130 -0.5725 -0.9429  1.3006
11177TIP3   OH254945   2.825   5.965   3.143  0.1322  0.3434 -0.4542
11177TIP3    H154946   2.913   5.954   3.107  0.1142  0.5979 -0.5752
11177TIP3    H254947   2.814   6.060   3.151 -0.1679  0.3163 -0.5267
11178TIP3   OH254948   4.302   0.763  12.857 -0.3620 -0.0692 -0.1304
11178TIP3    H154949   4.313   0.731  12.767  1.2953 -0.6536  0.2479
11178TIP3    H254950   4.249   0.696  12.900  0.1736 -0.5854 -0.2639
11179TIP3   OH254951   5.585   5.766   6.227  0.9198  0.3483  0.2084
11179TIP3    H154952   5.648   5.784   6.296 -0.2949 -0.0386  1.4662
11179TIP3    H254953   5.588   5.671   6.215  1.0907  0.4085 -0.2310
11180TIP3   OH254954   4.138   0.324   5.462  0.4130 -0.3670  1.0122
11180TIP3    H154955   4.068   0.272   5.501  0.9891 -0.2552  2.2418
11180TIP3    H254956   4.144   0.402   5.518  0.2024  0.5961 -0.2458
11181TIP3   OH254957   2.867   1.990  16.042  0.6581  0.1836 -0.2469
11181TIP3    H154958   2.844   2.052  15.972 -0.1122  0.2232  0.0312
11181TIP3    H254959   2.874   1.906  15.998 -1.3537 -0.0795 -0.1699
11182TIP3   OH254960   0.945   3.000   3.686 -0.3178 -0.1257 -0.3071
11182TIP3    H154961   0.995   3.072   3.648 -2.4748  2.2219  0.9903
11182TIP3    H254962   0.906   2.955   3.611 -0.0424  0.9421 -1.1112
11183TIP3   OH254963   6.406   0.183   4.938 -0.2585  0.6072 -0.2024
11183TIP3    H154964   6.333   0.134   4.974 -0.2679 -0.4492 -1.5631
11183TIP3    H254965   6.483   0.151   4.985 -0.6598  1.8814  1.3879
11184TIP3   OH254966   2.807   4.706  12.313 -0.8431  0.0823  0.0453
11184TIP3    H154967   2.771   4.676  12.229 -0.2769 -1.0459  0.1880
11184TIP3    H254968   2.806   4.628  12.369 -1.8540  0.9855  1.3250
11185TIP3   OH254969   3.251   6.387  14.419  0.2020 -0.2537 -0.5881
11185TIP3    H154970   3.198   6.308  14.414 -0.7177  0.3672 -0.9546
11185TIP3    H254971   3.254   6.409  14.513 -0.0516 -0.3750 -0.5534
11186TIP3   OH254972   2.542   5.490  13.618 -0.4254 -0.1267  0.5569
11186TIP3    H154973   2.545   5.415  13.558  0.5252 -0.2816  0.7859
11186TIP3    H254974   2.579   5.563  13.568  1.5198 -0.5338  1.3072
11187TIP3   OH254975   2.252   4.824  12.272 -0.1595  0.0393  0.3405
11187TIP3    H154976   2.227   4.735  12.248 -0.0601 -0.0450  0.5469
11187TIP3    H254977   2.199   4.844  12.349  1.1932 -0.5630  1.4834
11188TIP3   OH254978   5.757   1.632  13.489  1.0726  0.4223 -0.9171
11188TIP3    H154979   5.670   1.617  13.452  0.4090 -0.9808  1.0229
11188TIP3    H254980   5.750   1.718  13.529 -0.3496 -0.6405  1.3738
11189TIP3   OH254981   3.537   2.324  12.003 -0.6876  0.2820  0.3685
11189TIP3    H154982   3.466   2.366  12.050 -0.0513  0.3912  1.2649
11189TIP3    H254983   3.569   2.390  11.942 -1.3526  0.2300 -0.0343
11190TIP3   OH254984   4.960   3.181  11.258 -1.0069 -0.0902  0.1279
11190TIP3    H154985   4.902   3.224  11.195 -0.3400 -1.1628 -1.2544
11190TIP3    H254986   5.011   3.252  11.296 -1.5359  0.5934 -0.4134
11191TIP3   OH254987   3.979   3.427  12.500 -0.1570 -0.3346  1.2193
11191TIP3    H154988   4.014   3.513  12.522  1.2472 -0.3041 -0.8478
11191TIP3    H254989   4.056   3.373  12.483 -1.0442 -1.4799  0.6758
11192TIP3   OH254990   5.808   1.689  13.172 -0.7723 -0.0051  0.2544
11192TIP3    H154991   5.758   1.609  13.192 -2.2584  0.7740 -0.1371
11192TIP3    H254992   5.744   1.760  13.184  0.1086  0.9972 -0.7960
11193TIP3   OH254993   1.339   1.397   4.575 -0.1303  0.0944 -0.0390
11193TIP3    H154994   1.341   1.347   4.656  0.8596  0.6164  0.2860
11193TIP3    H254995   1.413   1.364   4.525 -1.1193 -0.6770 -1.0348
11194TIP3   OH254996   1.395   6.154  12.123 -0.1208 -0.0287  0.0412
11194TIP3    H154997   1.442   6.071  12.132  0.8130  0.0653 -2.7437
11194TIP3    H254998   1.307   6.128  12.095 -0.3370 -0.1078  0.7884
11195TIP3   OH254999   6.407   6.362   0.434 -0.4115 -0.1020  0.1659
11195TIP3    H155000   6.335   6.340   0.493 -1.4828 -1.3657 -1.5249
11195TIP3    H255001   6.370   6.353   0.346  0.5782  3.4858 -0.8118
11196TIP3   OH255002   1.484   6.052  13.746 -0.1391 -0.1889 -0.1532
11196TIP3    H155003   1.467   6.004  13.665 -1.2882  1.3173 -0.8617
11196TIP3    H255004   1.425   6.012  13.810 -0.1600 -0.5575 -0.4011
11197TIP3   OH255005   1.704   3.860  13.781 -0.0131  0.3473  0.2132
11197TIP3    H155006   1.639   3.799  13.748 -0.6184  0.6570  0.7953
11197TIP3    H255007   1.695   3.855  13.877 -0.4723  1.7556  0.2644
11198TIP3   OH255008   1.594   1.364  14.738 -0.0820  0.2251 -0.3760
11198TIP3    H155009   1.515   1.375  14.684  0.3313 -1.4818 -1.4356
11198TIP3    H255010   1.562   1.371  14.828 -0.8304  2.9550 -0.7693
11199TIP3   OH255011   2.214   1.271  11.494  0.3212 -0.4294  0.3459
11199TIP3    H155012   2.279   1.274  11.423  1.7489  2.0118  1.6266
11199TIP3    H255013   2.265   1.245  11.571 -0.7297 -0.7618  0.9510
11200TIP3   OH255014   0.172   2.943   3.070 -0.4368  0.7945  0.2122
11200TIP3    H155015   0.092   2.929   3.122 -0.1422  0.6901  0.6382
11200TIP3    H255016   0.142   2.939   2.979 -0.6006 -1.2593  0.3109
11201TIP3   OH255017   1.726   4.651  10.764 -0.1312 -0.6220  0.1861
11201TIP3    H155018   1.730   4.732  10.815  1.2979 -0.1649 -0.6169
11201TIP3    H255019   1.633   4.641  10.742 -0.4077  0.4643  0.8031
11202TIP3   OH255020   3.672   1.085   1.878 -0.1311 -0.2596 -0.0825
11202TIP3    H155021   3.726   1.040   1.943 -1.1164 -0.9427  0.3007
11202TIP3    H255022   3.586   1.091   1.920 -0.3083  1.0074 -0.5765
11203TIP3   OH255023   5.056   1.333  16.804  0.5714 -0.2913 -0.2078
11203TIP3    H155024   5.054   1.405  16.742  1.5560  0.7108  0.8684
11203TIP3    H255025   4.991   1.356  16.870  0.5228 -0.6503 -0.1278
11204TIP3   OH255026   1.894   4.742   5.524 -0.2529  0.4094  0.2568
11204TIP3    H155027   1.942   4.778   5.599  0.8688 -0.8338  0.1760
11204TIP3    H255028   1.811   4.712   5.561  0.3833 -0.4106  1.0984
11205TIP3   OH255029   6.351   5.461  11.613 -0.5348  0.5998 -0.6324
11205TIP3    H155030   6.341   5.549  11.650 -1.2576  0.0533  0.5016
11205TIP3    H255031   6.282   5.410  11.654 -1.1974 -0.1118 -2.5625
11206TIP3   OH255032   6.703   6.337  12.794  1.1055  0.0380  0.5739
11206TIP3    H155033   6.698   6.371  12.705 -0.1566 -2.0077 -0.2041
11206TIP3    H255034   6.708   6.242  12.783 -0.6806 -0.3803  2.6821
11207TIP3   OH255035   2.105   6.132  14.482  0.5383 -0.7574 -0.7666
11207TIP3    H155036   2.124   6.187  14.406 -3.1987  0.6651 -0.8836
11207TIP3    H255037   2.010   6.116  14.477  0.0297 -0.3970  3.6660
11208TIP3   OH255038   3.740   0.403  15.753 -0.1512  0.5528 -0.0786
11208TIP3    H155039   3.748   0.352  15.673 -0.7012 -3.3243  2.1005
11208TIP3    H255040   3.831   0.417  15.781  0.0390 -1.2416  0.3424
11209TIP3   OH255041   5.192   4.835   5.207 -0.3099  0.1805  1.2317
11209TIP3    H155042   5.243   4.780   5.148 -0.7416  1.3318 -0.2801
11209TIP3    H255043   5.121   4.779   5.238  0.7494 -0.8594  1.8212
11210TIP3   OH255044   5.028   0.036  15.027 -0.3186  0.2501 -0.0309
11210TIP3    H155045   5.075   0.048  15.109  0.2529 -0.5051 -0.2426
11210TIP3    H255046   4.977  -0.044  15.039 -0.1235  0.0575 -0.4587
11211TIP3   OH255047   6.610   5.863   2.484 -0.0697 -0.1253  0.3232
11211TIP3    H155048   6.615   5.896   2.574  0.1595 -1.2561  0.7441
11211TIP3    H255049   6.695   5.821   2.470  0.0030  0.3011 -0.5307
11212TIP3   OH255050   0.702   5.442   1.787 -0.8932 -0.9206  0.1718
11212TIP3    H155051   0.663   5.361   1.819 -0.7775 -0.1922  2.3431
11212TIP3    H255052   0.793   5.438   1.817 -1.0263  0.2149  0.7757
11213TIP3   OH255053   3.059   3.477   4.226  0.0541 -0.2744  0.0337
11213TIP3    H155054   3.073   3.522   4.143  2.2895 -2.1015 -0.6807
11213TIP3    H255055   2.968   3.450   4.224 -0.0285  0.0451 -1.6644
11214TIP3   OH255056   0.801   0.074   5.121 -0.0594 -0.3887  0.2982
11214TIP3    H155057   0.719   0.090   5.075  1.3912  1.6263 -1.8054
11214TIP3    H255058   0.832  -0.010   5.087  0.9329  1.0106 -2.5407
11215TIP3   OH255059   5.218   4.803   0.658 -0.2119  0.8902 -0.4658
11215TIP3    H155060   5.297   4.755   0.685  0.2784  1.4186 -0.9257
11215TIP3    H255061   5.156   4.788   0.729  0.0444 -0.1344 -0.4339
11216TIP3   OH255062   3.426   6.128   4.886  0.1996 -0.1354 -0.2386
11216TIP3    H155063   3.404   6.073   4.961  0.7544  0.3757  0.3128
11216TIP3    H255064   3.359   6.196   4.885 -1.0703 -1.3489 -1.5159
11217TIP3   OH255065   1.621   2.367   1.409  0.4647 -0.1647 -0.0372
11217TIP3    H155066   1.598   2.370   1.502  0.3694  4.1686 -0.0226
11217TIP3    H255067   1.709   2.402   1.405  0.0926  0.6592 -1.6554
11218TIP3   OH255068   2.911   3.527  15.513 -0.4477  0.1743  0.0881
11218TIP3    H155069   2.976   3.581  15.468  2.6572 -1.5077  2.1721
11218TIP3    H255070   2.903   3.449  15.459  0.2932 -0.1603  0.4437
11219TIP3   OH255071   5.794   3.884  12.336 -0.2433  0.0220  0.0250
11219TIP3    H155072   5.703   3.867  12.312  0.1665 -1.0846 -0.8187
11219TIP3    H255073   5.790   3.966  12.386 -1.9265 -0.9282  1.6093
11220TIP3   OH255074   5.432   5.939  13.708 -0.2112 -0.0867  0.4952
11220TIP3    H155075   5.466   5.893  13.631 -1.0798  0.2563 -0.1209
11220TIP3    H255076   5.338   5.917  13.709 -0.2831  0.2458  1.2148
11221TIP3   OH255077   4.782   0.673   2.368 -0.9415  0.5021 -0.5034
11221TIP3    H155078   4.753   0.604   2.428  1.4699 -0.5611 -0.4830
11221TIP3    H255079   4.854   0.635   2.319  1.3085  3.3197  0.3432
11222TIP3   OH255080   5.756   6.211   2.210  0.6674 -0.2546  0.1380
11222TIP3    H155081   5.713   6.290   2.242  0.6209  0.5310 -1.7368
11222TIP3    H255082   5.822   6.191   2.277 -0.3569  0.4475  1.4053
11223TIP3   OH255083   3.902   4.985  11.646  0.6535 -0.0757 -0.1118
11223TIP3    H155084   3.829   5.045  11.626  2.1156  1.6489 -0.5545
11223TIP3    H255085   3.932   4.954  11.561  1.2465  0.2749 -0.0398
11224TIP3   OH255086   6.566   0.409  15.750 -0.6090 -0.3238  0.1206
11224TIP3    H155087   6.571   0.413  15.654 -0.4987  1.4879  0.1660
11224TIP3    H255088   6.627   0.340  15.775  2.1606  1.5638 -0.9519
11225TIP3   OH255089   0.624   5.727   4.008 -0.1814 -0.6770  0.0737
11225TIP3    H155090   0.665   5.807   3.974  1.0223 -1.1153  0.4561
11225TIP3    H255091   0.571   5.695   3.935 -0.2725  0.1824 -0.2583
11226TIP3   OH255092   2.868   2.269  16.986  0.0841 -0.0453  0.1658
11226TIP3    H155093   2.929   2.217  17.039  0.8829  0.0955 -0.5961
11226TIP3    H255094   2.921   2.343  16.955 -0.5880  0.2974 -0.1698
11227TIP3   OH255095   5.919   6.775  15.073  0.3806 -0.1347 -0.3907
11227TIP3    H155096   5.865   6.853  15.090  0.8122 -0.0464  0.6722
11227TIP3    H255097   5.862   6.702  15.097  0.1952 -0.1253 -0.7866
11228TIP3   OH255098   1.401   3.268   5.109  0.5247  0.2049  0.3891
11228TIP3    H155099   1.398   3.260   5.205  0.7887 -0.5150  0.3454
11228TIP3    H255100   1.476   3.325   5.093  1.0254 -0.3833  0.5882
11229TIP3   OH255101   3.989   3.284   5.079  0.2206  0.2061 -0.1919
11229TIP3    H155102   3.920   3.310   5.017  0.7905  1.8456 -0.1806
11229TIP3    H255103   3.941   3.251   5.155 -0.5247 -0.0588 -0.7572
11230TIP3   OH255104   1.498   2.664  15.752  0.2084 -0.1918 -0.2347
11230TIP3    H155105   1.446   2.589  15.783  0.3413 -1.1815 -2.2980
11230TIP3    H255106   1.570   2.625  15.703  0.3564  1.2793 -1.2437
11231TIP3   OH255107   0.926   3.871  11.962  0.4106 -0.2640  0.1746
11231TIP3    H155108   1.014   3.844  11.937  0.2808 -0.0028 -0.5899
11231TIP3    H255109   0.917   3.961  11.930 -0.3822 -0.5365 -0.4065
11232TIP3   OH255110   2.468   3.459   4.556 -1.2133 -0.0124  0.5195
11232TIP3    H155111   2.446   3.517   4.483  0.1219  2.0289  1.6091
11232TIP3    H255112   2.386   3.447   4.603 -1.6116  0.6720  0.0262
11233TIP3   OH255113   5.368   4.005  16.058  0.0548 -0.5367  0.2561
11233TIP3    H155114   5.288   3.978  16.103 -1.2245 -0.3165 -1.7866
11233TIP3    H255115   5.343   4.081  16.006  1.3849 -0.9332 -1.0385
11234TIP3   OH255116   6.556   1.399  14.954 -0.2119 -0.4114 -0.2248
11234TIP3    H155117   6.499   1.366  15.024 -0.5697 -1.5406 -1.0217
11234TIP3    H255118   6.549   1.333  14.885  1.6473 -0.3034 -0.5574
11235TIP3   OH255119   4.381   0.598  16.403 -0.1368 -0.3073 -0.1481
11235TIP3    H155120   4.323   0.652  16.349  0.2254 -0.8072 -1.0633
11235TIP3    H255121   4.469   0.627  16.379  0.0214 -0.2280  0.5161
11236TIP3   OH255122   1.283   2.595   3.494 -0.3774  0.5236 -0.0882
11236TIP3    H155123   1.371   2.605   3.457 -0.5236  0.2778 -0.5068
11236TIP3    H255124   1.254   2.685   3.512 -0.1217  0.6169 -0.1439
11237TIP3   OH255125   5.490   4.020   6.009 -0.0714 -0.4291 -0.2352
11237TIP3    H155126   5.516   4.101   6.053 -4.4584  0.9269  0.3433
11237TIP3    H255127   5.519   4.031   5.919  1.3286  0.7730  0.3270
11238TIP3   OH255128   3.249   2.077  12.995 -0.6620  0.1330 -0.0888
11238TIP3    H155129   3.280   2.008  13.054  2.1897  0.8392 -0.5961
11238TIP3    H255130   3.257   2.158  13.045 -1.7202  0.3563 -0.2642
11239TIP3   OH255131   4.817   0.438   0.989 -0.2383  0.2938 -0.3866
11239TIP3    H155132   4.874   0.391   1.051 -0.8245  0.8989  0.6490
11239TIP3    H255133   4.877   0.496   0.941  0.5770 -1.8093 -2.0519
11240TIP3   OH255134   4.094   0.821   0.758  0.0569 -0.0758  0.2150
11240TIP3    H155135   4.096   0.806   0.663  0.9662  1.2340  0.0004
11240TIP3    H255136   4.110   0.915   0.768 -1.6705  0.1375  1.6071
11241TIP3   OH255137   5.585   2.713  11.943 -0.4391 -0.0615  0.1008
11241TIP3    H155138   5.590   2.803  11.975 -1.2117 -0.0503  0.2097
11241TIP3    H255139   5.585   2.659  12.023  3.4457 -0.4012  0.0260
11242TIP3   OH255140   3.606   4.660   5.022  0.0829  0.4542 -0.3650
11242TIP3    H155141   3.651   4.697   5.098  0.2635 -0.6842  0.0942
11242TIP3    H255142   3.649   4.575   5.008 -0.6043  0.2253 -1.1436
11243TIP3   OH255143   1.814   5.473   4.349 -0.3418 -0.3481  0.5224
11243TIP3    H155144   1.742   5.454   4.409  0.8354 -0.3213  2.0153
11243TIP3    H255145   1.893   5.465   4.403  0.7622 -0.0513 -0.9726
11244TIP3   OH255146   3.213   3.732  12.457 -0.3746 -0.0058 -0.0083
11244TIP3    H155147   3.270   3.784  12.514  0.1465 -0.2810 -0.2670
11244TIP3    H255148   3.205   3.648  12.501 -1.0553  0.2226  0.3113
11245TIP3   OH255149   5.031   4.163  14.116  0.5982  0.0899  0.2448
11245TIP3    H155150   5.009   4.253  14.139 -1.5448 -0.6401  1.2699
11245TIP3    H255151   4.988   4.148  14.032  2.3497  0.4773 -0.7813
11246TIP3   OH255152   1.948   1.486   0.449  0.1458  0.1279 -0.1196
11246TIP3    H155153   2.035   1.447   0.437 -0.8546 -2.5296  0.5764
11246TIP3    H255154   1.949   1.519   0.539  0.8596  1.3841 -0.5683
11247TIP3   OH255155   1.760   1.532   2.721 -0.4167  0.5297 -0.3199
11247TIP3    H155156   1.770   1.438   2.705  2.8708  0.3177  1.9674
11247TIP3    H255157   1.679   1.539   2.772 -1.1894 -0.9111 -1.2812
11248TIP3   OH255158   3.570   0.251  11.372  0.0137 -0.4995 -0.2231
11248TIP3    H155159   3.627   0.321  11.404  1.5062 -1.4238 -0.7598
11248TIP3    H255160   3.483   0.291  11.368  0.5704  0.8956  0.8168
11249TIP3   OH255161   0.212   0.954   0.395  0.2781  0.4381 -0.0836
11249TIP3    H155162   0.239   1.046   0.397 -1.4258  0.9703  0.4035
11249TIP3    H255163   0.150   0.946   0.468  0.1235 -1.0079 -0.3432
11250TIP3   OH255164   5.061   6.554   2.763 -0.2676 -0.0763  0.5329
11250TIP3    H155165   5.124   6.492   2.798  0.7479  0.6901  0.1328
11250TIP3    H255166   5.075   6.634   2.813 -2.1117 -0.3605  1.5928
11251TIP3   OH255167   3.958   2.353   3.638  0.6406 -0.3871  0.0988
11251TIP3    H155168   3.977   2.400   3.557  1.2022 -1.8035 -0.6438
11251TIP3    H255169   3.863   2.355   3.645  0.6557  0.9973  0.2113
11252TIP3   OH255170   4.103   4.240  17.185 -0.4419  0.7258  0.3734
11252TIP3    H155171   4.089   4.281  17.100  0.3282 -0.9439 -0.5900
11252TIP3    H255172   4.184   4.279  17.218  0.9097 -0.7766 -1.0513
11253TIP3   OH255173   3.979   2.111  16.701 -0.0978  0.3554  0.0622
11253TIP3    H155174   3.898   2.103  16.752 -0.4366  1.0139 -0.3434
11253TIP3    H255175   3.952   2.092  16.611  0.5090 -0.8704  0.1320
11254TIP3   OH255176   3.759   6.683   0.643  0.1757  0.5368 -0.1021
11254TIP3    H155177   3.764   6.775   0.619  1.7569  0.3082 -0.7956
11254TIP3    H255178   3.688   6.678   0.708 -0.5484  2.0669 -0.7393
11255TIP3   OH255179   4.838   3.826   5.876  0.0419 -0.3707 -0.5019
11255TIP3    H155180   4.854   3.733   5.890 -1.0027 -0.6156 -0.8518
11255TIP3    H255181   4.791   3.855   5.954  0.1138 -0.2023 -0.5200
11256TIP3   OH255182   0.836   0.087  13.391  0.3249 -0.9708  0.3658
11256TIP3    H155183   0.788   0.127  13.464 -1.6256 -0.6361 -1.0147
11256TIP3    H255184   0.861   0.160  13.336 -1.4935 -1.3935 -1.1412
11257TIP3   OH255185   3.925   6.372  13.018 -0.5737  0.9694  0.2166
11257TIP3    H155186   3.973   6.335  13.091 -0.8500  0.5871  0.2111
11257TIP3    H255187   3.988   6.428  12.973  0.1827 -0.3511 -0.4117
11258TIP3   OH255188   5.232   5.357  14.618 -0.0933  0.0452 -0.3324
11258TIP3    H155189   5.320   5.368  14.654 -0.2964 -1.4816  0.6987
11258TIP3    H255190   5.216   5.263  14.619 -1.9624  0.3130  0.0519
11259TIP3   OH255191   6.409   2.435   2.964 -0.2918 -0.6177 -0.5029
11259TIP3    H155192   6.410   2.522   3.004 -2.5077 -0.8757  0.2917
11259TIP3    H255193   6.318   2.422   2.938  0.3410 -2.0269 -2.1899
11260TIP3   OH255194   2.952   2.880  11.997  0.0651 -0.4383  1.1313
11260TIP3    H155195   2.894   2.951  12.028  0.5081 -0.1070  1.2114
11260TIP3    H255196   3.040   2.915  12.009  0.2707 -0.7807  0.6130
11261TIP3   OH255197   2.576   3.291  16.713  0.2919  0.3597  0.0310
11261TIP3    H155198   2.669   3.270  16.723  1.0621  2.4932 -1.8090
11261TIP3    H255199   2.555   3.268  16.623 -0.7245  0.7313  0.1577
11262TIP3   OH255200   5.613   3.437   0.256 -0.1239  0.2248 -0.8533
11262TIP3    H155201   5.686   3.417   0.197 -0.9024 -2.6654 -1.0294
11262TIP3    H255202   5.559   3.358   0.254 -3.1043  2.0973 -0.4435
11263TIP3   OH255203   4.949   2.193  11.679  0.2728  0.0299 -0.5653
11263TIP3    H155204   5.002   2.240  11.614 -0.0258  1.3794  0.1156
11263TIP3    H255205   4.859   2.222  11.662  0.1114 -0.1122  0.0128
11264TIP3   OH255206   0.738   0.877  11.914  0.4267  0.3999 -0.2623
11264TIP3    H155207   0.726   0.971  11.899  0.7980  0.3652 -0.8096
11264TIP3    H255208   0.658   0.836  11.880  0.5741  0.4589 -0.6817
11265TIP3   OH255209   2.922   4.070   3.660  0.7019 -0.5189  0.2426
11265TIP3    H155210   2.872   3.993   3.634  1.7719 -0.6865 -1.4948
11265TIP3    H255211   2.857   4.132   3.692 -0.6118 -0.8004 -1.7404
11266TIP3   OH255212   2.781   4.443   2.175 -0.1216 -0.0154  0.0126
11266TIP3    H155213   2.784   4.488   2.259 -0.6144 -0.8221  0.4670
11266TIP3    H255214   2.853   4.482   2.125  0.6259 -0.0125  1.0482
11267TIP3   OH255215   1.203   0.390   5.484  0.0506  0.2639 -0.3177
11267TIP3    H155216   1.228   0.411   5.394 -0.4217 -0.4218 -0.6179
11267TIP3    H255217   1.154   0.308   5.477  2.2234 -1.2351  0.8628
11268TIP3   OH255218   6.263   1.784  14.891  0.1079  0.4464 -0.2770
11268TIP3    H155219   6.248   1.737  14.972  1.4334  0.0646 -0.2215
11268TIP3    H255220   6.298   1.718  14.831 -0.5193  0.8002 -1.0474
11269TIP3   OH255221   0.480   5.459   1.546  0.7705 -0.2946  0.4779
11269TIP3    H155222   0.488   5.495   1.634  1.6825 -1.0409  0.7153
11269TIP3    H255223   0.386   5.448   1.532  0.6581 -1.2711  1.8299
11270TIP3   OH255224   5.307   3.120   4.360  0.1533 -0.1335 -0.2837
11270TIP3    H155225   5.320   3.064   4.436 -0.6281  0.6481  0.4484
11270TIP3    H255226   5.256   3.194   4.393 -0.4021  0.1077 -1.6143
11271TIP3   OH255227   4.605   2.271  14.399  0.8683 -0.0853  0.5016
11271TIP3    H155228   4.616   2.356  14.441  1.8977 -0.2260  0.5449
11271TIP3    H255229   4.608   2.208  14.471  0.0819 -0.1670  0.4732
11272TIP3   OH255230   2.555   3.629  13.588 -0.5127  0.4783 -0.5394
11272TIP3    H155231   2.547   3.693  13.660  0.2354 -0.0114 -0.0019
11272TIP3    H255232   2.644   3.595  13.597 -1.1491 -1.2086 -0.3416
11273TIP3   OH255233   0.071   0.609   1.524  0.9442 -0.2673  0.1081
11273TIP3    H155234   0.066   0.590   1.618 -0.7204 -0.4917  0.0097
11273TIP3    H255235  -0.014   0.581   1.490  0.1519  2.9576 -0.8741
11274TIP3   OH255236   2.411   2.787   5.163 -0.2016  0.6673  0.6645
11274TIP3    H155237   2.505   2.796   5.146 -0.5113  0.6812 -1.3588
11274TIP3    H255238   2.389   2.861   5.218  1.0001  0.5704  1.3079
11275TIP3   OH255239   3.083   3.463  12.266 -1.1807 -0.0883 -0.5344
11275TIP3    H155240   3.095   3.459  12.361 -0.1567 -1.5471 -0.7027
11275TIP3    H255241   3.058   3.374  12.240 -1.1080  0.2082 -1.6840
11276TIP3   OH255242   6.766   5.300   3.378  0.0861  0.2138 -0.4941
11276TIP3    H155243   6.810   5.299   3.463 -0.9914  0.3128  0.0853
11276TIP3    H255244   6.806   5.374   3.331 -1.2611  2.0237  1.0350
11277TIP3   OH255245   2.083   3.163   2.067  0.0504 -0.2008  0.0650
11277TIP3    H155246   2.067   3.192   2.157 -1.2711 -1.3790  0.2643
11277TIP3    H255247   2.130   3.234   2.026  0.0653  0.6580  1.5071
11278TIP3   OH255248   0.178   6.251   2.272  0.0109 -0.6540 -0.1750
11278TIP3    H155249   0.140   6.283   2.190  1.4260  1.7074 -0.0251
11278TIP3    H255250   0.110   6.265   2.337  0.1954  1.1938 -0.3241
11279TIP3   OH255251   4.027   0.741   2.502 -0.5477  0.1727  0.0594
11279TIP3    H155252   3.964   0.684   2.547 -1.8254  1.5486  0.0788
11279TIP3    H255253   3.978   0.821   2.483  0.4333  0.3023 -2.2864
11280TIP3   OH255254   2.199   0.430   4.360  0.4157  0.2103 -0.1187
11280TIP3    H155255   2.273   0.454   4.415  0.3346  0.0363  0.0698
11280TIP3    H255256   2.176   0.510   4.313  2.5261 -0.3945 -2.3489
11281TIP3   OH255257   0.701   5.132  13.848 -0.4172 -0.4512  0.0333
11281TIP3    H155258   0.650   5.074  13.905  0.9016 -0.4859  1.2303
11281TIP3    H255259   0.791   5.124  13.880  0.4799 -0.8404 -2.3654
11282TIP3   OH255260   5.621   5.912  16.858 -0.4934 -0.4974  0.1930
11282TIP3    H155261   5.616   5.816  16.862  0.7809 -0.5529  0.8153
11282TIP3    H255262   5.643   5.931  16.767 -2.5967 -0.6654 -0.4147
11283TIP3   OH255263   1.678   1.150  12.762 -0.4284 -0.6471 -0.1425
11283TIP3    H155264   1.692   1.210  12.835  0.5412 -2.7475  1.5261
11283TIP3    H255265   1.731   1.185  12.691 -0.7569  1.0222  0.4031
11284TIP3   OH255266   6.081   6.691   5.506 -0.5543 -0.4183  0.3137
11284TIP3    H155267   6.148   6.664   5.443 -0.1961  1.1370 -0.0203
11284TIP3    H255268   6.001   6.647   5.477  0.2900 -2.3773  0.7632
11285TIP3   OH255269   5.252   2.480   4.609 -0.2572  0.4105  0.4545
11285TIP3    H155270   5.237   2.399   4.658 -0.2046 -0.2403 -0.5606
11285TIP3    H255271   5.165   2.517   4.597 -0.1708  1.1655  1.9735
11286TIP3   OH255272   1.685   3.185  14.881 -0.0066 -0.0470  0.3518
11286TIP3    H155273   1.694   3.092  14.901  2.1325  0.1511  0.5912
11286TIP3    H255274   1.647   3.223  14.960  0.4717 -0.5203  0.8159
11287TIP3   OH255275   6.374   4.154  16.740  0.0243  0.2937  0.1403
11287TIP3    H155276   6.453   4.105  16.763 -0.3374 -0.0319  0.7110
11287TIP3    H255277   6.312   4.133  16.809 -0.3065  1.1614  0.1203
11288TIP3   OH255278   3.886   5.059  15.916 -0.5782 -0.2713 -0.0709
11288TIP3    H155279   3.889   5.112  15.995  2.4960 -0.4640  0.0618
11288TIP3    H255280   3.896   5.121  15.844  0.7672 -0.4022 -0.0295
11289TIP3   OH255281   0.706   4.130   4.433  0.0557 -0.1315  0.4228
11289TIP3    H155282   0.764   4.207   4.433  2.2640 -1.7229  0.2541
11289TIP3    H255283   0.662   4.133   4.348 -1.0428  1.6993  0.9820
11290TIP3   OH255284   0.411   0.183   1.735  0.5170  0.2402  0.2651
11290TIP3    H155285   0.443   0.094   1.748 -0.2993 -0.7201 -3.2353
11290TIP3    H255286   0.478   0.225   1.681  0.8577  1.7914  1.8104
11291TIP3   OH255287   6.296   2.673   5.273  0.3986 -0.5233 -0.2314
11291TIP3    H155288   6.344   2.753   5.294  0.7625 -0.6583 -0.5212
11291TIP3    H255289   6.204   2.696   5.284  0.4517  0.1728 -1.0652
11292TIP3   OH255290   5.239   0.667   3.066  0.0702  0.0521 -0.8467
11292TIP3    H155291   5.331   0.686   3.045  0.4921 -0.4521  0.4613
11292TIP3    H255292   5.190   0.730   3.013  1.1626  0.2653 -1.6465
11293TIP3   OH255293   2.826   4.096  14.552  0.3197  0.6299  0.1744
11293TIP3    H155294   2.892   4.112  14.485 -0.5975 -1.6291 -1.3902
11293TIP3    H255295   2.865   4.029  14.608  0.4565  1.3896  1.0213
11294TIP3   OH255296   1.251   1.843   5.859 -0.2525 -0.5587 -0.0454
11294TIP3    H155297   1.271   1.861   5.951  0.6566 -0.5511 -0.2387
11294TIP3    H255298   1.321   1.886   5.810  0.3765 -2.1899 -0.6517
11295TIP3   OH255299   0.427   0.914   3.784  0.1595  0.2354  0.3821
11295TIP3    H155300   0.334   0.908   3.761  0.1527  0.6061  0.2993
11295TIP3    H255301   0.432   0.988   3.844  0.5390  0.8312 -0.3650
11296TIP3   OH255302   2.405   1.958   2.258  0.0484 -0.2825 -0.0717
11296TIP3    H155303   2.313   1.945   2.232 -0.0472  1.1023 -0.4881
11296TIP3    H255304   2.428   1.877   2.304 -1.0239 -1.1315 -0.9573
11297TIP3   OH255305   3.485   1.025  10.983 -0.6207  0.4220 -0.5730
11297TIP3    H155306   3.579   1.034  10.998 -0.6347 -0.6637  0.3930
11297TIP3    H255307   3.445   1.093  11.037 -0.5029 -1.3191  1.8803
11298TIP3   OH255308   5.854   3.504   4.185  0.2920 -0.4519 -0.2747
11298TIP3    H155309   5.866   3.571   4.252 -0.1194 -0.2863 -0.3655
11298TIP3    H255310   5.773   3.528   4.141 -0.0229 -1.1861 -0.1096
11299TIP3   OH255311   4.748   0.821  15.373  0.5191 -0.2462 -0.5846
11299TIP3    H155312   4.808   0.802  15.445  0.4389  1.4284 -0.0250
11299TIP3    H255313   4.763   0.751  15.310  0.6837 -1.6836  0.9999
11300TIP3   OH255314   2.569   6.587   0.817 -0.3426 -0.0571  0.1164
11300TIP3    H155315   2.544   6.640   0.740  0.0138  0.8603  0.6126
11300TIP3    H255316   2.490   6.585   0.871 -0.9446 -1.6462 -0.7670
11301TIP3   OH255317   2.659   4.817  13.161  0.2500  0.0490  0.6783
11301TIP3    H155318   2.725   4.873  13.200  0.2940  1.5623 -1.4068
11301TIP3    H255319   2.590   4.877  13.132 -1.5274 -1.3695  1.7212
11302TIP3   OH255320   1.528   0.904   1.733  0.6659  0.2679  0.0554
11302TIP3    H155321   1.588   0.830   1.738  0.2519 -0.0343  0.7284
11302TIP3    H255322   1.452   0.870   1.686 -0.2727 -0.2987  1.8480
11303TIP3   OH255323   5.073   0.132   6.175 -0.6955 -0.1317  0.1153
11303TIP3    H155324   5.018   0.062   6.141 -1.1803  0.6687 -0.7798
11303TIP3    H255325   5.091   0.107   6.266 -3.4953  0.1464  0.8237
11304TIP3   OH255326   5.119   1.997   2.120 -0.3180 -0.8595 -0.3564
11304TIP3    H155327   5.092   2.082   2.154  1.3041 -1.5605  3.0115
11304TIP3    H255328   5.192   2.017   2.062 -2.1422  0.2320 -2.4570
11305TIP3   OH255329   6.142   4.262  14.014 -0.0826 -0.0924  0.1939
11305TIP3    H155330   6.069   4.311  13.975 -0.9412  1.0590  2.9905
11305TIP3    H255331   6.214   4.324  14.016  0.4139 -0.6069 -0.7545
11306TIP3   OH255332   4.260   1.652   4.638 -0.3612 -0.0475  0.1687
11306TIP3    H155333   4.218   1.569   4.658 -2.1097  0.5021 -0.9111
11306TIP3    H255334   4.308   1.636   4.557 -1.5662  0.1980 -0.6332
11307TIP3   OH255335   3.255   6.041   2.031  0.0471 -0.0977 -0.1630
11307TIP3    H155336   3.189   5.975   2.052  0.0589 -0.8329 -2.2766
11307TIP3    H255337   3.336   6.008   2.070 -0.4520 -0.0006  1.0155
11308TIP3   OH255338   5.855   2.467   4.487 -0.6086 -0.2562  0.0416
11308TIP3    H155339   5.865   2.393   4.547  0.9193  0.2445  0.4640
11308TIP3    H255340   5.801   2.530   4.535  2.5827  1.2119  2.0945
11309TIP3   OH255341   2.496   2.343   0.526  0.0458  0.2941  0.0069
11309TIP3    H155342   2.426   2.343   0.591  1.1606  1.2390  1.2604
11309TIP3    H255343   2.464   2.399   0.456 -1.9271 -2.1365 -1.1975
11310TIP3   OH255344   2.896   1.430   4.789  0.6989  0.7297  0.6104
11310TIP3    H155345   2.944   1.364   4.838  0.9737  1.0408  0.7684
11310TIP3    H255346   2.871   1.495   4.855  1.2443  1.2489  0.3106
11311TIP3   OH255347   4.685   3.973  11.013 -1.3616 -0.3607 -0.2545
11311TIP3    H155348   4.675   3.884  11.045 -0.6987 -0.2887  0.1735
11311TIP3    H255349   4.637   3.974  10.930 -0.4909 -1.4136 -0.8056
11312TIP3   OH255350   1.915   4.194   0.965 -0.1718  0.1027 -0.0603
11312TIP3    H155351   1.852   4.151   1.023 -0.5615  1.0067  0.2040
11312TIP3    H255352   1.881   4.180   0.877  0.0678 -0.7041 -0.0314
11313TIP3   OH255353   5.504   2.804  13.856 -0.0146  0.3334 -0.3132
11313TIP3    H155354   5.581   2.861  13.865  1.3670 -1.4074 -0.5337
11313TIP3    H255355   5.508   2.772  13.766 -0.8124 -0.0297 -0.2273
11314TIP3   OH255356   5.410   1.211  11.754  0.4783 -0.2179 -1.0977
11314TIP3    H155357   5.456   1.137  11.714 -0.1726  0.0571 -2.4052
11314TIP3    H255358   5.439   1.287  11.705 -0.5912  0.0885 -1.2784
11315TIP3   OH255359   4.322   1.929   0.090  0.4527 -0.2122  0.1209
11315TIP3    H155360   4.388   1.974   0.037  0.1093 -0.5676 -0.6348
11315TIP3    H255361   4.270   1.879   0.026  0.5559 -1.3380  0.8860
11316TIP3   OH255362   5.465   5.894  12.974  0.1817  0.0054  0.2674
11316TIP3    H155363   5.389   5.914  12.919 -0.3472 -0.2734  0.8867
11316TIP3    H255364   5.466   5.963  13.040  1.4096  0.9238 -0.6561
11317TIP3   OH255365   3.319   6.433   1.129  0.7102 -0.0972  0.1646
11317TIP3    H155366   3.290   6.424   1.220  1.0184 -0.5893  0.2144
11317TIP3    H255367   3.349   6.346   1.104  2.1785  0.3959  0.1203
11318TIP3   OH255368   3.156   4.049  12.166 -0.1046 -0.2909  0.3554
11318TIP3    H155369   3.236   4.036  12.216 -0.2714 -0.8869  0.4708
11318TIP3    H255370   3.085   4.021  12.224 -0.2064 -2.4620 -0.6995
11319TIP3   OH255371   2.761   2.306   6.318 -0.0400  0.2366 -0.0036
11319TIP3    H155372   2.789   2.347   6.399  2.0007 -2.4929  0.7931
11319TIP3    H255373   2.802   2.358   6.249  1.4682  0.3080  0.9058
11320TIP3   OH255374   1.842   5.321  13.870  0.0684  0.4580 -0.2322
11320TIP3    H155375   1.882   5.341  13.954 -0.8474 -0.2545  0.3901
11320TIP3    H255376   1.916   5.300  13.813  0.5854 -1.4612  1.0546
11321TIP3   OH255377   3.186   2.573   0.968  0.3853 -0.6181  0.3356
11321TIP3    H155378   3.171   2.479   0.957  0.3926 -0.7347  1.2876
11321TIP3    H255379   3.136   2.613   0.897  0.8067 -1.3617 -0.4115
11322TIP3   OH255380   6.689   0.025   5.565  0.1175  0.5514 -0.0909
11322TIP3    H155381   6.642   0.003   5.645  1.5844  0.5821  0.8134
11322TIP3    H255382   6.621   0.029   5.498 -0.7785 -2.5354  0.4919
11323TIP3   OH255383   5.690   1.325  15.196  0.1436  0.5088 -0.1466
11323TIP3    H155384   5.753   1.306  15.266  1.0083  2.7831 -0.2327
11323TIP3    H255385   5.607   1.336  15.242  0.3483  0.2113  0.3037
11324TIP3   OH255386   0.310   0.058   2.818  0.2363  0.5666 -0.5268
11324TIP3    H155387   0.392   0.010   2.814 -0.0605 -0.0188  0.1970
11324TIP3    H255388   0.282   0.051   2.909 -0.4655  1.0219 -0.6924
11325TIP3   OH255389   3.401   2.624   5.681 -0.1757 -0.8227 -0.4344
11325TIP3    H155390   3.361   2.588   5.760  0.0855  0.7119  0.4480
11325TIP3    H255391   3.410   2.717   5.700 -0.1467 -0.4127 -2.3176
11326TIP3   OH255392   1.197   6.156  13.102 -0.1798  0.1830 -0.4183
11326TIP3    H155393   1.116   6.162  13.052 -1.1968  2.6465  1.3611
11326TIP3    H255394   1.172   6.172  13.193  2.3286  1.4274  0.1540
11327TIP3   OH255395   3.982   0.383   5.857 -0.8308 -0.1443 -0.3736
11327TIP3    H155396   3.978   0.290   5.878 -0.0059 -0.1292 -0.0888
11327TIP3    H255397   4.046   0.419   5.919 -0.7583  0.5141 -0.8151
11328TIP3   OH255398   5.123   1.826   2.838  0.5372 -0.6180  0.0276
11328TIP3    H155399   5.085   1.914   2.842  0.3528 -0.7403  2.0312
11328TIP3    H255400   5.134   1.801   2.930  2.3007 -1.9649 -0.5073
11329TIP3   OH255401   5.246   6.101  16.243 -0.7584 -0.1526  0.0290
11329TIP3    H155402   5.316   6.076  16.183 -0.5727 -0.2376  0.2836
11329TIP3    H255403   5.212   6.018  16.277  0.6645 -0.0544  1.8168
11330TIP3   OH255404   3.271   0.990   1.649  0.0383  0.0065 -0.2835
11330TIP3    H155405   3.192   0.984   1.704  1.3394  0.9771  1.8115
11330TIP3    H255406   3.260   1.072   1.600  0.3185  0.8764  1.0485
11331TIP3   OH255407   2.055   2.073  12.012  0.1571 -0.0456  0.2324
11331TIP3    H155408   2.092   2.016  11.945 -0.0875  1.0665 -0.8922
11331TIP3    H255409   1.963   2.082  11.989  0.3868  1.5411 -0.2001
11332TIP3   OH255410   6.385   5.542  13.465  0.1160  0.0894  0.1822
11332TIP3    H155411   6.342   5.612  13.416 -1.1759 -0.8831 -0.1390
11332TIP3    H255412   6.446   5.587  13.523 -2.4308  1.6876  1.7727
11333TIP3   OH255413   4.615   3.617  12.699 -0.1431  0.4785 -0.1095
11333TIP3    H155414   4.525   3.632  12.670 -0.3704  1.2118  0.8935
11333TIP3    H255415   4.664   3.693  12.668 -0.2671  0.9758  0.8535
11334TIP3   OH255416   4.488   0.243  11.429  0.5436  0.0788  0.1531
11334TIP3    H155417   4.395   0.258  11.443  0.4290 -0.9428  0.5818
11334TIP3    H255418   4.531   0.321  11.464 -0.1666  0.7037 -0.3552
11335TIP3   OH255419   4.181   0.819   3.778 -0.1254 -0.6254  0.2845
11335TIP3    H155420   4.123   0.748   3.751 -2.6137  1.2988  0.2765
11335TIP3    H255421   4.128   0.874   3.835  1.3889  1.7869 -0.4749
11336TIP3   OH255422   3.892   0.316   2.056 -0.9379 -0.0862 -0.1945
11336TIP3    H155423   3.908   0.234   2.102 -1.3769 -0.5266 -0.8053
11336TIP3    H255424   3.877   0.381   2.125 -0.0544 -0.3941  0.3104
11337TIP3   OH255425   6.285   3.380  12.696 -0.6976  0.0267 -0.1146
11337TIP3    H155426   6.319   3.310  12.752  2.2273  2.0266  0.8336
11337TIP3    H255427   6.288   3.343  12.608  0.8483 -1.0428  0.3457
11338TIP3   OH255428   6.173   3.981   3.074  0.2529  0.0403 -0.1247
11338TIP3    H155429   6.254   4.026   3.097  0.3905  0.3652 -1.1937
11338TIP3    H255430   6.200   3.892   3.053  0.2806  0.0337 -0.0594
11339TIP3   OH255431   5.725   3.000  13.894 -0.1545  0.7029 -0.2424
11339TIP3    H155432   5.657   3.059  13.862 -0.2245  1.0291  0.4805
11339TIP3    H255433   5.807   3.039  13.862 -0.3168 -0.0383 -1.6592
11340TIP3   OH255434   2.800   5.421   6.459 -0.0691  0.2027  0.1000
11340TIP3    H155435   2.754   5.351   6.506  0.9862 -0.8723 -0.4331
11340TIP3    H255436   2.764   5.419   6.371 -1.4953  1.7130  0.6027
11341TIP3   OH255437   3.466   4.909   2.305 -0.3049  0.0652  0.5058
11341TIP3    H155438   3.559   4.895   2.288 -0.2504  0.1212  0.7655
11341TIP3    H255439   3.464   4.970   2.378 -0.5114 -2.8063  3.1041
11342TIP3   OH255440   0.352   0.014  14.966  0.3437  0.0152 -0.1933
11342TIP3    H155441   0.318  -0.066  15.006  0.0977 -0.4564 -1.3038
11342TIP3    H255442   0.445   0.014  14.990  0.1821 -0.1795  0.4738
11343TIP3   OH255443   5.956   4.794  15.312  0.8869  0.3063 -0.1460
11343TIP3    H155444   5.877   4.847  15.303  0.3243 -0.5524 -0.5518
11343TIP3    H255445   5.938   4.736  15.385  1.5572  0.7722  0.3977
11344TIP3   OH255446   1.719   5.058  11.724 -0.3703 -0.2720 -0.2094
11344TIP3    H155447   1.649   5.086  11.665 -2.4133  0.1218  2.2820
11344TIP3    H255448   1.761   5.139  11.752  0.0723 -0.4138 -0.4393
11345TIP3   OH255449   2.076   2.366  14.103  0.2074 -0.1154  0.2466
11345TIP3    H155450   2.140   2.310  14.147  0.4075  0.7371  1.0591
11345TIP3    H255451   2.111   2.455  14.114 -1.8888  0.5556  2.1035
11346TIP3   OH255452   6.640   2.896  15.371 -0.0115 -0.1411  0.3919
11346TIP3    H155453   6.634   2.939  15.286 -0.9898 -1.4461 -0.2340
11346TIP3    H255454   6.597   2.956  15.431 -2.7335 -0.8014 -0.7255
11347TIP3   OH255455   5.730   6.418   5.083 -0.5089  0.5851  0.4560
11347TIP3    H155456   5.759   6.465   5.004  1.0170 -0.4658  0.3549
11347TIP3    H255457   5.691   6.486   5.138 -0.6228  1.5234 -0.7327
11348TIP3   OH255458   3.462   2.220   2.205 -0.0420  0.7711 -0.5587
11348TIP3    H155459   3.436   2.250   2.292 -1.0436 -3.2905  0.7595
11348TIP3    H255460   3.383   2.232   2.151 -1.0502 -0.9262  0.4302
11349TIP3   OH255461   1.756   0.723  15.730  0.1035  0.3817  0.0185
11349TIP3    H155462   1.713   0.708  15.646  0.2824  0.9777 -0.1806
11349TIP3    H255463   1.708   0.667  15.791  0.9206 -1.1930 -0.7369
11350TIP3   OH255464   1.940   3.377  11.556  0.4039 -0.0071 -0.2973
11350TIP3    H155465   2.018   3.332  11.524  1.3601 -1.5283  3.5207
11350TIP3    H255466   1.873   3.309  11.559  0.0120  0.3805 -0.2095
11351TIP3   OH255467   6.543   2.595  13.844  0.0508 -0.3683  0.4926
11351TIP3    H155468   6.544   2.504  13.816  0.3597 -0.2523  0.1171
11351TIP3    H255469   6.492   2.640  13.777 -0.9236 -0.4189  1.1805
11352TIP3   OH255470   5.162   4.758   2.507  0.6980 -0.2456  0.1960
11352TIP3    H155471   5.198   4.785   2.423 -0.8720 -0.1474 -0.4771
11352TIP3    H255472   5.079   4.716   2.485  0.8782 -1.4320  1.5968
11353TIP3   OH255473   2.794   1.482  17.184 -0.3389  0.5984  0.2189
11353TIP3    H155474   2.880   1.458  17.148  0.6803  0.8243  2.3229
11353TIP3    H255475   2.731   1.457  17.116  1.2646 -0.9307 -0.7915
11354TIP3   OH255476   6.441   0.005  15.387  0.4642  0.0654  0.0331
11354TIP3    H155477   6.402   0.010  15.474 -0.1577  0.7263 -0.2652
11354TIP3    H255478   6.520  -0.047  15.398  0.7504  0.7102  1.1134
11355TIP3   OH255479   4.343   2.952  16.361  0.1030 -0.3170 -0.0887
11355TIP3    H155480   4.429   2.993  16.357 -0.0302  0.1630  1.4350
11355TIP3    H255481   4.354   2.877  16.419 -0.8257  0.6611  1.4217
11356TIP3   OH255482   0.987   2.391   2.222  0.6859  0.1731 -0.2262
11356TIP3    H155483   1.004   2.387   2.316  0.3199  0.1678 -0.1598
11356TIP3    H255484   1.054   2.450   2.188  3.0548 -2.4977 -0.4892
11357TIP3   OH255485   0.245   5.336   0.396 -0.3144 -0.0703 -0.6299
11357TIP3    H155486   0.246   5.309   0.488  2.1375 -1.4556 -0.9706
11357TIP3    H255487   0.196   5.268   0.351  0.8968 -0.9221 -0.6960
11358TIP3   OH255488   1.967   2.705   1.004 -0.0729  0.3147 -0.4324
11358TIP3    H155489   1.901   2.742   1.062 -1.6201  2.2428 -3.1699
11358TIP3    H255490   1.988   2.620   1.042  0.0213  1.9098  3.5586
11359TIP3   OH255491   4.436   4.896   0.268  0.8350  0.6932 -0.2212
11359TIP3    H155492   4.444   4.990   0.249  0.9382  0.6650 -0.3166
11359TIP3    H255493   4.523   4.870   0.299  0.1683  1.1634  2.2125
11360TIP3   OH255494   0.452   5.273   2.836  0.3277  0.2706 -0.1027
11360TIP3    H155495   0.493   5.348   2.791 -0.2683  0.3289 -0.5608
11360TIP3    H255496   0.463   5.200   2.774 -2.5362  0.8431 -1.4663
11361TIP3   OH255497   5.823   4.260   3.649 -0.5046 -0.6704  0.2403
11361TIP3    H155498   5.761   4.296   3.586  0.4473 -0.8223 -0.8160
11361TIP3    H255499   5.848   4.335   3.703 -0.9104 -0.4151  0.0781
11362TIP3   OH255500   3.378   1.289   1.519  0.2271  0.2905  0.2010
11362TIP3    H155501   3.443   1.251   1.460  0.2001  2.8947 -1.7059
11362TIP3    H255502   3.423   1.295   1.603  2.0287  0.8275 -0.7416
11363TIP3   OH255503   2.386   1.954  16.484  0.0676  1.0014 -0.8235
11363TIP3    H155504   2.389   1.913  16.571 -1.3390 -0.3908 -1.3876
11363TIP3    H255505   2.420   1.886  16.425 -0.8325  1.1964 -1.5888
11364TIP3   OH255506   2.210   1.264   4.148  0.5681 -0.1264  0.8022
11364TIP3    H155507   2.147   1.261   4.220 -2.4105 -0.9297 -1.6124
11364TIP3    H255508   2.180   1.335   4.092  2.3200 -0.0143 -0.0667
11365TIP3   OH255509   0.876   1.257   4.273 -0.1532 -0.7491 -0.0787
11365TIP3    H155510   0.851   1.287   4.360 -0.0998 -0.8527 -0.0270
11365TIP3    H255511   0.922   1.331   4.234 -0.3599 -0.6290 -0.0978
11366TIP3   OH255512   1.003   1.256   0.008 -0.5262  0.2000 -0.0907
11366TIP3    H155513   1.085   1.220  -0.024 -0.4371  0.8908 -0.6751
11366TIP3    H255514   1.010   1.350  -0.009 -0.3763  0.6532  2.1799
11367TIP3   OH255515   0.839   4.913   3.326 -0.3675  0.7026  0.4543
11367TIP3    H155516   0.901   4.899   3.398 -1.0906 -1.9952  0.6639
11367TIP3    H255517   0.892   4.901   3.247 -0.6800 -2.8258  0.6254
11368TIP3   OH255518   1.202   1.607   4.457 -0.2307  0.6823  0.8513
11368TIP3    H155519   1.131   1.636   4.515  0.8433  0.0380  2.5800
11368TIP3    H255520   1.236   1.528   4.499 -0.0706 -0.4552 -1.2672
11369TIP3   OH255521   2.245   4.467  14.065 -0.2130  0.0517  0.3627
11369TIP3    H155522   2.158   4.440  14.037 -0.7991 -0.7945  2.7514
11369TIP3    H255523   2.301   4.452  13.989 -2.2557  1.5751 -1.5801
11370TIP3   OH255524   6.164   4.025   1.381  0.0581  0.3969 -0.5189
11370TIP3    H155525   6.237   4.047   1.323  1.7731 -1.7078  0.6924
11370TIP3    H255526   6.093   4.082   1.352  3.0827  5.3194  0.5132
11371TIP3   OH255527   3.900   4.218  10.512 -0.5632  0.3660  0.0307
11371TIP3    H155528   3.857   4.228  10.597 -0.5555 -1.0537  0.2298
11371TIP3    H255529   3.993   4.228  10.530 -0.4441 -1.2576  0.4579
11372TIP3   OH255530   5.084   2.189   0.546  0.1717  0.1547 -0.0544
11372TIP3    H155531   5.175   2.160   0.536  1.1896  1.9534  2.7254
11372TIP3    H255532   5.085   2.241   0.626 -3.4430 -0.1024  0.3014
11373TIP3   OH255533   5.354   3.807   5.915  0.6660 -0.0933 -0.5099
11373TIP3    H155534   5.401   3.885   5.945 -1.7074  0.8983  0.8576
11373TIP3    H255535   5.350   3.750   5.992  1.4847 -1.1644 -1.2220
11374TIP3   OH255536   6.101   4.413   3.585  0.0663  0.2917 -0.2804
11374TIP3    H155537   6.026   4.469   3.566  1.3396  1.8572 -0.9246
11374TIP3    H255538   6.079   4.371   3.668 -1.7693  0.1877 -0.7576
11375TIP3   OH255539   5.346   5.759  14.204 -0.4125 -0.1392 -0.0420
11375TIP3    H155540   5.282   5.716  14.261 -1.3568 -0.5448 -1.3618
11375TIP3    H255541   5.361   5.696  14.134  0.4004  0.5168 -0.4713
11376TIP3   OH255542   5.180   3.387   3.903 -0.0776 -0.4044 -0.0889
11376TIP3    H155543   5.112   3.337   3.946 -1.0347  1.8170  1.1602
11376TIP3    H255544   5.198   3.339   3.822 -3.7142 -0.6696 -0.9109
11377TIP3   OH255545   4.662   4.657   4.900  0.0972 -0.1919 -0.8154
11377TIP3    H155546   4.678   4.729   4.961 -1.5954  0.9471 -1.6170
11377TIP3    H255547   4.647   4.581   4.955  1.4831  0.1521  0.0730
11378TIP3   OH255548   0.179   6.573   2.384 -0.5131 -0.6202  0.6392
11378TIP3    H155549   0.262   6.560   2.338 -0.8901  0.4805 -0.3870
11378TIP3    H255550   0.205   6.606   2.470  0.1856 -2.4647  1.1905
11379TIP3   OH255551   1.723   4.485  12.979  0.1753 -0.2171 -0.3506
11379TIP3    H155552   1.720   4.535  12.897  0.2833  1.0128  0.3747
11379TIP3    H255553   1.794   4.525  13.029 -0.7290 -0.0773  0.8860
11380TIP3   OH255554   0.133   1.172  14.916 -0.0656 -0.2973  0.0999
11380TIP3    H155555   0.173   1.212  14.839  0.6292  0.0487  0.6266
11380TIP3    H255556   0.181   1.209  14.990 -0.1118 -1.3031  0.6564
11381TIP3   OH255557   4.831   2.948  17.061 -0.4902  0.0663 -0.8393
11381TIP3    H155558   4.785   3.014  17.114 -0.8461 -0.4370 -0.5113
11381TIP3    H255559   4.919   2.982  17.051 -0.4344  0.1970  0.0401
11382TIP3   OH255560   3.914   0.970  17.081  0.1902 -0.8685  0.1047
11382TIP3    H155561   3.891   0.954  16.990 -1.4683  0.2830  0.2932
11382TIP3    H255562   4.010   0.970  17.082  0.4382  3.1913 -2.4724
11383TIP3   OH255563   3.040   0.950  13.558 -0.0314 -0.4492 -0.0733
11383TIP3    H155564   3.015   0.866  13.519 -1.1197 -1.3525  2.3770
11383TIP3    H255565   3.123   0.972  13.516 -0.4824 -1.9647 -1.8796
11384TIP3   OH255566   0.388   4.211   3.842  0.1270 -0.0444 -0.1204
11384TIP3    H155567   0.464   4.221   3.899 -0.1993  0.1325  0.2844
11384TIP3    H255568   0.414   4.142   3.780  0.6818  0.1420 -0.0996
11385TIP3   OH255569   1.434   0.448  13.363  0.1235 -0.1335 -0.2718
11385TIP3    H155570   1.489   0.485  13.432  1.7451 -0.4061 -1.3759
11385TIP3    H255571   1.386   0.524  13.328 -1.2972 -0.1041  1.5939
11386TIP3   OH255572   6.065   4.219   5.338  0.7362  0.2930 -0.2945
11386TIP3    H155573   6.141   4.174   5.375 -0.7714 -0.7427  1.7015
11386TIP3    H255574   6.092   4.311   5.333  1.8029  0.1039  1.2767
11387TIP3   OH255575   2.228   3.828   3.187  0.1388  0.1866  0.2552
11387TIP3    H155576   2.247   3.743   3.227 -1.3257 -0.4267 -0.2568
11387TIP3    H255577   2.132   3.835   3.190  0.0247  0.5637 -2.1705
11388TIP3   OH255578   0.046   1.901  16.412 -0.9519  0.1937  0.5420
11388TIP3    H155579  -0.012   1.978  16.408 -1.9302 -0.5332  0.3804
11388TIP3    H255580   0.134   1.938  16.412 -1.4077  1.3557  1.4761
11389TIP3   OH255581   2.640   4.580  12.092  0.2450  0.2152 -0.2386
11389TIP3    H155582   2.587   4.509  12.127  2.0458 -0.5271  1.1616
11389TIP3    H255583   2.577   4.647  12.066 -1.4346 -1.3879 -0.4568
11390TIP3   OH255584   4.612   4.233  11.795 -0.0391 -0.0637  0.3429
11390TIP3    H155585   4.618   4.172  11.722  0.4617 -1.1713  1.2664
11390TIP3    H255586   4.689   4.289  11.787  0.3485 -0.5882  0.3624
11391TIP3   OH255587   2.823   2.881  16.237 -0.1063  0.1399  0.1008
11391TIP3    H155588   2.762   2.846  16.303  1.7808 -0.8549  1.4306
11391TIP3    H255589   2.808   2.827  16.160 -0.7515 -0.2444  0.4804
11392TIP3   OH255590   4.774   3.660   5.624 -0.3675 -0.4938 -0.8132
11392TIP3    H155591   4.776   3.668   5.720 -1.2851  0.4233 -0.8493
11392TIP3    H255592   4.778   3.566   5.608 -2.6365 -0.8426  0.2415
11393TIP3   OH255593   6.763   2.133   0.718 -0.0254 -0.0255  0.2035
11393TIP3    H155594   6.707   2.150   0.642 -0.2824  2.1055  0.7989
11393TIP3    H255595   6.838   2.086   0.682 -1.2702 -1.2421 -0.9237
11394TIP3   OH255596   3.037   1.192  12.491  0.1655  0.2374  0.2444
11394TIP3    H155597   3.020   1.224  12.580  2.2941  0.0534  0.7576
11394TIP3    H255598   3.097   1.256  12.453 -0.1124 -0.1054 -0.7969
11395TIP3   OH255599   0.951   3.143   4.386 -0.4217  0.2219 -0.0945
11395TIP3    H155600   0.952   3.049   4.364 -0.9916 -0.0204  0.8812
11395TIP3    H255601   0.859   3.163   4.398 -0.1597  0.3133  2.1383
11396TIP3   OH255602   4.532   1.983  16.583  0.7646 -0.0941  0.2740
11396TIP3    H155603   4.462   2.040  16.552 -0.5212 -0.4636  2.3111
11396TIP3    H255604   4.534   1.911  16.520  2.7101  2.2669 -2.5920
11397TIP3   OH255605   0.888   3.014   2.665 -0.0804 -0.5321  0.1378
11397TIP3    H155606   0.967   3.020   2.720  0.1068 -0.3213 -0.1518
11397TIP3    H255607   0.916   3.046   2.579 -1.3316  2.9711  0.8539
11398TIP3   OH255608   2.684   2.940  16.806  0.3203 -0.4463 -0.6876
11398TIP3    H155609   2.685   2.872  16.874  0.5857  0.8844  0.7069
11398TIP3    H255610   2.677   3.022  16.855 -1.4941  0.4864 -2.3898
11399TIP3   OH255611   6.283   3.262  12.453 -0.1224  0.4467 -0.0676
11399TIP3    H155612   6.232   3.301  12.382 -0.5263  0.5347  0.2631
11399TIP3    H255613   6.371   3.252  12.417 -0.0089  1.6495 -0.1638
11400TIP3   OH255614   2.174   3.715  10.587 -0.1445  0.3367 -0.6836
11400TIP3    H155615   2.246   3.761  10.543  0.3481 -0.0744 -0.3135
11400TIP3    H255616   2.107   3.782  10.599  0.7232  1.0615  0.2115
11401TIP3   OH255617   5.838   6.327  17.073 -0.3667 -0.0513  0.1893
11401TIP3    H155618   5.843   6.235  17.099  0.6170  0.1659  0.8201
11401TIP3    H255619   5.807   6.324  16.982  0.4160 -1.0487 -0.0728
11402TIP3   OH255620   1.829   4.103   1.764 -0.2020  0.1666  0.4022
11402TIP3    H155621   1.828   4.012   1.792  0.7555  0.1452  0.4220
11402TIP3    H255622   1.919   4.118   1.734 -0.4365  1.0043  0.0652
11403TIP3   OH255623   1.019   1.126  11.558  0.0405  0.0028 -0.1739
11403TIP3    H155624   1.032   1.084  11.643 -0.1481  0.8867  0.3046
11403TIP3    H255625   1.022   1.054  11.495  3.0283 -0.4029  0.2762
11404TIP3   OH255626   1.832   1.230   3.637 -1.0256 -0.1209 -0.0807
11404TIP3    H155627   1.775   1.278   3.577 -2.3338  0.2862  1.4015
11404TIP3    H255628   1.834   1.141   3.602  0.8990  0.7811 -2.5002
11405TIP3   OH255629   6.644   3.001   4.955 -0.3911 -0.4663 -0.8565
11405TIP3    H155630   6.634   3.013   5.049  0.1251  0.9587 -0.9595
11405TIP3    H255631   6.558   2.972   4.924 -0.4149 -1.4687  0.1147
11406TIP3   OH255632   1.118   5.156  10.669 -0.0130 -0.0641  0.0803
11406TIP3    H155633   1.064   5.078  10.662 -0.1400  0.1181 -1.2976
11406TIP3    H255634   1.056   5.229  10.666  0.2982  0.2220 -3.3846
11407TIP3   OH255635   0.819   1.114   0.156 -0.6961  0.2999  0.2307
11407TIP3    H155636   0.806   1.155   0.241  0.8000 -0.7152  0.9841
11407TIP3    H255637   0.891   1.163   0.117  0.5598 -1.0274  0.7953
11408TIP3   OH255638   2.895   4.713  13.504 -0.0582 -0.7637  0.1635
11408TIP3    H155639   2.834   4.685  13.573  1.8625  1.3847  2.9988
11408TIP3    H255640   2.959   4.642  13.499  0.2776 -0.5574  1.2857
11409TIP3   OH255641   3.936   6.090  12.489  0.5017 -0.0670  0.2070
11409TIP3    H155642   3.915   6.112  12.580 -1.0402 -0.4078 -0.0360
11409TIP3    H255643   3.853   6.101  12.442  0.9289 -1.2743 -0.8966
11410TIP3   OH255644   5.640   5.541  11.694 -0.6012 -0.0950 -0.4118
11410TIP3    H155645   5.658   5.458  11.649  1.1867 -0.4792  0.8608
11410TIP3    H255646   5.617   5.514  11.783  1.0664  0.7620  0.3232
11411TIP3   OH255647   3.544   3.774  14.130  0.3560 -0.9379  0.0994
11411TIP3    H155648   3.622   3.829  14.117 -1.0039  1.5023  1.4478
11411TIP3    H255649   3.519   3.790  14.221 -2.3736 -0.6677 -0.6001
11412TIP3   OH255650   0.656   0.716   1.680 -0.1251  0.0879 -0.1778
11412TIP3    H155651   0.576   0.679   1.642 -0.2655 -1.2777  1.3470
11412TIP3    H255652   0.687   0.648   1.740  1.4312  1.1694  0.2856
11413TIP3   OH255653   3.551   1.979   2.298 -0.6211 -0.2838  0.1847
11413TIP3    H155654   3.530   2.071   2.282  1.3234  0.2383  0.3335
11413TIP3    H255655   3.606   1.981   2.376 -0.5892 -1.5897  0.2068
11414TIP3   OH255656   0.044   5.684  12.981 -0.1340 -0.2023  0.0569
11414TIP3    H155657  -0.014   5.637  13.040 -0.6976  1.0242  0.5114
11414TIP3    H255658   0.000   5.768  12.965  1.2939  0.5831  0.0719
11415TIP3   OH255659   3.839   4.348  16.284 -0.1684  0.0143 -0.2547
11415TIP3    H155660   3.844   4.289  16.209 -0.4365  0.7093 -0.8379
11415TIP3    H255661   3.773   4.309  16.340 -0.1430 -0.3902 -0.5013
11416TIP3   OH255662   2.330   2.682  12.660 -0.3974 -0.6137 -0.3962
11416TIP3    H155663   2.327   2.611  12.723 -0.6986 -0.8033 -0.6208
11416TIP3    H255664   2.239   2.708  12.648 -0.3353 -0.5124 -0.6740
11417TIP3   OH255665   0.366   0.532  11.349 -0.1603  0.1645  0.4284
11417TIP3    H155666   0.299   0.599  11.362 -2.0348 -1.8619  2.0815
11417TIP3    H255667   0.322   0.464  11.298  1.2065 -0.4791  0.0600
11418TIP3   OH255668   6.460   2.766  11.770  0.1458 -0.3881 -0.2419
11418TIP3    H155669   6.494   2.855  11.782  1.3498 -0.8617 -0.0552
11418TIP3    H255670   6.368   2.780  11.745  0.5399  0.9337 -1.0786
11419TIP3   OH255671   5.575   0.670   3.841  0.4380  0.0180  0.6138
11419TIP3    H155672   5.518   0.657   3.766  0.5990 -0.3164  0.5467
11419TIP3    H255673   5.567   0.589   3.892 -0.4779  0.6500  1.5129
11420TIP3   OH255674   2.560   1.903  13.879  0.6159  0.0977 -0.5894
11420TIP3    H155675   2.530   1.923  13.968 -0.6090  1.7214 -1.3244
11420TIP3    H255676   2.511   1.963  13.823 -0.3326 -2.3900 -2.6165
11421TIP3   OH255677   1.710   5.892   1.478 -0.6879  0.1032  0.2308
11421TIP3    H155678   1.624   5.849   1.481 -0.6439 -0.0277 -0.2389
11421TIP3    H255679   1.771   5.824   1.507 -0.3468 -0.9192 -2.5878
11422TIP3   OH255680   1.364   1.893  10.651 -0.6225  0.5050  0.4411
11422TIP3    H155681   1.456   1.920  10.649 -0.7192  0.8894  1.1169
11422TIP3    H255682   1.315   1.972  10.672 -1.2147  0.5284 -0.8900
11423TIP3   OH255683   3.920   1.372  14.736  0.4823  0.6102  0.0551
11423TIP3    H155684   3.934   1.453  14.687 -0.3908 -0.0633 -1.3923
11423TIP3    H255685   3.969   1.383  14.817  0.5928  2.4708 -0.2320
11424TIP3   OH255686   4.421   2.935   4.803  0.5857 -0.2139 -0.5914
11424TIP3    H155687   4.384   2.989   4.734 -1.5434  0.2692  0.8160
11424TIP3    H255688   4.385   2.972   4.884 -0.4457 -3.2808  0.4866
11425TIP3   OH255689   6.732   2.985  16.457 -0.1334  0.6205  0.0752
11425TIP3    H155690   6.820   3.000  16.421 -0.6410 -0.2056 -1.5828
11425TIP3    H255691   6.675   2.979  16.381 -1.0342 -2.7532  0.8250
11426TIP3   OH255692   2.387   1.480  11.921 -0.3422 -0.3263  0.0437
11426TIP3    H155693   2.363   1.558  11.870  0.6852  0.6408  0.9852
11426TIP3    H255694   2.304   1.451  11.959 -0.5880  0.9846  0.5722
11427TIP3   OH255695   5.802   2.210   0.482 -0.7790  0.5582  0.0446
11427TIP3    H155696   5.826   2.138   0.424  0.2740 -0.4479  1.6548
11427TIP3    H255697   5.862   2.281   0.459 -0.6421  0.3081 -0.3701
11428TIP3   OH255698   3.799   2.863   3.204  0.2719 -0.3059 -0.8861
11428TIP3    H155699   3.805   2.890   3.296 -0.7952 -2.0812 -0.2428
11428TIP3    H255700   3.705   2.857   3.187  0.4586 -0.3490 -1.9984
11429TIP3   OH255701   0.976   0.905  15.129  0.5460  0.1207 -0.2107
11429TIP3    H155702   0.985   0.813  15.153 -1.9585 -0.1445 -0.0553
11429TIP3    H255703   0.910   0.906  15.060 -1.2307  1.9365  1.3529
11430TIP3   OH255704   4.498   2.926   1.231 -0.5163 -0.0881 -0.7758
11430TIP3    H155705   4.505   2.889   1.319 -0.3792 -1.6347 -1.4046
11430TIP3    H255706   4.587   2.950   1.207 -0.6563  1.0444 -0.2235
11431TIP3   OH255707   0.095   3.243   4.590 -0.4806 -0.4964  0.2446
11431TIP3    H155708   0.012   3.230   4.635  0.7120 -0.3677  2.6351
11431TIP3    H255709   0.154   3.177   4.627  0.9372  0.5040 -0.1303
11432TIP3   OH255710   1.893   0.904   5.941  0.5247 -0.5693 -0.1491
11432TIP3    H155711   1.979   0.898   5.982  0.8405  1.2840 -0.4692
11432TIP3    H255712   1.838   0.947   6.006  0.9952  2.2599 -1.4928
11433TIP3   OH255713   1.302   5.462   0.660 -0.1969  0.0051  0.3105
11433TIP3    H155714   1.288   5.544   0.708  0.1566 -0.1752  0.7280
11433TIP3    H255715   1.222   5.412   0.675 -0.1250 -0.0133  0.6446
11434TIP3   OH255716   5.554   0.917   2.662 -0.3405 -0.2477  0.3034
11434TIP3    H155717   5.607   0.840   2.642  1.3575  0.8765  0.2362
11434TIP3    H255718   5.609   0.991   2.636 -2.3251  0.9911 -0.6020
11435TIP3   OH255719   0.220   5.455   1.444  0.5508  0.1021 -0.5862
11435TIP3    H155720   0.173   5.378   1.413  0.9777 -1.0616  1.4598
11435TIP3    H255721   0.191   5.525   1.386 -1.4471 -1.1517 -1.2353
11436TIP3   OH255722   5.255   1.914   4.229 -0.4782  0.3362 -0.3381
11436TIP3    H155723   5.290   1.988   4.179  0.7375 -0.3720 -0.5964
11436TIP3    H255724   5.238   1.847   4.163 -0.6269  0.0418 -0.0025
11437TIP3   OH255725   2.034   2.437   1.005 -0.2760  0.7242  0.2134
11437TIP3    H155726   2.102   2.405   1.065  0.3401  1.0105 -0.3284
11437TIP3    H255727   1.985   2.358   0.982 -0.4503  0.5939  1.0074
11438TIP3   OH255728   5.285   6.645   6.266  0.2373 -0.5663  0.2385
11438TIP3    H155729   5.214   6.583   6.285 -2.2710  2.0401  0.0002
11438TIP3    H255730   5.309   6.681   6.351  0.1466 -0.3043  0.1538
11439TIP3   OH255731   1.570   4.884   3.116 -0.0014 -0.1479 -0.6202
11439TIP3    H155732   1.550   4.797   3.082  1.1174 -0.6189 -0.1495
11439TIP3    H255733   1.595   4.935   3.039 -0.8624 -0.1818 -0.9244
11440TIP3   OH255734   1.274   4.420   2.982  0.2111 -0.2878  0.5109
11440TIP3    H155735   1.304   4.498   3.029 -2.1287  0.7990  0.3330
11440TIP3    H255736   1.240   4.454   2.899  0.6679 -1.7180 -0.2854
11441TIP3   OH255737   0.090   3.112   1.598  0.1288 -0.4539  0.1924
11441TIP3    H155738   0.125   3.199   1.581 -0.6420 -0.1934 -0.0867
11441TIP3    H255739   0.130   3.056   1.531  1.0666 -0.4442  0.7214
11442TIP3   OH255740   1.294   2.346  17.159  0.2851  0.1010  0.2852
11442TIP3    H155741   1.207   2.318  17.186 -0.2789  1.3756 -0.1285
11442TIP3    H255742   1.288   2.441  17.153  1.6993  0.2105  0.2048
11443TIP3   OH255743   5.790   4.670  12.623  0.1753 -0.5218  0.2653
11443TIP3    H155744   5.840   4.611  12.680 -0.6131  1.1994  2.9634
11443TIP3    H255745   5.706   4.626  12.609 -1.0009  0.4138  3.5119
11444TIP3   OH255746   2.050   4.018   2.041  0.1459  0.0781  0.5261
11444TIP3    H155747   2.026   3.986   2.128 -0.0506 -5.1253 -1.1259
11444TIP3    H255748   1.967   4.033   1.997  0.2303  0.7008  0.5678
11445TIP3   OH255749   4.687   3.583  16.219  0.3078  0.1377  0.2017
11445TIP3    H155750   4.648   3.657  16.265 -0.7546 -0.3744  0.1701
11445TIP3    H255751   4.778   3.580  16.248 -0.4089 -0.4063  2.6022
11446TIP3   OH255752   6.390   0.998  15.744 -0.4956 -0.2615  0.3823
11446TIP3    H155753   6.439   0.928  15.786 -0.5766 -1.2259 -1.0633
11446TIP3    H255754   6.318   1.016  15.805  0.4916 -0.2211  1.5717
11447TIP3   OH255755   5.363   3.506  12.918  0.0590  0.0741 -0.1147
11447TIP3    H155756   5.351   3.588  12.871  0.7171 -1.0112 -2.2675
11447TIP3    H255757   5.275   3.482  12.948 -0.1025  1.6466  0.8018
11448TIP3   OH255758   6.313   3.724  14.392  0.5511  0.2874  0.3702
11448TIP3    H155759   6.286   3.634  14.412  2.8587 -0.8209 -1.1206
11448TIP3    H255760   6.393   3.737  14.442 -0.5090  2.1479  1.7470
11449TIP3   OH255761   4.428   0.145   5.362 -0.5301  0.0871 -0.2494
11449TIP3    H155762   4.398   0.234   5.344  0.9945  0.8707  0.8005
11449TIP3    H255763   4.426   0.102   5.277 -0.5040  1.3876 -0.9434
11450TIP3   OH255764   3.323   6.254  14.025  0.4350  0.1314  0.1606
11450TIP3    H155765   3.349   6.285  14.111 -3.9018 -1.3040  2.3042
11450TIP3    H255766   3.260   6.320  13.994  0.8966 -0.0720 -1.2734
11451TIP3   OH255767   1.386   1.316  14.581 -0.2187  0.5768 -0.5115
11451TIP3    H155768   1.369   1.298  14.489 -1.6247  1.4328 -0.4594
11451TIP3    H255769   1.337   1.397  14.599  3.3108  2.8439 -0.0380
11452TIP3   OH255770   1.155   1.001  16.068 -0.0977  0.4153 -0.6410
11452TIP3    H155771   1.085   1.061  16.042  0.9841  2.2487  0.4916
11452TIP3    H255772   1.114   0.944  16.134 -0.4970  1.6078  0.1750
11453TIP3   OH255773   5.021   6.576  17.012  0.1257  0.0443  0.2667
11453TIP3    H155774   5.004   6.488  17.044  0.1157  0.7878  2.4270
11453TIP3    H255775   5.101   6.568  16.961  0.4996 -1.0976  1.0058
11454TIP3   OH255776   2.463   6.644  12.350  0.1278  0.3257 -0.5308
11454TIP3    H155777   2.556   6.621  12.349 -0.5933 -3.1381 -0.3513
11454TIP3    H255778   2.447   6.675  12.439  0.5556 -2.1077  0.4706
11455TIP3   OH255779   0.398   1.399   3.686 -0.3728  0.1542 -0.2402
11455TIP3    H155780   0.312   1.357   3.688 -0.4900  0.3542 -0.8250
11455TIP3    H255781   0.405   1.444   3.770  0.2172 -1.9160  0.8909
11456TIP3   OH255782   5.962   2.126   5.667 -0.3780  0.5822  0.3125
11456TIP3    H155783   5.964   2.221   5.672  1.6897  0.6129 -0.0645
11456TIP3    H255784   5.940   2.098   5.755  0.7947  1.4223  0.9032
11457TIP3   OH255785   3.193   3.148   5.067 -0.0485 -0.3555  0.1672
11457TIP3    H155786   3.191   3.209   4.993  0.3410 -0.2497  0.2424
11457TIP3    H255787   3.200   3.205   5.144 -0.6502 -0.4562  0.2976
11458TIP3   OH255788   1.606   3.396   5.004  0.0776 -0.6665  0.6396
11458TIP3    H155789   1.624   3.302   5.014 -1.3992 -1.0652 -0.1798
11458TIP3    H255790   1.600   3.409   4.910 -2.0573 -0.2630  0.7695
11459TIP3   OH255791   6.019   2.671   5.392  0.6520  0.1110  0.0406
11459TIP3    H155792   5.964   2.596   5.370  0.5407  0.2062 -0.0029
11459TIP3    H255793   5.959   2.745   5.398  0.3199 -0.2789  2.8204
11460TIP3   OH255794   5.626   2.938   0.849  0.0447  0.5985  0.1062
11460TIP3    H155795   5.700   2.889   0.814  1.3317  1.4122  1.5276
11460TIP3    H255796   5.568   2.872   0.887  2.0307  0.0748  2.5136
11461TIP3   OH255797   1.205   0.330  16.084  0.1009 -0.7089  0.3417
11461TIP3    H155798   1.285   0.369  16.119 -1.1159  0.6627  1.7691
11461TIP3    H255799   1.229   0.241  16.061  2.0605 -0.2850  0.6033
11462TIP3   OH255800   2.907   5.557  11.988  0.1089  0.0606 -0.2523
11462TIP3    H155801   2.845   5.485  11.975 -0.9154  0.2598  2.7706
11462TIP3    H255802   2.853   5.630  12.020  1.7247  0.5056  1.6854
11463TIP3   OH255803   0.919   2.931   2.991  0.6567 -0.5894 -0.2669
11463TIP3    H155804   0.864   2.888   2.925 -2.1277  0.7199  1.0318
11463TIP3    H255805   0.935   3.018   2.955  0.0188 -0.2302  0.3032
11464TIP3   OH255806   1.179   6.389  15.440 -0.0745 -0.3941  0.3197
11464TIP3    H155807   1.224   6.428  15.515  1.3506 -2.3030  0.5538
11464TIP3    H255808   1.219   6.430  15.363  0.4933 -0.4554  0.5764
11465TIP3   OH255809   4.608   3.999  15.654  0.2426  0.1139  0.0248
11465TIP3    H155810   4.690   3.949  15.660  0.0785 -0.2423 -0.5416
11465TIP3    H255811   4.635   4.090  15.649  0.7977 -0.1038 -2.8328
11466TIP3   OH255812   2.586   2.109   0.455 -0.2296  0.4265  0.1961
11466TIP3    H155813   2.570   2.192   0.500  0.3176  0.5094  0.2402
11466TIP3    H255814   2.507   2.058   0.472 -1.4789  1.6769 -1.5287
11467TIP3   OH255815   2.615   4.110  14.837 -0.4137 -0.1807 -0.1604
11467TIP3    H155816   2.577   4.153  14.760  0.5195  0.3864 -0.3257
11467TIP3    H255817   2.695   4.159  14.854 -0.5679 -0.3554  1.1374
11468TIP3   OH255818   4.428   1.996   2.629 -0.1660 -0.5282 -0.1180
11468TIP3    H155819   4.439   1.917   2.681 -0.4855 -0.8961 -0.5955
11468TIP3    H255820   4.455   1.971   2.541 -1.6086 -0.5320 -0.5951
11469TIP3   OH255821   3.166   1.041  14.856 -0.5055 -0.0379 -0.0038
11469TIP3    H155822   3.129   0.969  14.805 -1.0288 -1.0013  1.6584
11469TIP3    H255823   3.256   1.013  14.874 -0.4653  0.0884 -0.0084
11470TIP3   OH255824   3.789   0.460   6.384  0.2215 -0.2873 -0.0825
11470TIP3    H155825   3.857   0.511   6.340  0.3549  0.2126  0.6865
11470TIP3    H255826   3.818   0.369   6.376 -0.5309 -0.3945 -2.3693
11471TIP3   OH255827   2.442   5.038  12.293  0.3038 -0.1162 -0.1407
11471TIP3    H155828   2.532   5.011  12.312 -0.1420 -1.6110 -0.0198
11471TIP3    H255829   2.391   4.957  12.301 -1.2470  0.9335  1.0571
11472TIP3   OH255830   2.056   1.278   2.168  0.2413 -0.1559  0.0698
11472TIP3    H155831   2.087   1.290   2.258 -1.9581  0.3194  0.8246
11472TIP3    H255832   2.090   1.355   2.121 -1.0803  1.2445  1.2699
11473TIP3   OH255833   0.996   1.195  13.146  0.0329 -0.4840 -0.0520
11473TIP3    H155834   1.000   1.199  13.050 -1.5018 -0.7831 -0.1469
11473TIP3    H255835   1.022   1.105  13.167 -1.1688 -0.9198 -0.3199
11474TIP3   OH255836   6.069   1.615   2.505 -0.6794  0.1369 -0.3763
11474TIP3    H155837   6.087   1.538   2.452  0.7529  0.5335 -0.5039
11474TIP3    H255838   6.068   1.687   2.442 -0.7231  0.3865 -0.0911
11475TIP3   OH255839   0.854   4.823  15.233  0.2502  0.3509 -0.2614
11475TIP3    H155840   0.924   4.881  15.262  1.4653 -2.6102  3.4287
11475TIP3    H255841   0.775   4.860  15.273  0.3068  1.3949 -1.0389
11476TIP3   OH255842   2.875   4.586  14.301  0.2813  0.1393 -0.5607
11476TIP3    H155843   2.836   4.533  14.231 -1.5913 -0.3887  0.7816
11476TIP3    H255844   2.804   4.596  14.365  2.2870 -0.5797  1.9194
11477TIP3   OH255845   4.741   2.329   5.426 -1.2861  0.2903 -0.6248
11477TIP3    H155846   4.684   2.325   5.503 -1.4326 -0.9144 -0.7794
11477TIP3    H255847   4.697   2.274   5.361 -0.7422  0.6239 -1.2927
11478TIP3   OH255848   5.445   2.533   3.406  0.8941  0.4409 -0.2157
11478TIP3    H155849   5.376   2.477   3.439  1.0575  1.2652  1.6398
11478TIP3    H255850   5.401   2.592   3.344 -0.3185  1.5733  1.6238
11479TIP3   OH255851   5.777   0.384   6.237  0.3166  0.7998 -0.0343
11479TIP3    H155852   5.814   0.453   6.291  1.5526  0.9890 -1.0790
11479TIP3    H255853   5.693   0.419   6.207  0.3842  1.3518  0.4125
11480TIP3   OH255854   1.002   6.653   2.385  0.2201 -0.2786  0.3081
11480TIP3    H155855   0.958   6.569   2.397 -0.8781  0.2732  0.3247
11480TIP3    H255856   1.086   6.644   2.430 -0.5764 -0.8151  1.7570
11481TIP3   OH255857   4.487   4.354  16.945  0.2743 -0.0927 -0.2415
11481TIP3    H155858   4.503   4.375  16.853 -0.1065  0.4158 -0.1972
11481TIP3    H255859   4.414   4.410  16.969  0.0985 -0.5320  0.2588
11482TIP3   OH255860   6.097   0.139  16.244  0.1679  0.4218 -0.0939
11482TIP3    H155861   6.158   0.203  16.280  0.9308 -0.3201 -0.0548
11482TIP3    H255862   6.116   0.137  16.150  0.1415  0.2624 -0.0972
11483TIP3   OH255863   4.933   6.759  12.817  0.4467 -0.2725  0.3385
11483TIP3    H155864   4.865   6.826  12.824  1.5292  0.8471  0.5112
11483TIP3    H255865   5.015   6.807  12.825  1.2660 -1.6325  0.4604
11484TIP3   OH255866   4.308   2.480   1.033  0.6297 -0.2824  0.0300
11484TIP3    H155867   4.257   2.425   0.973  0.2193 -0.0140  0.1288
11484TIP3    H255868   4.334   2.421   1.104  0.6390 -0.4715 -0.1311
11485TIP3   OH255869   0.280   3.411  13.562 -0.1992 -0.0796  0.2809
11485TIP3    H155870   0.191   3.406  13.595 -0.6893 -2.6962 -1.1725
11485TIP3    H255871   0.331   3.359  13.623 -0.1803 -0.7577 -0.2996
11486TIP3   OH255872   3.574   2.237  16.717  0.2348 -0.0925  0.2726
11486TIP3    H155873   3.507   2.217  16.651 -0.2887  2.7491 -0.1640
11486TIP3    H255874   3.633   2.298  16.674  0.5776  0.8992  2.0457
11487TIP3   OH255875   2.676   2.101   4.524  0.3674  0.5848 -0.5273
11487TIP3    H155876   2.749   2.039   4.519  0.9788  1.3620 -3.3076
11487TIP3    H255877   2.719   2.187   4.527 -0.4462  0.9809 -0.0263
11488TIP3   OH255878   5.598   2.471   1.636  0.2462  0.2524  0.5380
11488TIP3    H155879   5.524   2.497   1.581  1.8690 -0.4765 -2.1802
11488TIP3    H255880   5.660   2.543   1.628  0.2566  0.4438  2.0479
11489TIP3   OH255881   0.034   4.584  12.913  0.0020  0.6442  0.7029
11489TIP3    H155882   0.104   4.634  12.955  1.2248 -0.9759  0.7132
11489TIP3    H255883   0.057   4.584  12.820  1.4520 -1.8585  0.9544
11490TIP3   OH255884   1.617   6.491  13.519 -0.8945  0.3288  0.0035
11490TIP3    H155885   1.584   6.403  13.532 -1.7176  0.9092  2.4414
11490TIP3    H255886   1.712   6.483  13.531 -1.0984 -0.0654  1.6255
11491TIP3   OH255887   1.248   3.348  16.837 -0.0780 -0.2994 -0.2659
11491TIP3    H155888   1.170   3.336  16.783 -0.7689 -0.0383  0.6357
11491TIP3    H255889   1.292   3.424  16.800 -0.4462 -0.2312 -0.5648
11492TIP3   OH255890   1.589   0.233   0.660 -0.1063 -0.0656  0.0533
11492TIP3    H155891   1.671   0.232   0.708 -0.5453 -0.5153  0.8161
11492TIP3    H255892   1.551   0.146   0.673  0.9452 -1.1789 -3.2741
11493TIP3   OH255893   6.494   5.892  16.489  0.5751 -0.1273 -0.2871
11493TIP3    H155894   6.404   5.862  16.506  0.9657 -0.3175  1.6645
11493TIP3    H255895   6.485   5.986  16.475  0.2454  0.2097  1.8959
11494TIP3   OH255896   0.378   4.279  16.868 -0.0181  0.0575 -0.1062
11494TIP3    H155897   0.373   4.206  16.930  1.6594 -1.1078 -1.2244
11494TIP3    H255898   0.413   4.351  16.919 -1.2902 -0.0355  0.9279
11495TIP3   OH255899   3.530   3.382   2.486 -0.2854  0.5003  0.0953
11495TIP3    H155900   3.557   3.403   2.397  1.0490 -0.5801  0.2187
11495TIP3    H255901   3.584   3.437   2.542  0.2006 -0.1529  0.2814
11496TIP3   OH255902   5.862   6.699  15.876  0.4207  0.4170  0.5163
11496TIP3    H155903   5.948   6.664  15.856  0.3792 -0.8615  2.3638
11496TIP3    H255904   5.813   6.625  15.911 -1.2579  1.2567  0.0436
11497TIP3   OH255905   6.703   6.337   4.738  0.0325  0.7791 -0.0121
11497TIP3    H155906   6.730   6.265   4.681 -1.0170 -0.7938  1.3674
11497TIP3    H255907   6.718   6.303   4.827 -1.5230  1.8347  0.6958
11498TIP3   OH255908   0.162   5.050   0.955  0.1288 -0.0404 -0.2376
11498TIP3    H155909   0.088   5.043   0.895 -0.2396 -0.4727  0.2582
11498TIP3    H255910   0.168   5.144   0.974 -1.5462 -0.1730  1.2379
11499TIP3   OH255911   4.875   5.717  16.078 -0.0888 -0.1667 -0.1589
11499TIP3    H155912   4.835   5.769  16.008 -0.5518  0.9531  0.8760
11499TIP3    H255913   4.846   5.761  16.159  2.0523 -0.1874  0.6847
11500TIP3   OH255914   6.391   2.655  14.734  0.4676  0.3854 -0.0744
11500TIP3    H155915   6.358   2.613  14.814  0.5992  1.9429  0.8331
11500TIP3    H255916   6.453   2.591  14.697  0.4986 -0.3123  1.1357
11501TIP3   OH255917   5.224   5.903   5.982  0.3109  0.4976  0.3684
11501TIP3    H155918   5.318   5.895   5.998  0.2800 -2.1192 -0.3173
11501TIP3    H255919   5.186   5.911   6.069  1.0000 -1.2890  0.8810
11502TIP3   OH255920   1.372   5.405   1.194 -0.1279  0.0332 -0.0401
11502TIP3    H155921   1.390   5.483   1.142 -2.0990  0.8321  0.3917
11502TIP3    H255922   1.428   5.414   1.271  0.4095  0.4871 -0.4760
11503TIP3   OH255923   0.398   3.227   6.147 -0.2618  0.0517 -0.4741
11503TIP3    H155924   0.366   3.198   6.232 -1.0450  1.1278 -0.3874
11503TIP3    H255925   0.389   3.322   6.148  4.1182  0.6647  0.0278
11504TIP3   OH255926   2.589   3.908  15.019  0.7002 -0.3200  0.5114
11504TIP3    H155927   2.590   3.825  14.971  1.3242 -0.8822  1.4617
11504TIP3    H255928   2.563   3.973  14.954  0.0292 -1.2809 -0.2130
11505TIP3   OH255929   1.333   6.611   5.476 -0.4881  0.5494  0.6240
11505TIP3    H155930   1.399   6.680   5.466 -0.8189  0.6418 -1.2613
11505TIP3    H255931   1.264   6.636   5.415 -1.9680  0.0755  2.0534
11506TIP3   OH255932   0.187   3.821  16.212  0.3541  0.0334  0.3382
11506TIP3    H155933   0.176   3.754  16.279  0.3969 -0.0078  0.3028
11506TIP3    H255934   0.219   3.774  16.135 -0.3018 -0.0222  0.0909
11507TIP3   OH255935   4.773   4.033   2.838 -0.5352  0.0032  0.5970
11507TIP3    H155936   4.840   4.024   2.905  0.4062 -1.5471 -0.4818
11507TIP3    H255937   4.734   4.119   2.854 -0.1280 -0.1828  2.8960
11508TIP3   OH255938   2.858   6.617   3.786  0.3780 -0.3842 -0.1152
11508TIP3    H155939   2.863   6.586   3.876 -1.4313  1.1351  0.5585
11508TIP3    H255940   2.946   6.599   3.750  0.5131 -2.9275  1.2427
11509TIP3   OH255941   0.964   3.732  15.730  0.1659  0.3880 -0.5746
11509TIP3    H155942   1.049   3.776  15.737 -0.2706  1.1865 -0.1137
11509TIP3    H255943   0.929   3.734  15.819 -0.3881  0.1675 -0.7854
11510TIP3   OH255944   3.203   1.703   4.137  0.1264 -0.3077  0.0318
11510TIP3    H155945   3.267   1.633   4.150  0.4686 -0.3062 -1.4749
11510TIP3    H255946   3.126   1.659   4.100  0.5147  0.1398 -1.3709
11511TIP3   OH255947   1.110   4.619   4.193  0.1002 -0.3086  0.6811
11511TIP3    H155948   1.135   4.711   4.186 -0.2058 -0.2843 -0.1559
11511TIP3    H255949   1.041   4.618   4.260  0.5669 -0.0317  1.1764
11512TIP3   OH255950   5.699   5.685  12.313 -0.2106  0.2129  0.0377
11512TIP3    H155951   5.637   5.717  12.378  2.1786  1.2903  1.9846
11512TIP3    H255952   5.699   5.590  12.324 -2.2931  0.0527 -0.8714
11513TIP3   OH255953   2.628   5.794  13.877 -0.4963  0.7894  0.5110
11513TIP3    H155954   2.576   5.867  13.909 -0.5575  0.5903  0.8608
11513TIP3    H255955   2.593   5.777  13.789 -0.2086  1.4464  0.2602
11514TIP3   OH255956   0.444   1.449  12.723 -0.1342  0.2109 -0.0194
11514TIP3    H155957   0.366   1.443  12.667 -1.2802  0.9287  1.4125
11514TIP3    H255958   0.441   1.370  12.776  0.2449  0.1373 -0.1046
11515TIP3   OH255959   0.674   1.037  10.905 -0.7303 -0.5687  0.2225
11515TIP3    H155960   0.603   1.045  10.842  1.2963 -0.3251 -2.2029
11515TIP3    H255961   0.718   0.955  10.882  0.0597 -0.4851  1.3419
11516TIP3   OH255962   2.404   1.542   3.134  0.1755  0.5557  0.1988
11516TIP3    H155963   2.313   1.541   3.102 -0.1389 -0.4549  1.0805
11516TIP3    H255964   2.423   1.635   3.148 -0.6694  0.7907 -0.1308
11517TIP3   OH255965   6.384   4.564  12.715  0.2320  0.4369  0.4117
11517TIP3    H155966   6.327   4.492  12.689 -0.6734  1.6241 -1.0039
11517TIP3    H255967   6.361   4.581  12.806 -0.2170 -0.4239  0.4683
11518TIP3   OH255968   6.205   6.617   0.894  0.8258 -0.1379 -0.1722
11518TIP3    H155969   6.143   6.651   0.958  1.3248 -0.5573  0.5476
11518TIP3    H255970   6.258   6.692   0.869 -0.1608  0.2944 -1.0290
11519TIP3   OH255971   0.562   5.179  10.604 -0.1422 -0.4296 -0.1630
11519TIP3    H155972   0.637   5.139  10.559  1.3152 -1.8361  3.1509
11519TIP3    H255973   0.514   5.105  10.641 -0.9786  0.6074  0.9092
11520TIP3   OH255974   4.442   4.275  16.560 -0.9219 -0.0223 -0.2283
11520TIP3    H155975   4.467   4.183  16.571  0.6793  0.5678  1.5259
11520TIP3    H255976   4.523   4.319  16.536 -0.8955  1.4194  2.2015
11521TIP3   OH255977   1.283   4.774  15.213 -0.7861  0.1138  0.2717
11521TIP3    H155978   1.296   4.731  15.128 -0.0132 -0.0567  0.4712
11521TIP3    H255979   1.300   4.705  15.277 -0.5300  0.4655  0.5830
11522TIP3   OH255980   3.571   3.192  11.459  0.1521 -0.2319 -0.0643
11522TIP3    H155981   3.549   3.207  11.367 -0.1738 -1.1149 -0.1445
11522TIP3    H255982   3.666   3.207  11.464  0.5289 -2.0256 -0.9700
11523TIP3   OH255983   2.214   2.586  14.189 -0.0206  0.2202 -0.2448
11523TIP3    H155984   2.262   2.668  14.202  0.3224 -0.2648  2.0656
11523TIP3    H255985   2.279   2.518  14.207 -0.1650 -0.6512 -2.6096
11524TIP3   OH255986   5.499   1.768  10.859 -0.2685 -0.0946  0.2181
11524TIP3    H155987   5.456   1.803  10.781 -1.2840  1.6042  1.4601
11524TIP3    H255988   5.590   1.757  10.833 -0.3017  1.7200 -0.8541
11525TIP3   OH255989   1.284   6.657   6.467 -0.0591  0.3706 -0.0753
11525TIP3    H155990   1.335   6.602   6.526  0.4285  0.6064 -0.2680
11525TIP3    H255991   1.274   6.604   6.388  0.0198  0.3819 -0.0930
11526TIP3   OH255992   5.578   6.331  13.115 -0.1658 -0.6389  0.8782
11526TIP3    H155993   5.540   6.392  13.051 -0.0160 -1.8068 -0.3560
11526TIP3    H255994   5.672   6.339  13.102 -0.1305 -0.7553  1.0684
11527TIP3   OH255995   4.702   6.007  11.868 -0.0523 -0.1201 -0.5424
11527TIP3    H155996   4.680   5.941  11.934 -1.2433  1.7426  1.0312
11527TIP3    H255997   4.638   6.077  11.881 -0.7982  0.0990 -4.1724
11528TIP3   OH255998   5.164   1.494   2.590  0.6125 -0.4016  0.0950
11528TIP3    H155999   5.190   1.403   2.578  1.7410 -0.0010 -0.7274
11528TIP3    H256000   5.134   1.499   2.681  0.4161 -1.6054  0.1093
11529TIP3   OH256001   2.675   0.894  16.437 -0.2862  0.0897 -0.5522
11529TIP3    H156002   2.589   0.906  16.477  0.1466 -0.4637  0.5927
11529TIP3    H256003   2.685   0.799  16.429  0.6858  0.0955  0.4103
11530TIP3   OH256004   3.000   6.410   2.535  0.2032 -0.0152 -0.1038
11530TIP3    H156005   2.997   6.484   2.475  0.5506 -0.3417 -0.5338
11530TIP3    H256006   2.910   6.378   2.538  0.2194 -0.1098 -0.5941
11531TIP3   OH256007   0.498   5.911  13.051 -0.6286 -0.3219  0.5171
11531TIP3    H156008   0.575   5.951  13.091  1.0418 -1.8939 -0.9334
11531TIP3    H256009   0.457   5.981  13.001  0.2858  0.3746  0.7249
11532TIP3   OH256010   0.145   2.939   2.680  0.6729  0.0244 -0.4022
11532TIP3    H156011   0.150   2.856   2.726  0.3692 -1.0655 -2.2228
11532TIP3    H256012   0.055   2.970   2.696  1.3437  0.9804  1.7972
11533TIP3   OH256013   6.699   4.894   5.164 -0.0469 -0.1375 -0.4682
11533TIP3    H156014   6.781   4.896   5.214 -0.3069 -0.4759 -0.0201
11533TIP3    H256015   6.701   4.974   5.112  0.7693 -0.3501 -0.7866
11534TIP3   OH256016   0.979   5.976   2.782  0.1185  0.2634 -0.3787
11534TIP3    H156017   1.031   5.896   2.786  0.4718  0.5293  1.8437
11534TIP3    H256018   0.924   5.973   2.861 -0.2598  1.9296 -0.5313
11535TIP3   OH256019   0.307   3.337  12.385 -0.3983  0.1311  0.0468
11535TIP3    H156020   0.339   3.259  12.431  0.8600  0.1137 -0.7963
11535TIP3    H256021   0.376   3.403  12.398 -0.2635  0.2909 -1.3155
11536TIP3   OH256022   1.925   0.851  16.191  0.1169 -0.4000 -0.0983
11536TIP3    H156023   1.923   0.809  16.104 -0.2175  0.9263 -0.7637
11536TIP3    H256024   1.950   0.942  16.173 -1.6240  0.3477  0.9810
11537TIP3   OH256025   4.876   6.495   1.805  0.5828 -0.4919  0.8296
11537TIP3    H156026   4.876   6.580   1.849  0.6146  1.3909 -2.4283
11537TIP3    H256027   4.957   6.494   1.754 -0.1012 -1.7983 -0.3134
11538TIP3   OH256028   0.572   0.861  16.837  0.1892 -0.0831  0.4619
11538TIP3    H156029   0.551   0.930  16.774 -1.2244 -0.6469  0.2616
11538TIP3    H256030   0.662   0.836  16.816  0.1541  0.5676 -0.5459
11539TIP3   OH256031   6.358   4.537   6.183  0.2998 -0.0712 -0.1661
11539TIP3    H156032   6.277   4.578   6.153 -0.9678 -1.1459  1.5844
11539TIP3    H256033   6.422   4.609   6.185 -1.2672  1.3690  0.7233
11540TIP3   OH256034   2.741   1.195   1.056  0.1541  0.4727 -0.8606
11540TIP3    H156035   2.827   1.223   1.087 -0.8514  0.1806  2.7412
11540TIP3    H256036   2.748   1.100   1.048  0.0823  0.3762  0.0268
11541TIP3   OH256037   3.532   4.271   1.273 -0.0382  0.3306 -0.2606
11541TIP3    H156038   3.545   4.222   1.191  0.7515 -1.3698  0.8219
11541TIP3    H256039   3.460   4.226   1.316 -0.9734  1.7042 -0.3313
11542TIP3   OH256040   2.397   4.215  10.866  0.0384  0.7349 -0.2478
11542TIP3    H156041   2.406   4.275  10.791 -0.8808 -0.7581 -1.6364
11542TIP3    H256042   2.348   4.141  10.830  0.2131 -0.3632  1.6880
11543TIP3   OH256043   3.915   0.895  11.715 -0.3676 -0.0932  0.1998
11543TIP3    H156044   3.960   0.929  11.638 -1.3035  0.7212 -0.0187
11543TIP3    H256045   3.852   0.832  11.681  0.2005 -0.8004  0.4444
11544TIP3   OH256046   1.478   5.081  12.300  0.1470 -0.1812  0.4921
11544TIP3    H156047   1.512   5.080  12.210  0.0200 -1.6125  0.4484
11544TIP3    H256048   1.464   5.174  12.318 -2.1089  0.0707 -1.8539
11545TIP3   OH256049   5.013   0.031   3.612  0.2865 -0.2460 -0.4507
11545TIP3    H156050   5.058   0.111   3.584 -1.6173  1.0140 -0.0480
11545TIP3    H256051   5.066  -0.002   3.684  0.5720  1.2033  0.0379
11546TIP3   OH256052   6.621   2.343  13.722  0.0888  0.0919 -0.2590
11546TIP3    H156053   6.678   2.269  13.704  1.0481  0.6528  0.4032
11546TIP3    H256054   6.598   2.377  13.635  1.2518  0.2194 -0.5297
11547TIP3   OH256055   4.367   5.843   0.043 -0.2975  0.0578 -1.0318
11547TIP3    H156056   4.317   5.912   0.088  0.5362  0.2710 -0.4000
11547TIP3    H256057   4.445   5.831   0.098 -0.4158 -1.3767 -1.1452
11548TIP3   OH256058   6.270   2.294   1.594  0.2341 -0.0530 -0.5639
11548TIP3    H156059   6.192   2.262   1.639  0.6752  1.1230  1.1184
11548TIP3    H256060   6.236   2.342   1.518 -0.6789  0.5737  0.2321
11549TIP3   OH256061   6.589   4.009  13.620  0.0438 -0.5205 -0.7852
11549TIP3    H156062   6.625   3.921  13.611  0.8659 -0.1273 -1.4999
11549TIP3    H256063   6.626   4.041  13.703 -0.7810 -1.0712 -0.1897
11550TIP3   OH256064   5.223   5.677   1.735 -1.5247 -0.1276  0.1212
11550TIP3    H156065   5.254   5.685   1.644 -0.7507 -1.7674  0.2096
11550TIP3    H256066   5.178   5.760   1.752 -1.1304  0.4711 -1.5464
11551TIP3   OH256067   2.792   2.360   3.107  0.3341 -0.6959  0.0278
11551TIP3    H156068   2.766   2.440   3.063  0.5212 -0.6230  0.0482
11551TIP3    H256069   2.716   2.302   3.100  0.4992 -0.8397 -0.7677
11552TIP3   OH256070   3.264   3.666   4.336  0.3084  0.2535  0.8396
11552TIP3    H156071   3.228   3.710   4.413 -1.9772 -1.9292  1.1607
11552TIP3    H256072   3.198   3.678   4.268  1.0265 -0.1327  0.0503
11553TIP3   OH256073   5.843   2.779   3.620  0.4256 -0.2799 -0.2185
11553TIP3    H156074   5.755   2.741   3.617  0.8390 -1.3844  0.9356
11553TIP3    H256075   5.843   2.833   3.699  0.3581  0.8846 -0.9857
11554TIP3   OH256076   5.756   6.476   4.785 -0.1529 -0.1497 -0.1558
11554TIP3    H156077   5.808   6.548   4.748 -1.3600  1.3542  0.9571
11554TIP3    H256078   5.685   6.462   4.723 -0.4107  0.2314  0.0504
11555TIP3   OH256079   0.246   3.123  11.719  0.1444  0.3808 -0.3815
11555TIP3    H156080   0.196   3.125  11.801  1.9859 -1.5603  0.8837
11555TIP3    H256081   0.215   3.044  11.674  3.0576 -1.8494  1.2194
11556TIP3   OH256082   2.149   5.134   0.858  0.0697 -0.7532 -0.2682
11556TIP3    H156083   2.071   5.172   0.899  0.6322 -0.5030  0.6045
11556TIP3    H256084   2.122   5.046   0.832 -0.2295 -1.0511  0.9632
11557TIP3   OH256085   4.056   3.591  15.093  0.0887  0.3871 -0.6060
11557TIP3    H156086   4.116   3.597  15.019 -1.4667 -1.5620 -2.1480
11557TIP3    H256087   4.107   3.621  15.168  1.9865  1.6686 -2.3033
11558TIP3   OH256088   2.777   1.820  12.628  0.6008  0.2369 -0.0853
11558TIP3    H156089   2.753   1.742  12.679  0.5546 -0.7102 -1.4892
11558TIP3    H256090   2.707   1.883  12.646  0.2041 -0.3495  0.4482
11559TIP3   OH256091   0.622   6.775  17.198  0.1633  0.0968 -0.3086
11559TIP3    H156092   0.585   6.762  17.285 -0.9107  0.5190 -0.6843
11559TIP3    H256093   0.545   6.785  17.141  0.7892 -1.6335 -1.5417
11560TIP3   OH256094   1.384   0.828   5.512  0.4527 -0.0060  0.1343
11560TIP3    H156095   1.354   0.799   5.426 -0.1252 -0.7251  0.5636
11560TIP3    H256096   1.374   0.751   5.568 -0.6760  0.8826  1.2119
11561TIP3   OH256097   4.189   6.361  13.618  0.3301  0.1561  0.2434
11561TIP3    H156098   4.226   6.310  13.546  1.8767  1.6985 -0.1163
11561TIP3    H256099   4.095   6.344  13.614  0.3829  0.0841 -2.0478
11562TIP3   OH256100   6.499   5.168  13.976  0.3647  0.2472  0.3469
11562TIP3    H156101   6.546   5.127  13.903  0.3793 -1.1222  1.0912
11562TIP3    H256102   6.438   5.229  13.935  0.7703 -0.0800 -0.7717
11563TIP3   OH256103   0.831   6.718  11.603  0.1933 -0.9162 -0.1772
11563TIP3    H156104   0.889   6.667  11.546  0.2963 -1.0734  0.0667
11563TIP3    H256105   0.890   6.772  11.655  0.1579 -1.5460  0.5271
11564TIP3   OH256106   1.707   1.183  15.522 -0.5717 -0.3270 -0.5609
11564TIP3    H156107   1.704   1.096  15.481 -0.2793 -0.2674 -0.7072
11564TIP3    H256108   1.793   1.217  15.500 -1.4865  0.9374 -2.4206
11565TIP3   OH256109   0.028   2.383  10.387  0.0677  0.3574 -0.0099
11565TIP3    H156110   0.067   2.397  10.300  0.0809  1.5500  0.1740
11565TIP3    H256111  -0.066   2.383  10.371  0.0821 -1.5027 -0.3047
11566TIP3   OH256112   1.233   3.472  13.684 -0.1155  0.3177  0.3082
11566TIP3    H156113   1.272   3.468  13.771  0.3069 -2.1352  0.0630
11566TIP3    H256114   1.286   3.413  13.631 -0.7591  1.2683 -1.4811
11567TIP3   OH256115   3.974   1.120  15.369  0.3818  0.4689  0.0322
11567TIP3    H156116   3.955   1.205  15.329 -2.8791  0.3313  0.9726
11567TIP3    H256117   3.947   1.056  15.303  1.2820  0.1657 -0.0491
11568TIP3   OH256118   4.807   5.674  14.436  0.1139  0.4258  0.6339
11568TIP3    H156119   4.813   5.584  14.467 -1.4835  1.2622  3.7290
11568TIP3    H256120   4.715   5.687  14.415  0.1207  1.6377  1.2799
11569TIP3   OH256121   1.846   4.684   4.340 -0.2559 -0.3411  0.5096
11569TIP3    H156122   1.822   4.753   4.402  0.3067  0.5528 -0.2272
11569TIP3    H256123   1.892   4.619   4.392  0.0631  0.3093  1.0580
11570TIP3   OH256124   6.060   2.170  14.124 -0.1645 -0.1011  0.0812
11570TIP3    H156125   5.995   2.100  14.126  0.0252 -0.2798 -0.0605
11570TIP3    H256126   6.029   2.229  14.056 -1.5208  1.1079  1.6588
11571TIP3   OH256127   6.073   6.650   3.605 -0.6312  0.2215 -0.2959
11571TIP3    H156128   6.047   6.562   3.633  0.8316 -0.2621 -0.3650
11571TIP3    H256129   6.165   6.657   3.630 -0.8186  1.8847  0.0305
11572TIP3   OH256130   5.976   6.047   1.497 -0.1706  0.0343 -0.0520
11572TIP3    H156131   6.037   6.065   1.426  1.5839 -0.9376  1.1375
11572TIP3    H256132   5.908   5.993   1.457  1.1631 -1.0992 -0.8502
11573TIP3   OH256133   6.575   5.960  14.032  0.0778 -0.2946  0.3880
11573TIP3    H156134   6.586   6.054  14.047  1.5156 -0.1185 -1.4210
11573TIP3    H256135   6.480   5.949  14.023 -0.0565  1.2092 -0.4935
11574TIP3   OH256136   2.897   0.727   0.072  0.1114  0.4975 -0.5198
11574TIP3    H156137   2.815   0.730   0.022  0.4030  1.3538 -0.9729
11574TIP3    H256138   2.908   0.635   0.095  0.2827 -0.0372 -2.5486
11575TIP3   OH256139   5.303   0.750  15.999  0.5008  0.2767 -0.0366
11575TIP3    H156140   5.335   0.830  16.040  1.8790 -0.0983 -0.3310
11575TIP3    H256141   5.299   0.770  15.906 -1.4905  0.7515  0.1209
11576TIP3   OH256142   4.970   6.322  12.722 -0.2541 -0.4889  0.5963
11576TIP3    H156143   4.933   6.233  12.726  1.6231 -1.3897 -0.8385
11576TIP3    H256144   5.057   6.314  12.762  0.4581  0.3960 -0.7166
11577TIP3   OH256145   6.629   0.875  10.403 -0.6136  0.4814 -0.0250
11577TIP3    H156146   6.577   0.839  10.332 -1.0576  1.9316 -0.4687
11577TIP3    H256147   6.718   0.879  10.368 -0.2255 -1.6556  0.6066
11578TIP3   OH256148   1.120   5.863   0.406  0.2771  0.0018  0.8234
11578TIP3    H156149   1.140   5.821   0.490  2.0268 -1.4201 -0.2185
11578TIP3    H256150   1.186   5.932   0.397  1.7147 -1.4407 -0.3994
11579TIP3   OH256151   3.051   2.922  11.651 -0.5556 -0.1749  0.1456
11579TIP3    H156152   3.038   2.864  11.576 -1.4425 -0.6961  0.6863
11579TIP3    H256153   2.976   2.904  11.708  0.6250 -0.5328  1.6319
11580TIP3   OH256154   0.588   1.976   2.855 -0.2337 -0.3372  0.1524
11580TIP3    H156155   0.640   1.924   2.917  0.2639  0.8234  0.7433
11580TIP3    H256156   0.648   2.045   2.825 -0.9907  0.1411 -0.2925
11581TIP3   OH256157   3.946   5.340   4.215 -0.5994  0.0923  0.8744
11581TIP3    H156158   3.975   5.430   4.226 -1.5269  0.4399  0.6180
11581TIP3    H256159   3.990   5.291   4.285  0.8136  0.5176  0.3058
11582TIP3   OH256160   3.992   1.351  11.862  0.0796  0.0408  0.1885
11582TIP3    H156161   4.017   1.294  11.790  0.8883 -0.6156  0.9611
11582TIP3    H256162   3.932   1.298  11.915 -1.8465  1.0905 -0.8557
11583TIP3   OH256163   1.957   5.443   5.256  0.3779 -0.7681  0.4286
11583TIP3    H156164   1.935   5.489   5.337 -1.3740 -2.7291  1.1637
11583TIP3    H256165   1.903   5.485   5.190  0.1597 -0.5842  0.7188
11584TIP3   OH256166   1.767   6.292  12.139 -0.0282 -0.3681  0.4314
11584TIP3    H156167   1.690   6.328  12.183 -1.0640 -0.9527 -0.8174
11584TIP3    H256168   1.739   6.205  12.110  1.3473 -0.8745  0.5692
11585TIP3   OH256169   4.427   5.408  16.634 -0.3618 -0.1952  0.2483
11585TIP3    H156170   4.346   5.442  16.595  0.8896 -0.2032 -2.5789
11585TIP3    H256171   4.490   5.406  16.562  1.7924 -1.5040  2.0259
11586TIP3   OH256172   5.354   0.321  14.340  0.6326  0.0807 -0.1636
11586TIP3    H156173   5.289   0.372  14.388 -1.1679 -0.8963 -1.4685
11586TIP3    H256174   5.376   0.248  14.399  0.8818  0.6371  0.4429
11587TIP3   OH256175   0.435   3.473   4.670  0.1144  0.0506 -0.3146
11587TIP3    H156176   0.509   3.531   4.649 -0.5021  1.5630  1.4822
11587TIP3    H256177   0.470   3.413   4.736 -0.4020  1.2699  1.1286
11588TIP3   OH256178   5.420   2.311   0.255  0.2373 -0.0030  0.3565
11588TIP3    H156179   5.497   2.255   0.248 -0.6216 -1.3112  1.0279
11588TIP3    H256180   5.403   2.339   0.165 -1.3133 -3.6347 -0.6636
11589TIP3   OH256181   3.612   5.677  13.824  0.0479 -0.2065  0.3080
11589TIP3    H156182   3.696   5.719  13.807 -0.4421  0.7547  0.1851
11589TIP3    H256183   3.556   5.749  13.854 -0.3845 -1.0430  1.5973
11590TIP3   OH256184   0.043   2.457  14.683  0.0195 -0.2707 -0.4556
11590TIP3    H156185   0.003   2.533  14.727  0.9620  0.6928 -1.2114
11590TIP3    H256186   0.080   2.405  14.754 -0.8603 -0.1741  0.0970
11591TIP3   OH256187   0.504   6.183   5.843 -0.5247 -0.3640  0.6773
11591TIP3    H156188   0.515   6.246   5.914 -0.5631 -0.0069  0.3716
11591TIP3    H256189   0.591   6.177   5.803 -0.8112  0.4914 -0.1121
11592TIP3   OH256190   2.588   2.848   2.788  0.2125 -0.2796  0.2786
11592TIP3    H156191   2.637   2.928   2.806 -0.8093  0.0797  1.5784
11592TIP3    H256192   2.650   2.793   2.739  1.4241  0.7143  0.6377
11593TIP3   OH256193   1.677   5.427  13.689 -0.1032 -0.4241  0.1848
11593TIP3    H156194   1.587   5.396  13.705  0.5382 -1.4083  2.2331
11593TIP3    H256195   1.727   5.393  13.763  1.6760  1.4252 -0.0997
11594TIP3   OH256196   0.054   0.902  10.624  0.4058  0.4661  0.3178
11594TIP3    H156197   0.114   0.955  10.678 -0.6479 -0.0267  2.0536
11594TIP3    H256198   0.085   0.813  10.634 -0.9645  0.1073  1.8208
11595TIP3   OH256199   5.088   4.382   0.508 -0.2873  0.0118 -0.2586
11595TIP3    H156200   5.182   4.383   0.528  0.3833 -4.0468 -2.1625
11595TIP3    H256201   5.057   4.300   0.547 -2.4359 -0.0965 -2.0352
11596TIP3   OH256202   1.765   5.394   3.029  0.0015  0.6161 -0.0581
11596TIP3    H156203   1.682   5.351   3.012 -0.6687  1.8406  0.0181
11596TIP3    H256204   1.767   5.467   2.968  1.7999 -0.3511 -1.2430
11597TIP3   OH256205   1.319   3.384   4.474 -0.1756 -0.2928 -0.1713
11597TIP3    H156206   1.396   3.346   4.517  0.5516  4.2306  3.2611
11597TIP3    H256207   1.356   3.445   4.409 -1.0409 -0.6232 -0.9909
11598TIP3   OH256208   3.766   3.710   0.174 -0.4540 -0.1374 -0.5202
11598TIP3    H156209   3.743   3.680   0.086 -1.7956 -0.0197 -0.2333
11598TIP3    H256210   3.704   3.780   0.193  0.9277  1.0320 -0.1257
11599TIP3   OH256211   2.010   2.667   4.408 -0.1118  0.3417  0.3039
11599TIP3    H156212   1.992   2.590   4.354  1.6333  1.1465 -1.5777
11599TIP3    H256213   2.029   2.631   4.495 -1.0689 -1.1807 -0.0786
11600TIP3   OH256214   4.518   0.549   2.845  0.6149  0.2418  0.1553
11600TIP3    H156215   4.494   0.501   2.765  0.3459 -0.9112  0.9090
11600TIP3    H256216   4.611   0.531   2.857  0.9306  1.3618 -0.5177
11601TIP3   OH256217   5.048   1.551   2.339  0.0992 -0.4847 -0.1460
11601TIP3    H156218   5.093   1.531   2.422 -0.2375 -0.4947  0.0361
11601TIP3    H256219   5.099   1.505   2.273 -0.0923 -1.1383  0.1500
11602TIP3   OH256220   4.989   6.369   3.963 -0.1019  0.1452 -0.2502
11602TIP3    H156221   4.924   6.439   3.975  0.2216  0.4809 -0.4266
11602TIP3    H256222   5.000   6.362   3.868  1.3996  1.3135 -0.2118
11603TIP3   OH256223   4.803   5.674   2.570 -0.3403  0.9814  0.3734
11603TIP3    H156224   4.717   5.709   2.593  0.3981  1.4531  2.7307
11603TIP3    H256225   4.799   5.582   2.595 -0.6170  0.5998 -0.9809
11604TIP3   OH256226   6.215   3.954   5.673  0.0172 -0.0507 -0.1791
11604TIP3    H156227   6.170   3.990   5.750  0.3215 -0.1660  0.0568
11604TIP3    H256228   6.302   3.930   5.705  1.3451  2.8662 -1.2801
11605TIP3   OH256229   3.389   1.424   4.124  0.0659 -0.6342 -0.3299
11605TIP3    H156230   3.304   1.385   4.102 -0.0783  0.0208 -0.9999
11605TIP3    H256231   3.444   1.408   4.047 -0.0998  0.7287 -0.7693
11606TIP3   OH256232   3.298   3.568   3.371 -0.1192 -0.3974 -0.0183
11606TIP3    H156233   3.256   3.641   3.326  1.7077 -0.1083 -1.4238
11606TIP3    H256234   3.386   3.601   3.392  0.2491 -1.7175  0.6009
11607TIP3   OH256235   0.932   3.418  14.500 -0.1696 -0.3538 -0.7368
11607TIP3    H156236   0.858   3.453  14.451  0.5361  2.4032  0.0160
11607TIP3    H256237   0.894   3.346  14.551 -2.4446  1.1421 -0.1586
11608TIP3   OH256238   3.614   1.706  11.863 -0.2666 -0.2583  0.9364
11608TIP3    H156239   3.559   1.627  11.869 -1.9389  0.5699 -1.7731
11608TIP3    H256240   3.552   1.778  11.851  1.3006  0.7923 -1.9209
11609TIP3   OH256241   2.545   3.565   2.216 -0.4501  0.4587 -0.0305
11609TIP3    H156242   2.571   3.574   2.124  2.5227 -1.0649  0.5180
11609TIP3    H256243   2.449   3.567   2.214 -0.4863  1.3988 -3.0239
11610TIP3   OH256244   2.337   0.147   2.417 -0.2697  1.0284 -0.4524
11610TIP3    H156245   2.425   0.184   2.408  0.6136 -1.1220 -1.3734
11610TIP3    H256246   2.315   0.117   2.329 -0.6021 -1.1761  0.3192
11611TIP3   OH256247   2.800   0.276  13.419  0.1079 -0.1806 -0.1009
11611TIP3    H156248   2.808   0.182  13.406 -0.7576 -0.2028 -0.5986
11611TIP3    H256249   2.792   0.312  13.330  1.1696  0.4495  0.0367
11612TIP3   OH256250   4.961   2.707   3.365 -0.3571 -0.2885  0.0159
11612TIP3    H156251   5.053   2.732   3.354 -0.0878 -1.0139  0.5680
11612TIP3    H256252   4.917   2.747   3.290  0.7458 -1.6587 -1.4374
11613TIP3   OH256253   4.073   2.763  15.366 -0.4713 -0.0421  0.7709
11613TIP3    H156254   3.992   2.812  15.351 -0.2090  0.2432  0.2486
11613TIP3    H256255   4.057   2.714  15.446 -0.6801  1.0215  1.3938
11614TIP3   OH256256   4.368   2.252   5.526 -0.5081 -0.1079 -0.2763
11614TIP3    H156257   4.447   2.264   5.578  0.7022  1.6673 -2.3864
11614TIP3    H256258   4.311   2.325   5.551  0.2348  0.9739 -1.6410
11615TIP3   OH256259   5.316   3.824  13.189  0.8429 -0.0076  0.6132
11615TIP3    H156260   5.345   3.908  13.155  0.0812 -0.1899 -0.5545
11615TIP3    H256261   5.228   3.813  13.152  0.6117 -0.9462  1.4052
11616TIP3   OH256262   4.134   6.578   0.804  0.1250  0.1467  0.5588
11616TIP3    H156263   4.151   6.669   0.827 -0.5985 -0.0478  1.9299
11616TIP3    H256264   4.081   6.544   0.876 -0.7749 -0.9831 -0.6007
11617TIP3   OH256265   5.441   4.601  15.648 -0.3283 -0.2124 -0.2463
11617TIP3    H156266   5.478   4.671  15.594  0.2519 -1.0805 -1.0019
11617TIP3    H256267   5.433   4.526  15.589 -1.4819 -0.6346  0.3997
11618TIP3   OH256268   5.781   3.475  15.382 -0.5301 -0.0731  0.3864
11618TIP3    H156269   5.708   3.507  15.330 -0.8733  1.3075  1.6610
11618TIP3    H256270   5.744   3.459  15.469  0.6573  0.6736  1.0694
11619TIP3   OH256271   0.246   1.881   0.405  0.0105 -0.1175 -0.0153
11619TIP3    H156272   0.194   1.875   0.324  1.2867  2.6372 -1.1539
11619TIP3    H256273   0.331   1.843   0.381 -0.9265 -3.6959  1.5579
11620TIP3   OH256274   0.206   0.000   3.058 -0.3063 -0.5098 -0.3843
11620TIP3    H156275   0.178   0.069   3.119  3.4897  1.1688 -0.2681
11620TIP3    H256276   0.295  -0.021   3.085  0.7694 -1.2636 -4.0079
11621TIP3   OH256277   1.211   4.023  11.196  0.3798  0.1547 -0.0423
11621TIP3    H156278   1.271   4.015  11.122 -1.6127  0.1323 -1.7746
11621TIP3    H256279   1.225   3.944  11.248  0.5627 -0.7543 -1.4254
11622TIP3   OH256280   5.948   3.656  15.265 -0.4235  0.0528 -0.2583
11622TIP3    H156281   5.883   3.627  15.329  0.5763 -0.5038  0.5229
11622TIP3    H256282   5.923   3.611  15.184 -1.9547  1.1064 -0.4160
11623TIP3   OH256283   3.147   5.745  11.144 -0.0155 -0.1278 -0.2784
11623TIP3    H156284   3.217   5.775  11.085  0.5202 -0.6825  0.0585
11623TIP3    H256285   3.066   5.762  11.096  0.4479 -1.4955 -1.6122
11624TIP3   OH256286   4.453   0.382   1.313  0.3740  0.0735 -0.5971
11624TIP3    H156287   4.537   0.365   1.269  0.8053 -1.6057  0.7343
11624TIP3    H256288   4.415   0.455   1.265  2.4298  0.6505 -1.4939
11625TIP3   OH256289   2.842   0.965   3.131 -0.4473 -0.5481  0.1470
11625TIP3    H156290   2.922   0.919   3.158 -0.5027 -0.9004 -0.2817
11625TIP3    H256291   2.784   0.896   3.101 -0.0448 -0.1137 -1.7596
11626TIP3   OH256292   4.997   5.595   1.238 -0.8371  0.6637  0.4047
11626TIP3    H156293   4.903   5.613   1.235 -0.7346  1.1357  0.0515
11626TIP3    H256294   5.003   5.499   1.238 -1.3076  0.6323  0.0839
11627TIP3   OH256295   5.433   6.448   5.062  0.5002  0.5208  0.8735
11627TIP3    H156296   5.493   6.374   5.072  1.7195  1.3858  0.1266
11627TIP3    H256297   5.488   6.525   5.071 -0.4273  1.3484 -0.2583
11628TIP3   OH256298   4.800   3.384   1.278  0.3410 -0.3699 -1.0434
11628TIP3    H156299   4.839   3.391   1.191  1.6267  0.9037 -0.3993
11628TIP3    H256300   4.851   3.317   1.322  1.3513  0.7420 -0.4655
11629TIP3   OH256301   3.146   5.617   5.271 -0.2067 -0.5684  0.3731
11629TIP3    H156302   3.159   5.535   5.318 -2.0236  0.2709  2.5538
11629TIP3    H256303   3.234   5.645   5.247  0.6644 -1.9969  1.6769
11630TIP3   OH256304   2.537   5.827   2.621 -0.6244  0.1820  0.7122
11630TIP3    H156305   2.528   5.732   2.612  0.5665  0.1714 -0.9430
11630TIP3    H256306   2.556   5.857   2.532 -0.1034  1.8618  1.3589
11631TIP3   OH256307   5.472   4.741   0.868 -0.2951 -0.0598 -0.2028
11631TIP3    H156308   5.455   4.832   0.844 -0.6035 -0.4585 -1.5533
11631TIP3    H256309   5.507   4.746   0.957 -0.5602  1.3524 -0.1595
11632TIP3   OH256310   1.496   6.593   1.748 -0.1399  0.1991 -0.0309
11632TIP3    H156311   1.498   6.620   1.840  2.2633  1.1232 -0.2815
11632TIP3    H256312   1.418   6.636   1.712 -0.5638  0.6309  1.3528
11633TIP3   OH256313   2.081   0.587  12.547  0.0874  0.2119  0.8258
11633TIP3    H156314   2.046   0.651  12.485  0.4731 -1.5414 -1.3707
11633TIP3    H256315   2.169   0.618  12.567  0.3044  0.3504 -0.2805
11634TIP3   OH256316   1.387   6.560   3.830  0.2584 -0.3588 -0.5400
11634TIP3    H156317   1.299   6.532   3.808 -0.7279  3.0923 -1.6119
11634TIP3    H256318   1.380   6.654   3.847  3.4486 -0.2549  1.1012
11635TIP3   OH256319   4.749   0.424  16.979 -0.0729 -0.2982  0.1216
11635TIP3    H156320   4.759   0.333  17.008  0.7509 -0.6614 -1.2428
11635TIP3    H256321   4.661   0.428  16.942 -0.2999 -0.3954  0.6367
11636TIP3   OH256322   5.348   0.979   4.325 -0.2338 -0.1873 -0.0766
11636TIP3    H156323   5.278   0.937   4.275 -0.3423 -0.9193  0.6815
11636TIP3    H256324   5.428   0.934   4.297 -0.5452 -2.2718  2.0886
11637TIP3   OH256325   5.124   5.848  16.321 -1.0437 -0.2353  0.3043
11637TIP3    H156326   5.029   5.839  16.321 -1.1326  0.5252 -1.1681
11637TIP3    H256327   5.156   5.777  16.265 -0.8330  0.2237 -0.1649
11638TIP3   OH256328   5.866   1.544  15.265 -0.4185  0.0329 -0.1385
11638TIP3    H156329   5.786   1.514  15.221  0.4017 -0.1837 -1.5233
11638TIP3    H256330   5.912   1.464  15.288 -0.5828  0.1593  0.6608
11639TIP3   OH256331   4.406   2.540  16.140  0.3183  0.0811  0.1004
11639TIP3    H156332   4.501   2.543  16.152  0.6122  0.0388 -1.8760
11639TIP3    H256333   4.386   2.616  16.086 -0.5381 -0.7396 -0.7858
11640TIP3   OH256334   4.199   2.788   3.762 -0.0141 -0.3927 -0.0510
11640TIP3    H156335   4.180   2.879   3.742  0.6919 -0.1317  0.4558
11640TIP3    H256336   4.283   2.770   3.720  0.0260 -0.7000  0.1537
11641TIP3   OH256337   3.203   4.567  16.819 -0.0739 -0.2462  0.0499
11641TIP3    H156338   3.139   4.522  16.874  0.9587  0.0313  1.5328
11641TIP3    H256339   3.184   4.536  16.730  0.4178 -3.4205  0.9276
11642TIP3   OH256340   2.880   6.008  15.420 -0.0376  0.3307 -0.2234
11642TIP3    H156341   2.819   6.017  15.346 -0.5875 -0.1278  0.1647
11642TIP3    H256342   2.868   6.089  15.470  0.2105  0.5661 -0.5395
11643TIP3   OH256343   3.197   0.179  12.711  0.6196  0.0698 -0.1690
11643TIP3    H156344   3.204   0.122  12.788  0.0080  0.1408 -0.0548
11643TIP3    H256345   3.130   0.244  12.735  1.2647  0.8042 -0.3211
11644TIP3   OH256346   2.311   3.398  11.147 -0.9924 -0.0399 -0.1485
11644TIP3    H156347   2.357   3.436  11.072 -1.9629  0.8178 -0.3350
11644TIP3    H256348   2.361   3.320  11.169 -0.4717 -0.0948 -1.4533
11645TIP3   OH256349   5.542   0.882  14.585  0.1593  0.0375 -0.1730
11645TIP3    H156350   5.547   0.811  14.649 -0.2764 -0.0518 -0.2377
11645TIP3    H256351   5.494   0.844  14.511 -0.7264  0.6255  0.0903
11646TIP3   OH256352   0.595   3.186  11.124  0.0489 -0.1940  0.8537
11646TIP3    H156353   0.634   3.240  11.055 -0.3966  0.5776  1.2008
11646TIP3    H256354   0.595   3.098  11.087 -1.6662  0.4467 -0.8056
11647TIP3   OH256355   3.305   5.741  15.331 -0.1627  0.1121  0.0790
11647TIP3    H156356   3.289   5.771  15.242  1.4231  0.2715 -0.1749
11647TIP3    H256357   3.331   5.820  15.379 -1.6916  0.1666  0.8974
11648TIP3   OH256358   2.362   4.563   5.337  0.5136 -0.1005  0.4404
11648TIP3    H156359   2.406   4.576   5.421  0.9446  0.5558  0.1217
11648TIP3    H256360   2.283   4.616   5.343  0.9090  0.5324  0.1657
11649TIP3   OH256361   6.489   3.094   2.537 -1.1517 -0.4236  0.1199
11649TIP3    H156362   6.412   3.130   2.493 -0.9775 -0.5984 -0.3398
11649TIP3    H256363   6.558   3.097   2.470 -1.2961 -2.1843 -0.1445
11650TIP3   OH256364   5.550   6.679   5.540 -0.1560  0.3463 -0.5200
11650TIP3    H156365   5.595   6.660   5.457  1.0485 -2.1888  0.5835
11650TIP3    H256366   5.564   6.772   5.554  0.9859  0.5139 -2.3911
11651TIP3   OH256367   2.612   5.412  15.362 -0.2015  0.2323 -0.1426
11651TIP3    H156368   2.644   5.361  15.436 -2.4071  1.4855  1.8089
11651TIP3    H256369   2.539   5.463  15.397  0.3088  2.9185 -2.5259
11652TIP3   OH256370   2.780   2.512  12.017 -0.5947 -0.3991  0.0818
11652TIP3    H156371   2.762   2.524  12.110 -1.3996  0.7210 -0.2047
11652TIP3    H256372   2.855   2.451  12.015  0.0997  0.3588  1.4714
11653TIP3   OH256373   4.976   5.846   3.216 -0.1293  0.2454 -0.1758
11653TIP3    H156374   5.003   5.900   3.290  1.3603  1.5086 -1.5627
11653TIP3    H256375   4.992   5.756   3.245  1.8757  0.7792  0.5432
11654TIP3   OH256376   1.650   1.901   3.464 -0.0733 -0.9028  0.0746
11654TIP3    H156377   1.588   1.946   3.522  1.1074 -0.0596  0.7385
11654TIP3    H256378   1.680   1.969   3.404  2.4316 -0.4550  1.6730
11655TIP3   OH256379   6.232   3.199  11.220 -0.2713 -0.3590 -0.3249
11655TIP3    H156380   6.190   3.234  11.142  0.3546 -0.4759 -0.7169
11655TIP3    H256381   6.326   3.216  11.207 -0.2347  0.4811  0.8192
11656TIP3   OH256382   2.616   2.513   4.797  0.3781 -0.3720 -0.1840
11656TIP3    H156383   2.674   2.519   4.873 -0.1995 -2.0215  0.4412
11656TIP3    H256384   2.531   2.543   4.830  0.3859 -0.0012 -0.5016
11657TIP3   OH256385   6.410   1.768   1.706  0.6367 -0.0769  0.2374
11657TIP3    H156386   6.484   1.823   1.679 -0.7947  1.0855 -1.5258
11657TIP3    H256387   6.365   1.820   1.772  2.0889 -1.3800  2.3708
11658TIP3   OH256388   3.876   5.116  13.068  0.2028 -0.0071 -0.9294
11658TIP3    H156389   3.950   5.175  13.070  1.4776 -1.4805 -1.8075
11658TIP3    H256390   3.800   5.171  13.087  1.5496  1.4420  0.5468
11659TIP3   OH256391   3.173   1.388   3.148  0.3816 -0.1070 -0.3024
11659TIP3    H156392   3.237   1.366   3.081 -1.7287 -1.4077 -2.0352
11659TIP3    H256393   3.173   1.483   3.152  1.6094 -0.0627 -1.0608
11660TIP3   OH256394   0.514   3.508   1.814 -0.0722  0.8561  0.1765
11660TIP3    H156395   0.533   3.537   1.725 -0.9749  0.1353 -0.2687
11660TIP3    H256396   0.449   3.570   1.847  2.2920  2.8467  1.4143
11661TIP3   OH256397   0.516   3.065   4.567 -0.0904  0.0796  0.3861
11661TIP3    H156398   0.548   2.994   4.624  0.1566 -0.1934 -0.0893
11661TIP3    H256399   0.422   3.067   4.584 -0.5447 -2.0236 -1.3663
11662TIP3   OH256400   5.954   1.983  15.754  0.2540 -0.0090 -0.6911
11662TIP3    H156401   5.908   1.910  15.715  1.1088 -2.5907  2.6100
11662TIP3    H256402   6.029   1.998  15.697 -0.0348 -1.6427 -1.5484
11663TIP3   OH256403   5.225   6.272  14.901 -0.2712  0.0842  0.2898
11663TIP3    H156404   5.215   6.367  14.887  0.4412  0.1715  0.3329
11663TIP3    H256405   5.152   6.233  14.854  0.2134  0.5720 -0.8949
11664TIP3   OH256406   4.251   6.582   6.641  0.1074  0.4859 -0.1365
11664TIP3    H156407   4.338   6.550   6.666  0.5413  1.3056 -0.5324
11664TIP3    H256408   4.199   6.574   6.721  0.8606  1.0196  0.4266
11665TIP3   OH256409   5.351   6.456   4.743 -0.4943  0.2489 -0.2441
11665TIP3    H156410   5.369   6.523   4.809  2.4912 -0.3338 -0.3193
11665TIP3    H256411   5.319   6.381   4.792 -1.0443  0.7631  0.1885
11666TIP3   OH256412   3.588   1.315   1.741 -0.0678 -0.0504 -0.2462
11666TIP3    H156413   3.645   1.244   1.772  0.3324 -0.2009 -1.3073
11666TIP3    H256414   3.648   1.383   1.711 -0.3617  1.8514  2.9944
11667TIP3   OH256415   5.004   4.626  12.090  0.0806 -0.6036  0.0579
11667TIP3    H156416   4.990   4.704  12.036 -2.3997 -0.5969  0.6155
11667TIP3    H256417   5.062   4.656  12.160 -0.8916  0.7959  0.3136
11668TIP3   OH256418   2.965   6.433   2.159  0.2662 -0.1894  0.5133
11668TIP3    H156419   2.902   6.428   2.231 -1.2289 -1.5466 -0.8318
11668TIP3    H256420   2.982   6.527   2.149 -0.1483  0.0811  2.0531
11669TIP3   OH256421   6.343   2.808  12.246 -0.3027  0.6064 -0.5942
11669TIP3    H156422   6.324   2.852  12.329  1.2297  2.0987 -0.9900
11669TIP3    H256423   6.438   2.816  12.235 -0.1901 -1.4133 -1.4989
11670TIP3   OH256424   2.196   5.783   2.089 -0.1313 -0.6323  0.0937
11670TIP3    H156425   2.215   5.766   1.996 -0.7677 -0.1683 -0.1274
11670TIP3    H256426   2.278   5.819   2.124  0.6396 -2.2988  0.1177
11671TIP3   OH256427   4.849   5.008  11.500 -0.1705 -0.0290  0.1405
11671TIP3    H156428   4.814   4.929  11.459  0.4650  0.1164 -0.7040
11671TIP3    H256429   4.850   5.073  11.430  0.1679  0.4703  0.6015
11672TIP3   OH256430   1.648   6.484   3.470  0.2512 -0.0392  0.5849
11672TIP3    H156431   1.595   6.415   3.509 -0.5829 -0.9563 -1.9491
11672TIP3    H256432   1.585   6.547   3.437  0.8235  0.0643 -0.3529
11673TIP3   OH256433   3.369   3.030   5.945  0.5593  0.1776  0.6019
11673TIP3    H156434   3.338   3.121   5.950 -0.2006 -0.1191  1.8000
11673TIP3    H256435   3.463   3.036   5.955  0.4540  0.7930  1.3040
11674TIP3   OH256436   1.998   4.095  12.312 -0.7809 -0.3377 -0.1611
11674TIP3    H156437   1.939   4.021  12.329  0.1627 -0.6893  1.7909
11674TIP3    H256438   2.002   4.142  12.395  1.7275 -0.3518 -0.2198
11675TIP3   OH256439   3.218   4.041   0.535  0.0274  0.5530  0.0231
11675TIP3    H156440   3.177   3.980   0.596  0.2647  0.8658  0.5107
11675TIP3    H256441   3.244   3.988   0.460  2.7972 -0.5435  1.6099
11676TIP3   OH256442   4.144   0.050   2.739 -0.2205  0.1480 -0.6028
11676TIP3    H156443   4.072   0.105   2.768  0.4486 -0.3692  2.2854
11676TIP3    H256444   4.223   0.096   2.766  0.3691 -1.6420  0.9486
11677TIP3   OH256445   1.892   4.869   1.750  0.0341  0.5472  0.1848
11677TIP3    H156446   1.823   4.803   1.763  0.7168 -0.1684  0.2483
11677TIP3    H256447   1.900   4.878   1.655  0.0141  0.4591  0.1749
11678TIP3   OH256448   6.541   2.752   2.646  0.5226 -0.1014  0.1763
11678TIP3    H156449   6.581   2.836   2.667  1.7836 -0.3333 -1.1590
11678TIP3    H256450   6.447   2.772   2.639  0.9145  1.4851 -1.3042
11679TIP3   OH256451   5.077   2.128  14.672 -0.6258  0.3395 -0.3222
11679TIP3    H156452   5.155   2.076  14.690 -0.8183 -0.4318 -1.6151
11679TIP3    H256453   5.050   2.161  14.758 -0.5444 -1.7538  0.5761
11680TIP3   OH256454   2.576   0.557   0.229 -0.3619  0.5915 -0.1777
11680TIP3    H156455   2.581   0.616   0.154 -1.0862  0.8100 -0.0693
11680TIP3    H256456   2.570   0.615   0.305  2.0930  0.3885  0.2333
11681TIP3   OH256457   3.354   3.495   4.577 -0.0939 -0.3261 -0.4200
11681TIP3    H156458   3.431   3.442   4.557  0.6695  0.2185  0.9564
11681TIP3    H256459   3.388   3.570   4.626 -1.5158 -0.1879  0.4177
11682TIP3   OH256460   2.506   1.400   2.270  0.0236  0.4116 -0.0906
11682TIP3    H156461   2.569   1.468   2.245  0.6888 -0.2922 -0.3718
11682TIP3    H256462   2.560   1.330   2.306 -0.6184 -0.1678 -0.2378
11683TIP3   OH256463   2.943   2.100  11.855  0.2477  0.3183  0.2973
11683TIP3    H156464   2.863   2.112  11.804  0.5494  0.4165 -0.1554
11683TIP3    H256465   2.949   2.005  11.868 -0.3743  0.3689  1.0401
11684TIP3   OH256466   3.177   2.543   5.510 -0.6012  0.1400  0.4063
11684TIP3    H156467   3.239   2.561   5.580  0.6646 -0.1418 -0.6051
11684TIP3    H256468   3.201   2.457   5.477 -1.1118  0.2994 -0.4266
11685TIP3   OH256469   1.409   4.543  13.469  0.5717 -0.3814  0.6733
11685TIP3    H156470   1.337   4.587  13.514 -0.4720 -0.1378 -1.1710
11685TIP3    H256471   1.398   4.450  13.491 -0.4567 -0.3758  0.2222
11686TIP3   OH256472   1.487   2.295   5.848  0.1451  0.0891  0.5545
11686TIP3    H156473   1.503   2.201   5.850  3.5103  0.4869 -0.6377
11686TIP3    H256474   1.523   2.327   5.931  3.3318  0.6889 -0.9073
11687TIP3   OH256475   0.428   2.817  13.037  0.1886 -0.4486  0.4152
11687TIP3    H156476   0.349   2.765  13.053 -0.0521 -0.1356  0.2393
11687TIP3    H256477   0.419   2.893  13.094  0.3920 -0.4394  0.4362
11688TIP3   OH256478   4.903   3.423   5.555  0.3603 -0.1864  0.4308
11688TIP3    H156479   4.946   3.480   5.493  1.8913  0.2908  1.8564
11688TIP3    H256480   4.905   3.336   5.514  2.4957 -0.1355  0.3085
11689TIP3   OH256481   2.792   1.745  13.423  0.1233 -0.3003 -0.4918
11689TIP3    H156482   2.881   1.779  13.407  0.8366 -1.7963  0.1320
11689TIP3    H256483   2.799   1.700  13.507 -0.9342 -1.4579 -1.0058
11690TIP3   OH256484   2.046   0.143  16.044  0.3241 -0.2050 -0.4022
11690TIP3    H156485   2.101   0.139  16.121 -0.2887 -0.7119  0.0235
11690TIP3    H256486   2.107   0.140  15.970  0.8882 -0.1956  0.0597
11691TIP3   OH256487   4.083   0.964  15.078 -0.3571  0.2281  0.2914
11691TIP3    H156488   4.139   0.995  15.007  1.9539  0.3525  2.0310
11691TIP3    H256489   4.007   1.022  15.076 -0.0173  0.6791 -1.5995
11692TIP3   OH256490   2.602   2.316   2.160  0.8236  0.0442 -0.0607
11692TIP3    H156491   2.545   2.366   2.101  1.1574  0.0347 -0.3947
11692TIP3    H256492   2.690   2.327   2.123  1.5390  2.4624  2.0282
11693TIP3   OH256493   0.039   5.736   2.420  0.1863  0.7761  0.3917
11693TIP3    H156494   0.076   5.713   2.506  2.1200  2.5066  0.1102
11693TIP3    H256495   0.066   5.664   2.363 -1.8192 -0.8059  1.3407
11694TIP3   OH256496   3.868   0.542   2.615  0.6566 -0.0404  0.5208
11694TIP3    H156497   3.945   0.487   2.631 -0.6169 -1.9721  0.4433
11694TIP3    H256498   3.821   0.541   2.698  0.7232  1.1712  0.5851
11695TIP3   OH256499   2.554   4.465  13.944 -0.2083 -0.2018  0.0383
11695TIP3    H156500   2.522   4.383  13.906  4.0379 -2.3783  0.5106
11695TIP3    H256501   2.575   4.520  13.868  1.6748 -1.7179 -0.6267
11696TIP3   OH256502   3.707   2.937   0.352  0.0217 -0.2994 -0.0774
11696TIP3    H156503   3.651   3.010   0.380  0.6838  0.0546  0.3479
11696TIP3    H256504   3.755   2.971   0.276  1.8405  0.4475  1.3345
11697TIP3   OH256505   6.682   1.745  13.672  0.9498 -0.1828 -0.0418
11697TIP3    H156506   6.760   1.757  13.616  0.4668 -0.1625 -0.7289
11697TIP3    H256507   6.658   1.653  13.659  0.0713  0.1458 -0.9127
11698TIP3   OH256508   1.763   0.401  13.961  0.3937  0.5178 -0.2303
11698TIP3    H156509   1.733   0.315  13.991  0.7074  0.0512 -1.2150
11698TIP3    H256510   1.689   0.460  13.980 -0.4985 -0.2877 -1.0739
11699TIP3   OH256511   5.624   0.382   0.262  0.1234  0.2586  0.4357
11699TIP3    H156512   5.680   0.419   0.331  3.1699 -2.4079 -0.3898
11699TIP3    H256513   5.647   0.433   0.184  1.8822 -1.0451  0.0188
11700TIP3   OH256514   4.692   1.087   4.661  0.4513  0.7285  1.0456
11700TIP3    H156515   4.762   1.137   4.620  2.5073 -1.8172  1.1829
11700TIP3    H256516   4.713   1.086   4.754  1.0932 -1.1828  0.9293
11701TIP3   OH256517   4.991   5.806   4.444  0.6094 -0.0747 -0.4048
11701TIP3    H156518   5.017   5.714   4.440 -3.4777 -1.4942  0.6361
11701TIP3    H256519   4.965   5.827   4.354 -1.8964 -1.2907 -0.0770
11702TIP3   OH256520   1.528   3.145   1.704 -0.2393 -0.3953  0.3107
11702TIP3    H156521   1.450   3.193   1.676  0.4635  1.1326  0.8411
11702TIP3    H256522   1.520   3.140   1.799 -0.3244 -1.4101  0.2598
11703TIP3   OH256523   1.768   5.541  13.468 -0.1440  0.0445 -0.0538
11703TIP3    H156524   1.798   5.622  13.509  0.3562 -0.5997  0.9155
11703TIP3    H256525   1.724   5.494  13.539  0.3009 -0.8929 -0.3826
11704TIP3   OH256526   4.982   2.573  16.030 -0.1101 -0.0338  0.2377
11704TIP3    H156527   4.976   2.478  16.042  1.1640 -0.0683  0.7651
11704TIP3    H256528   5.037   2.603  16.102 -2.1014  1.4057  1.2474
11705TIP3   OH256529   2.540   2.020   1.768 -0.0559  0.4118  0.1523
11705TIP3    H156530   2.621   2.007   1.817  0.0939 -0.5760 -0.3309
11705TIP3    H256531   2.483   2.069   1.827  0.2475 -0.4407  1.1756
11706TIP3   OH256532   0.224   1.444  12.581 -0.0837  0.1749  0.0480
11706TIP3    H156533   0.136   1.411  12.560 -0.1095  1.5732 -2.5021
11706TIP3    H256534   0.218   1.538  12.568  1.3777  0.5446  1.6471
11707TIP3   OH256535   3.068   0.134   6.204  0.0598 -0.0453  0.2924
11707TIP3    H156536   3.126   0.176   6.140 -1.1677  0.3216 -0.6205
11707TIP3    H256537   3.087   0.040   6.195  0.5056  0.0691 -0.0059
11708TIP3   OH256538   5.378   3.643   3.900 -0.4273  0.0422 -0.1472
11708TIP3    H156539   5.341   3.586   3.832 -0.5119 -0.2822  0.1650
11708TIP3    H256540   5.340   3.729   3.883  0.5334  0.2669 -1.2781
11709TIP3   OH256541   1.314   4.435  11.514  0.0242  0.2163 -0.3718
11709TIP3    H156542   1.307   4.439  11.609 -0.1889 -0.6039 -0.3456
11709TIP3    H256543   1.271   4.353  11.490 -0.1831  0.5529 -1.2004
11710TIP3   OH256544   1.541   3.570  10.725 -0.1468  0.3625  0.3253
11710TIP3    H156545   1.520   3.495  10.670  2.9646 -0.1321 -0.3516
11710TIP3    H256546   1.534   3.646  10.666 -2.2598  0.5515  0.7487
11711TIP3   OH256547   3.689   5.351  15.852  0.1916 -0.4075  0.2379
11711TIP3    H156548   3.667   5.269  15.896  0.9018 -1.0020 -0.4746
11711TIP3    H256549   3.632   5.417  15.892  0.3764 -1.0414  1.5947
11712TIP3   OH256550   1.053   4.679   3.187  0.1933  0.4335 -0.5001
11712TIP3    H156551   1.139   4.641   3.166  1.4022  1.8885  1.4910
11712TIP3    H256552   1.052   4.684   3.282 -0.9212  2.9900 -0.5738
11713TIP3   OH256553   0.112   0.831  12.927 -0.0905  0.2691 -0.4062
11713TIP3    H156554   0.085   0.842  12.836 -0.7845  1.5136 -0.0783
11713TIP3    H256555   0.097   0.917  12.967 -1.2680 -0.6464  1.2529
11714TIP3   OH256556   5.201   1.674   5.543  0.2614  0.7392  0.4583
11714TIP3    H156557   5.195   1.677   5.447  0.3991  2.1416  0.4822
11714TIP3    H256558   5.134   1.735   5.574 -0.3582 -0.3145  1.3065
11715TIP3   OH256559   4.150   4.227   3.449  0.2141 -0.3824  0.1596
11715TIP3    H156560   4.058   4.203   3.460 -0.6979  1.8162 -1.8568
11715TIP3    H256561   4.178   4.182   3.370  0.1046  0.8390 -0.5974
11716TIP3   OH256562   0.414   4.351   2.002 -0.2191  0.0500  0.0882
11716TIP3    H156563   0.399   4.336   2.095  1.4814  0.0262  0.3917
11716TIP3    H256564   0.507   4.329   1.989 -1.1136 -3.0298 -2.2379
11717TIP3   OH256565   6.693   3.090  13.740 -0.4152  0.2553  0.3736
11717TIP3    H156566   6.627   3.129  13.682  0.5102  1.2035 -0.0755
11717TIP3    H256567   6.648   3.016  13.780 -0.7969 -1.1571 -2.3936
11718TIP3   OH256568   5.350   4.722  11.338 -0.3320 -0.2624 -0.3520
11718TIP3    H156569   5.407   4.648  11.360  0.8751  0.2105 -1.7433
11718TIP3    H256570   5.266   4.682  11.317 -0.4820 -1.0007  1.4921
11719TIP3   OH256571   5.500   0.076   5.303 -0.3356  0.3645  0.0422
11719TIP3    H156572   5.542   0.159   5.327  1.1997 -0.7778  1.5325
11719TIP3    H256573   5.406   0.094   5.312 -0.0518  2.0117  0.0687
11720TIP3   OH256574   1.303   4.907  14.582 -0.1544  0.1290 -0.5791
11720TIP3    H156575   1.383   4.855  14.590 -0.4950 -0.4019 -0.5230
11720TIP3    H256576   1.248   4.876  14.654 -0.5404  0.2445 -0.8240
11721TIP3   OH256577   6.153   3.006  13.538 -0.5987  0.8407  0.1921
11721TIP3    H156578   6.219   2.936  13.546  1.8529  2.8432 -1.1683
11721TIP3    H256579   6.117   3.014  13.627  0.8473 -0.4802  0.9568
11722TIP3   OH256580   4.962   6.704  13.094 -0.0875 -0.1937 -0.1866
11722TIP3    H156581   4.902   6.630  13.102 -1.9709  1.3152  0.7638
11722TIP3    H256582   4.950   6.734  13.004 -0.3705 -0.2446 -0.1682
11723TIP3   OH256583   0.502   2.865   4.387 -0.1721  0.3168  0.3841
11723TIP3    H156584   0.513   2.943   4.442  3.3292  2.4221 -2.8290
11723TIP3    H256585   0.584   2.858   4.340 -1.0455 -4.3582 -0.9187
11724TIP3   OH256586   1.854   6.010   0.917 -0.1919  0.5293  0.1175
11724TIP3    H156587   1.949   6.003   0.924 -0.2771 -0.7075  0.3005
11724TIP3    H256588   1.828   5.932   0.869 -1.0627  1.1690 -0.4692
11725TIP3   OH256589   3.047   0.598   1.926  0.1677 -0.0067  0.1465
11725TIP3    H156590   2.960   0.598   1.967 -1.3294  1.0046 -2.7554
11725TIP3    H256591   3.044   0.524   1.865  1.9316 -0.8242  0.9824
11726TIP3   OH256592   1.426   4.558   6.464  0.6294 -0.2998 -0.4251
11726TIP3    H156593   1.445   4.607   6.384 -0.4380 -1.3361 -1.3497
11726TIP3    H256594   1.475   4.604   6.532  0.9061  1.1041 -1.5170
11727TIP3   OH256595   1.339   3.686  12.342  0.6783  0.0447  0.2013
11727TIP3    H156596   1.401   3.615  12.357  0.2177 -0.3081  0.4386
11727TIP3    H256597   1.302   3.704  12.428 -0.0460 -0.2105 -0.0532
11728TIP3   OH256598   1.206   2.134   6.008 -0.6196 -0.1797 -0.4189
11728TIP3    H156599   1.228   2.215   6.053  0.0208 -1.0458  0.8978
11728TIP3    H256600   1.246   2.065   6.062 -1.4221 -1.3914 -1.3201
11729TIP3   OH256601   3.075   4.571   3.568  0.1146 -0.1046 -0.1570
11729TIP3    H156602   3.064   4.651   3.516  0.3038  0.1411  0.1726
11729TIP3    H256603   2.995   4.522   3.554  0.0778  0.0584 -0.5164
11730TIP3   OH256604   2.861   3.256   5.877  0.3504  0.1195 -0.0591
11730TIP3    H156605   2.890   3.330   5.823 -0.3969 -0.3361 -1.1210
11730TIP3    H256606   2.938   3.201   5.887  0.3113 -0.2004 -1.3769
11731TIP3   OH256607   5.318   5.352  12.902  0.0065  0.1727 -0.0190
11731TIP3    H156608   5.414   5.355  12.896  0.0298  0.1701  0.3505
11731TIP3    H256609   5.295   5.428  12.955 -0.1447 -0.2266  0.4910
11732TIP3   OH256610   4.153   4.664  13.555  0.0614  0.1020  0.2381
11732TIP3    H156611   4.087   4.652  13.487 -0.1707  1.1164  0.2787
11732TIP3    H256612   4.129   4.744  13.600  1.6736  0.8655 -0.1719
11733TIP3   OH256613   4.408   4.576  12.643  0.4660 -0.0445 -0.3699
11733TIP3    H156614   4.467   4.629  12.590  0.7056 -0.5751 -0.6426
11733TIP3    H256615   4.458   4.497  12.664  0.0229 -0.2877 -0.1998
11734TIP3   OH256616   0.020   1.196   1.252 -0.0563  0.1430  0.0051
11734TIP3    H156617  -0.042   1.234   1.190 -1.2043  0.5165  1.3157
11734TIP3    H256618   0.063   1.272   1.293 -1.3075  0.0654  1.5896
11735TIP3   OH256619   1.147   1.777   5.082  0.2487 -0.2764  0.0559
11735TIP3    H156620   1.201   1.726   5.022 -0.2883 -0.0614 -0.6272
11735TIP3    H256621   1.200   1.786   5.161  0.1770 -2.3067  0.3911
11736TIP3   OH256622   5.591   6.623  12.977  0.0007  0.2405 -0.5398
11736TIP3    H156623   5.576   6.690  13.043  0.3965 -0.8469  0.7039
11736TIP3    H256624   5.671   6.651  12.932  0.1867  0.5894 -0.0029
11737TIP3   OH256625   0.611   1.682   3.856  0.7318  0.2016 -0.5829
11737TIP3    H156626   0.681   1.617   3.845  0.8359  0.1036  0.5421
11737TIP3    H256627   0.534   1.630   3.880  0.6628  0.4382 -0.2907
11738TIP3   OH256628   5.108   3.028  14.458  0.1055  0.3758 -0.3761
11738TIP3    H156629   5.029   3.076  14.433  0.5706  0.2492 -2.1956
11738TIP3    H256630   5.165   3.094  14.497 -0.7960  0.5039  0.7797
11739TIP3   OH256631   4.163   0.875  13.182  0.6255  0.7820 -0.7110
11739TIP3    H156632   4.084   0.850  13.230  0.3842 -0.5718 -1.7637
11739TIP3    H256633   4.219   0.798  13.186  1.1534  1.1150 -1.4766
11740TIP3   OH256634   4.744   1.488  16.031  0.1759  0.6005 -0.1709
11740TIP3    H156635   4.713   1.398  16.034 -0.4337  0.7892 -0.6527
11740TIP3    H256636   4.723   1.518  15.943 -1.8920  1.9943  0.7176
11741TIP3   OH256637   3.424   6.307  15.901 -0.3249  0.6596 -0.2976
11741TIP3    H156638   3.463   6.360  15.831  0.9327 -1.6115 -1.4087
11741TIP3    H256639   3.458   6.346  15.981  0.7231  1.4347 -1.0803
11742TIP3   OH256640   4.223   2.396  16.293 -0.0296 -0.1206 -0.1627
11742TIP3    H156641   4.285   2.455  16.250 -1.0177  1.3209  0.2990
11742TIP3    H256642   4.167   2.365  16.223 -0.3908  0.6406 -0.2236
11743TIP3   OH256643   6.140   0.127  15.196 -0.0633  0.0496 -0.3056
11743TIP3    H156644   6.073   0.076  15.150 -0.8421  0.1973  0.6274
11743TIP3    H256645   6.156   0.202  15.139 -0.1024 -0.4085 -0.9235
11744TIP3   OH256646   2.244   1.733  16.025  0.8813  0.2147 -0.1386
11744TIP3    H156647   2.187   1.810  16.031 -0.5630 -0.6922 -1.5629
11744TIP3    H256648   2.333   1.768  16.036  0.3017  2.1553 -1.2048
11745TIP3   OH256649   2.651   3.026   1.132  0.0520 -0.3055 -0.0234
11745TIP3    H156650   2.667   3.000   1.041 -0.9400  2.6073 -1.1427
11745TIP3    H256651   2.732   3.002   1.178  0.5109 -1.9988 -1.5937
11746TIP3   OH256652   2.066   3.991   4.239  0.6093  0.3933  0.3549
11746TIP3    H156653   1.992   3.975   4.180  0.9513  2.9396 -0.9026
11746TIP3    H256654   2.037   3.957   4.323 -1.3791 -0.0455 -0.4451
11747TIP3   OH256655   1.709   0.277   2.412 -0.2721 -0.2829 -0.2806
11747TIP3    H156656   1.654   0.241   2.482 -1.1639  2.1645  0.3767
11747TIP3    H256657   1.799   0.265   2.444 -0.6213 -0.2572  0.7564
11748TIP3   OH256658   4.246   2.213  11.329  0.4995 -0.0348  0.5973
11748TIP3    H156659   4.317   2.208  11.264 -0.0320 -0.2849  0.0262
11748TIP3    H256660   4.281   2.168  11.406  0.4290 -1.4986 -0.1877
11749TIP3   OH256661   1.490   3.776   0.600  0.1844  0.0840  0.3207
11749TIP3    H156662   1.582   3.760   0.620  0.4968  0.4965 -0.6710
11749TIP3    H256663   1.449   3.690   0.607  0.2810  0.1577  2.4163
11750TIP3   OH256664   4.370   3.438  11.325  0.3129 -0.1017 -0.2054
11750TIP3    H156665   4.380   3.523  11.282  0.0186  0.8294  1.4718
11750TIP3    H256666   4.299   3.395  11.277 -1.4474  1.7612  0.5926
11751TIP3   OH256667   5.846   2.881  13.538 -0.4067  0.0198  0.0876
11751TIP3    H156668   5.802   2.952  13.585  1.7001  1.3744  0.1245
11751TIP3    H256669   5.794   2.803  13.558 -2.5144  1.4322  0.4520
11752TIP3   OH256670   3.257   0.618   0.696  0.4636 -0.4866  0.5183
11752TIP3    H156671   3.336   0.608   0.749  1.0555  1.5684  0.1242
11752TIP3    H256672   3.278   0.688   0.634 -1.5066 -0.2051  0.0909
11753TIP3   OH256673   3.919   6.649   1.341  0.5394  0.1070 -0.1906
11753TIP3    H156674   3.988   6.611   1.396  1.0134  2.9585  1.3773
11753TIP3    H256675   3.839   6.641   1.393 -0.0951 -1.7103 -1.3274
11754TIP3   OH256676   3.836   2.677  13.250 -0.2417 -0.4954  0.5491
11754TIP3    H156677   3.790   2.702  13.330  1.6348 -0.7080  1.7741
11754TIP3    H256678   3.923   2.650  13.280  0.4336 -0.8643 -1.5493
11755TIP3   OH256679   2.678   2.390  11.040  0.0984 -0.3167 -0.2606
11755TIP3    H156680   2.721   2.306  11.053  3.7087  1.3524 -0.1927
11755TIP3    H256681   2.692   2.410  10.947 -0.3396  0.4274 -0.1759
11756TIP3   OH256682   3.185   2.680   3.921  0.2374  0.2339 -0.4428
11756TIP3    H156683   3.096   2.709   3.942  0.5743 -0.3318  2.1167
11756TIP3    H256684   3.185   2.586   3.939  1.5821  0.3988  0.5935
11757TIP3   OH256685   1.176   6.568  14.508 -0.5905  0.2836  0.5125
11757TIP3    H156686   1.211   6.651  14.542  1.1603 -0.1016 -0.1984
11757TIP3    H256687   1.238   6.502  14.539 -1.4712 -0.6543  0.3207
11758TIP3   OH256688   1.970   3.882   2.945  0.1893  0.0810  0.5185
11758TIP3    H156689   1.982   3.832   3.025  2.1541 -1.2185 -0.4965
11758TIP3    H256690   1.983   3.818   2.875 -0.0013  1.4713 -0.8406
11759TIP3   OH256691   5.173   5.315  15.442  0.3322 -0.8914 -0.5853
11759TIP3    H156692   5.229   5.318  15.520  0.3428 -1.5723 -0.5658
11759TIP3    H256693   5.128   5.400  15.443 -0.6907 -1.4073  0.9246
11760TIP3   OH256694   0.494   4.305  16.534  0.4373 -0.3122 -0.6651
11760TIP3    H156695   0.423   4.259  16.578  1.5354 -0.8718  0.6070
11760TIP3    H256696   0.572   4.284  16.586  1.3186  1.3505 -1.2307
11761TIP3   OH256697   4.385   3.104  15.519 -0.2496 -0.0909  0.2641
11761TIP3    H156698   4.435   3.128  15.442 -0.3780  0.1230  0.2490
11761TIP3    H256699   4.384   3.182  15.574 -0.9735  0.0619  0.0510
11762TIP3   OH256700   0.987   4.288   3.692  0.6289  0.3645  0.3276
11762TIP3    H156701   0.916   4.350   3.677  1.7240  2.1091  1.9696
11762TIP3    H256702   0.955   4.206   3.653 -2.0392  1.2064  0.5023
11763TIP3   OH256703   2.978   3.865  15.302 -0.0006 -0.0160 -0.6748
11763TIP3    H156704   3.048   3.930  15.295  1.1086 -1.0341  0.4220
11763TIP3    H256705   3.024   3.781  15.299 -1.2056 -0.7131 -0.1831
11764TIP3   OH256706   4.801   5.992  16.702 -0.1004 -0.0699 -0.2443
11764TIP3    H156707   4.839   5.920  16.753  0.7082 -0.2030 -1.0115
11764TIP3    H256708   4.877   6.039  16.668 -0.6035 -0.5156 -2.0878
11765TIP3   OH256709   1.055   0.393   4.834  0.7100 -0.0200  0.1210
11765TIP3    H156710   1.131   0.337   4.849  1.5189  1.4004  1.7350
11765TIP3    H256711   0.980   0.340   4.861  1.1071 -1.3703 -1.3094
11766TIP3   OH256712   3.794   5.947  15.700 -0.7778  0.4098 -0.0296
11766TIP3    H156713   3.790   5.982  15.610 -1.4918 -1.2411 -0.6765
11766TIP3    H256714   3.849   6.009  15.747 -0.3588  1.3057 -1.6260
11767TIP3   OH256715   1.067   4.792   1.635 -0.1268  0.2651 -0.1671
11767TIP3    H156716   1.098   4.748   1.556  0.7479  0.8428 -0.1448
11767TIP3    H256717   0.978   4.757   1.648  0.6661 -1.7943  0.0597
11768TIP3   OH256718   0.799   5.181  15.359  0.1728  0.1067 -0.3633
11768TIP3    H156719   0.725   5.240  15.345 -0.0699  0.2516  1.3288
11768TIP3    H256720   0.874   5.229  15.325 -0.3873  0.2908 -1.3641
11769TIP3   OH256721   6.478   5.968   5.113  0.6042  0.4660 -0.2859
11769TIP3    H156722   6.529   5.990   5.191  1.1135 -0.5016 -0.3411
11769TIP3    H256723   6.398   6.020   5.122  1.6886  2.2729 -0.3543
11770TIP3   OH256724   2.522   3.545   1.001 -0.6613  0.7499 -0.3945
11770TIP3    H156725   2.521   3.522   1.093  0.5724  0.5493 -0.4163
11770TIP3    H256726   2.440   3.593   0.987 -0.9492  0.6116  0.7497
11771TIP3   OH256727   3.158   0.565  16.606 -0.1837  0.3175 -0.2327
11771TIP3    H156728   3.223   0.598  16.668 -0.0263 -1.2670  0.5030
11771TIP3    H256729   3.095   0.518  16.661  0.6971 -2.3172 -1.3426
11772TIP3   OH256730   5.458   1.167  13.289  0.7572  0.4594  0.0824
11772TIP3    H156731   5.422   1.144  13.203  0.3374 -1.9872  0.8318
11772TIP3    H256732   5.412   1.248  13.313 -1.7176 -0.6697 -0.5284
11773TIP3   OH256733   0.251   1.682  16.692 -0.3198 -0.5271 -0.0372
11773TIP3    H156734   0.259   1.589  16.712 -1.1780 -0.6646 -0.2884
11773TIP3    H256735   0.324   1.723  16.739 -0.4726 -1.2118  0.8336
11774TIP3   OH256736   1.748   6.660   1.127  0.4940  0.3595  0.1270
11774TIP3    H156737   1.785   6.581   1.168  0.0060  0.8217  1.5019
11774TIP3    H256738   1.721   6.631   1.040  0.4973 -0.9455  0.5385
11775TIP3   OH256739   3.565   5.790   0.647  0.2517 -0.5622 -0.8814
11775TIP3    H156740   3.630   5.763   0.712  0.0343  1.5376  0.3278
11775TIP3    H256741   3.481   5.771   0.689  0.1079  1.0507 -0.3699
11776TIP3   OH256742   4.740   1.875   4.047  0.6877 -0.4980 -0.2400
11776TIP3    H156743   4.754   1.954   3.996 -1.8743 -0.2656 -0.7458
11776TIP3    H256744   4.755   1.803   3.986  0.9162 -0.3313 -0.3791
11777TIP3   OH256745   4.749   1.899  15.838  0.7455  0.0912  0.0864
11777TIP3    H156746   4.665   1.864  15.865  0.1756  1.9527  0.8856
11777TIP3    H256747   4.760   1.868  15.748 -0.3379 -0.9397  0.2864
11778TIP3   OH256748   0.573   2.158   2.242  0.1249  0.1746  0.4834
11778TIP3    H156749   0.512   2.115   2.301  0.3808  1.4085  1.6860
11778TIP3    H256750   0.575   2.249   2.270  2.3954  0.2246  0.3887
11779TIP3   OH256751   2.652   6.516  15.859 -0.2295  0.3762  0.0050
11779TIP3    H156752   2.689   6.553  15.779  0.4881  0.3844  0.3357
11779TIP3    H256753   2.698   6.560  15.930  0.0073 -0.5097  0.4176
11780TIP3   OH256754   3.956   2.068  15.574 -0.4936 -0.0521 -0.2559
11780TIP3    H156755   3.997   1.998  15.524  1.1813  1.1456 -0.6681
11780TIP3    H256756   4.026   2.100  15.631 -1.3125  1.0474  0.1741
11781TIP3   OH256757   5.939   3.420  12.999 -0.1611  0.5798 -0.3321
11781TIP3    H156758   5.845   3.414  13.014  0.0110  0.3702  0.7048
11781TIP3    H256759   5.965   3.332  12.972 -0.1281  0.4361  0.1697
11782TIP3   OH256760   6.477   3.052   5.254 -0.1724  0.3512 -0.0711
11782TIP3    H156761   6.516   3.064   5.341  0.2025 -0.1780 -0.1610
11782TIP3    H256762   6.532   3.105   5.195 -0.3347  0.5876 -0.0131
11783TIP3   OH256763   3.291   4.597   1.850  0.0567  0.3180 -0.2073
11783TIP3    H156764   3.298   4.687   1.820 -1.6744 -0.0980 -2.1174
11783TIP3    H256765   3.368   4.583   1.904 -0.2846  3.2968  1.2006
11784TIP3   OH256766   1.932   4.602  14.219 -0.9271  0.7019 -0.0056
11784TIP3    H156767   1.893   4.665  14.279 -1.9106 -0.6911  0.8825
11784TIP3    H256768   1.994   4.553  14.273 -2.3253 -1.0296  0.1222
11785TIP3   OH256769   4.560   3.267   1.941 -0.9427 -0.0008 -0.7872
11785TIP3    H156770   4.633   3.286   2.000 -0.1670  0.9033 -1.9846
11785TIP3    H256771   4.502   3.343   1.950 -1.1243 -0.1418 -0.7554
11786TIP3   OH256772   4.754   5.788  14.700 -0.1553 -0.4047 -0.5002
11786TIP3    H156773   4.774   5.751  14.787  1.0063  2.3057  0.4774
11786TIP3    H256774   4.807   5.735  14.640  0.9903 -0.7567  0.7489
11787TIP3   OH256775   0.962   2.105   5.321  0.0541  0.2725  0.2369
11787TIP3    H156776   0.970   2.200   5.333 -0.8323  0.3645  0.2191
11787TIP3    H256777   1.036   2.081   5.265  1.5393  0.5969  1.9946
11788TIP3   OH256778   1.714   6.390   6.004 -0.3799  0.1055  0.0878
11788TIP3    H156779   1.692   6.335   6.079  0.3339 -0.2402  0.0573
11788TIP3    H256780   1.784   6.447   6.037 -0.0715 -0.0417 -0.3041
11789TIP3   OH256781   5.533   4.157  14.909 -0.1096  0.5596 -0.5604
11789TIP3    H156782   5.620   4.191  14.932 -0.3138  1.5550 -1.1822
11789TIP3    H256783   5.472   4.214  14.957 -0.4844  1.6285 -2.2245
11790TIP3   OH256784   1.593   0.075   4.807 -0.2344 -0.0624 -0.5700
11790TIP3    H156785   1.500   0.077   4.784 -0.1691  0.2210 -0.8006
11790TIP3    H256786   1.612   0.163   4.838 -0.2124 -0.3106  0.1523
11791TIP3   OH256787   0.442   5.098   4.413 -0.3437  0.2836  0.3982
11791TIP3    H156788   0.410   5.146   4.336 -1.2432 -1.1225 -0.1602
11791TIP3    H256789   0.536   5.111   4.412 -0.2450 -0.3080 -1.4168
11792TIP3   OH256790   0.660   3.430  16.841 -0.1874  0.6583 -0.4439
11792TIP3    H156791   0.617   3.430  16.926 -0.1919  0.7504 -0.4456
11792TIP3    H256792   0.749   3.462  16.859 -0.1125  0.4472 -0.4362
11793TIP3   OH256793   1.428   2.753   1.526 -0.4928 -0.2557 -0.2568
11793TIP3    H156794   1.465   2.722   1.609  1.6674  1.1432 -0.6252
11793TIP3    H256795   1.363   2.819   1.552  2.0715  2.1956  0.4080
11794TIP3   OH256796   5.785   6.392  11.899 -0.5222  0.2218 -0.2593
11794TIP3    H156797   5.739   6.460  11.849 -1.4186  1.8745  2.5882
11794TIP3    H256798   5.727   6.315  11.893 -0.9369  0.5918 -1.1712
11795TIP3   OH256799   6.178   2.745  12.990  0.1475 -0.3433  0.0560
11795TIP3    H156800   6.185   2.784  13.078 -2.1125 -0.3527  0.3081
11795TIP3    H256801   6.220   2.659  12.999  0.8153  0.0523  0.8619
11796TIP3   OH256802   2.956   2.665   6.456  0.6738  0.5379  0.2361
11796TIP3    H156803   3.017   2.660   6.382 -0.5308 -1.5210 -0.7147
11796TIP3    H256804   2.961   2.579   6.497  2.9304  2.2158  4.0608
11797TIP3   OH256805   1.542   4.982  12.543 -0.1531 -0.1496 -0.0763
11797TIP3    H156806   1.572   4.892  12.535 -0.6299 -0.4049  0.8432
11797TIP3    H256807   1.517   5.007  12.454 -1.2726 -1.3767 -0.1407
11798TIP3   OH256808   5.885   0.351   5.970 -0.1675 -0.0732  0.1429
11798TIP3    H156809   5.964   0.309   6.005  0.3836 -0.1326 -1.1067
11798TIP3    H256810   5.817   0.331   6.034  0.5200 -1.2436  0.5470
11799TIP3   OH256811   6.305   4.495   0.428  0.5341 -0.4011 -0.3636
11799TIP3    H156812   6.255   4.418   0.401 -0.6131 -0.0527  0.6890
11799TIP3    H256813   6.298   4.496   0.524 -0.3216  1.5717 -0.4097
11800TIP3   OH256814   4.639   1.690  16.163 -0.0555 -0.9110  0.2034
11800TIP3    H156815   4.675   1.621  16.108 -1.7658 -0.3463 -1.7779
11800TIP3    H256816   4.708   1.709  16.227  2.8682 -0.3844 -2.8403
11801TIP3   OH256817   0.836   1.700  15.331 -0.1050 -0.4190 -0.4263
11801TIP3    H156818   0.823   1.783  15.286 -1.0297 -0.5160 -0.3663
11801TIP3    H256819   0.931   1.693  15.342 -0.0990  1.7012  1.5751
11802TIP3   OH256820   0.702   0.250   4.100  0.0539 -0.0130  0.0161
11802TIP3    H156821   0.616   0.281   4.073 -0.5912  0.4821  2.3581
11802TIP3    H256822   0.692   0.156   4.113  0.0779 -0.0750 -0.4065
11803TIP3   OH256823   6.152   6.155  16.033 -0.2011  0.5274  0.0010
11803TIP3    H156824   6.139   6.155  16.128  1.2152 -0.6638  0.2330
11803TIP3    H256825   6.216   6.086  16.018 -0.6648  0.4510 -1.8758
11804TIP3   OH256826   5.169   4.595   4.390  0.5641 -0.1434  0.0659
11804TIP3    H156827   5.259   4.591   4.359  0.7886  0.2475  0.6566
11804TIP3    H256828   5.125   4.652   4.327  0.5799 -0.8071 -0.5629
11805TIP3   OH256829   4.011   1.731  14.087  0.3587  0.1223  0.1960
11805TIP3    H156830   3.972   1.677  14.156  1.3611  1.2164  1.6912
11805TIP3    H256831   4.068   1.670  14.039  1.8944 -0.1345  2.1801
11806TIP3   OH256832   2.913   6.423   5.778 -0.4799 -0.6094  0.4337
11806TIP3    H156833   2.855   6.353   5.746 -2.0595  0.8507 -0.0490
11806TIP3    H256834   2.864   6.462   5.850 -0.1369  0.7133 -0.0378
11807TIP3   OH256835   4.896   5.430  13.389 -0.2088 -0.5856 -0.1126
11807TIP3    H156836   4.880   5.341  13.422 -1.9642 -1.6249 -3.3213
11807TIP3    H256837   4.809   5.469  13.382  0.1871  0.0681 -1.9933
11808TIP3   OH256838   2.303   5.093   1.199  0.6832 -0.0786 -0.2155
11808TIP3    H156839   2.390   5.092   1.239 -0.2586  0.3656  2.0220
11808TIP3    H256840   2.275   5.184   1.207 -1.4696 -0.8243  2.8135
11809TIP3   OH256841   2.840   5.193  13.769 -0.1786  0.2705 -0.3126
11809TIP3    H156842   2.753   5.171  13.734 -0.4513  1.2489 -0.2797
11809TIP3    H256843   2.824   5.215  13.861  0.2762 -0.5699 -0.0139
11810TIP3   OH256844   4.789   3.108  10.772 -0.1189 -0.0842  0.3378
11810TIP3    H156845   4.773   3.036  10.711 -0.0838 -0.0281  0.2608
11810TIP3    H256846   4.730   3.178  10.742  0.8528  0.4269 -0.4638
11811TIP3   OH256847   1.093   6.691  15.236 -0.1481 -0.0498  0.2684
11811TIP3    H156848   1.148   6.734  15.171  0.6621 -1.3828  0.0425
11811TIP3    H256849   1.141   6.699  15.318 -0.9971  1.3042  0.6688
11812TIP3   OH256850   4.908   0.237   3.851 -0.0365  0.4412 -0.0657
11812TIP3    H156851   4.895   0.206   3.761  1.5682 -0.2809 -0.0845
11812TIP3    H256852   4.831   0.291   3.869  0.2430  1.7413 -2.3553
11813TIP3   OH256853   4.516   6.254   3.027 -0.4085  0.4499  0.1497
11813TIP3    H156854   4.512   6.159   3.039 -0.8113  0.4516  0.0348
11813TIP3    H256855   4.479   6.290   3.107 -2.1518  0.4753 -0.6308
11814TIP3   OH256856   3.927   2.730  16.442 -0.2739  0.1169 -0.0281
11814TIP3    H156857   3.925   2.698  16.533  0.6201 -1.6907 -0.5948
11814TIP3    H256858   3.990   2.802  16.443  1.0584 -1.0298  0.4706
11815TIP3   OH256859   1.046   2.021  16.598  0.0848 -0.5203  0.2220
11815TIP3    H156860   0.995   1.997  16.521 -0.6039 -0.7807  0.7530
11815TIP3    H256861   1.061   1.938  16.644 -2.2032 -0.0527  2.0021
11816TIP3   OH256862   2.125   5.514   5.805  0.7839 -0.2252  0.2113
11816TIP3    H156863   2.069   5.587   5.779  1.7676 -0.4944 -3.1442
11816TIP3    H256864   2.191   5.554   5.862 -0.9882  0.6431  1.7662
11817TIP3   OH256865   0.825   5.030  14.257 -0.4618  0.1265 -0.0476
11817TIP3    H156866   0.846   5.114  14.297  0.4060  0.4620 -1.1636
11817TIP3    H256867   0.889   4.969  14.293  1.5985  0.8269 -2.2775
11818TIP3   OH256868   6.746   2.477  16.195 -0.5815  0.2878  0.2697
11818TIP3    H156869   6.701   2.524  16.265 -2.4609 -1.0788  0.0383
11818TIP3    H256870   6.755   2.541  16.124 -3.3397  0.2958 -0.1599
11819TIP3   OH256871   2.382   2.690  13.394 -0.3092  0.8854  0.0643
11819TIP3    H156872   2.329   2.731  13.463 -1.0697  1.9902 -1.1467
11819TIP3    H256873   2.325   2.688  13.318  0.3622 -0.7551 -0.4338
11820TIP3   OH256874   4.444   1.912   5.628 -0.0282  0.3819 -0.1665
11820TIP3    H156875   4.448   2.006   5.642  1.2351  0.4187 -0.6224
11820TIP3    H256876   4.399   1.901   5.545  0.3253  0.6183 -0.3909
11821TIP3   OH256877   3.906   0.665  15.578  0.0511  0.3197  0.0229
11821TIP3    H156878   3.911   0.574  15.548 -1.3048 -0.2699  1.4120
11821TIP3    H256879   3.821   0.695  15.547  0.0696  0.7791  0.4104
11822TIP3   OH256880   1.070   2.715   5.368  0.1964  0.7527  0.0773
11822TIP3    H156881   1.143   2.661   5.337  0.2476  0.4709  0.6743
11822TIP3    H256882   1.107   2.802   5.379  0.2991  0.7420 -0.1766
11823TIP3   OH256883   1.100   2.430   4.049 -0.3470  0.4766 -0.1087
11823TIP3    H156884   1.034   2.431   3.980  0.7465  1.9069 -1.2177
11823TIP3    H256885   1.170   2.374   4.015 -0.5469 -0.2189  0.6109
11824TIP3   OH256886   2.178   1.787   4.891 -0.0984 -0.3925 -0.1861
11824TIP3    H156887   2.161   1.831   4.808 -0.3896 -1.8221 -0.9048
11824TIP3    H256888   2.183   1.694   4.869  1.7355 -0.6544  1.1042
11825TIP3   OH256889   0.960   3.542   4.723  0.4408  0.7349 -0.7040
11825TIP3    H156890   1.010   3.616   4.690  1.2337 -0.7018 -2.9160
11825TIP3    H256891   1.017   3.466   4.709 -0.7687 -0.4526  0.4872
11826TIP3   OH256892   6.222   3.798  16.487  0.2267 -0.2959  0.0684
11826TIP3    H156893   6.228   3.769  16.396  1.6465 -0.3604  0.1475
11826TIP3    H256894   6.274   3.879  16.490 -0.6094  0.2405  0.6286
11827TIP3   OH256895   1.723   2.726  15.502  0.4395  0.1369 -0.3277
11827TIP3    H156896   1.775   2.778  15.440  0.3901  0.4326 -0.1219
11827TIP3    H256897   1.788   2.684  15.558  0.4518  1.2770  0.5579
11828TIP3   OH256898   2.705   0.582  15.009 -0.3558 -0.0524  0.0517
11828TIP3    H156899   2.683   0.641  14.937 -0.5306 -0.7267 -0.4511
11828TIP3    H256900   2.793   0.551  14.989  0.2735  1.0210  0.9897
11829TIP3   OH256901   6.374   1.735   3.376  0.0417 -0.3467 -0.2597
11829TIP3    H156902   6.372   1.646   3.342 -0.1276 -1.5562  2.6355
11829TIP3    H256903   6.466   1.760   3.370  0.1180 -0.7632 -0.9481
11830TIP3   OH256904   6.197   1.982  12.748  0.3643  0.2827  0.0482
11830TIP3    H156905   6.192   1.988  12.843  0.6660  0.7851  0.0423
11830TIP3    H256906   6.206   1.889  12.729  0.1090  0.1673  0.5003
11831TIP3   OH256907   0.869   0.379   1.152  0.3109  0.6955 -0.0379
11831TIP3    H156908   0.888   0.400   1.060 -0.3319  0.1471 -0.3030
11831TIP3    H256909   0.935   0.427   1.202 -0.4933  2.5297 -0.6689
11832TIP3   OH256910   3.696   3.720   1.925 -0.4304 -0.8398  0.6587
11832TIP3    H156911   3.601   3.703   1.923 -0.2667 -1.7896 -1.2924
11832TIP3    H256912   3.723   3.718   1.833  1.6338 -1.4596  1.2178
11833TIP3   OH256913   1.119   1.214  11.097 -0.3978 -0.6836  0.6268
11833TIP3    H156914   1.196   1.230  11.151  0.8051 -2.0864 -0.5721
11833TIP3    H256915   1.128   1.277  11.025 -0.3707 -0.8477  0.4862
11834TIP3   OH256916   1.547   0.134   3.487  0.0725 -0.2016  0.4446
11834TIP3    H156917   1.572   0.191   3.559  0.0093  1.4572 -0.7749
11834TIP3    H256918   1.570   0.184   3.408  1.3295 -2.4380 -0.7139
11835TIP3   OH256919   5.176   5.074  14.562 -0.1979  0.1964  0.9947
11835TIP3    H156920   5.106   5.061  14.498 -0.2173  2.3136  0.4933
11835TIP3    H256921   5.256   5.064  14.511 -0.1873  0.2674  0.9972
11836TIP3   OH256922   4.155   4.517   1.311  0.5202  0.5110 -0.1429
11836TIP3    H156923   4.150   4.422   1.296 -0.8570  0.2781  1.4892
11836TIP3    H256924   4.249   4.535   1.320  0.7196 -1.0696  1.4759
11837TIP3   OH256925   2.470   4.766  15.104 -0.0148 -0.4970 -0.4293
11837TIP3    H156926   2.448   4.682  15.063  1.4869 -0.4382 -1.4203
11837TIP3    H256927   2.565   4.767  15.107  0.0651  1.6668 -1.5323
11838TIP3   OH256928   4.811   1.657  13.187  0.0596 -0.4574  0.1570
11838TIP3    H156929   4.882   1.643  13.125 -0.0250  1.6234 -0.4592
11838TIP3    H256930   4.768   1.571  13.194  0.8982 -1.0521 -1.6179
11839TIP3   OH256931   4.462   1.678  14.864  0.1098 -0.2641  0.7598
11839TIP3    H156932   4.545   1.640  14.894  0.5382 -1.0808 -1.3008
11839TIP3    H256933   4.404   1.603  14.854 -0.3648  0.1139  0.6633
11840TIP3   OH256934   4.312   4.787   5.004  0.1037 -0.0848  0.2343
11840TIP3    H156935   4.347   4.850   5.067  0.8594 -0.4313  0.1663
11840TIP3    H256936   4.242   4.835   4.959 -0.2888  0.2433  1.1638
11841TIP3   OH256937   4.109   6.570  14.730 -0.3568 -0.0184  0.7007
11841TIP3    H156938   4.103   6.665  14.741  1.2275  0.1915 -0.0019
11841TIP3    H256939   4.179   6.543  14.790 -0.9621 -0.8024  1.0849
11842TIP3   OH256940   6.679   5.515  15.341 -0.4906  0.3777  0.1508
11842TIP3    H156941   6.738   5.583  15.372  2.9446 -1.9473 -0.7975
11842TIP3    H256942   6.666   5.458  15.418 -2.5366  1.4121  0.6574
11843TIP3   OH256943   0.417   0.717  16.629  0.1389  0.7037  0.2856
11843TIP3    H156944   0.498   0.669  16.637  0.5922  1.4327  0.1998
11843TIP3    H256945   0.398   0.748  16.717 -1.1712 -1.2024  0.7314
11844TIP3   OH256946   0.867   4.501   5.001 -0.1365  0.3008 -0.1396
11844TIP3    H156947   0.879   4.516   4.907  0.6760 -0.0556 -0.0991
11844TIP3    H256948   0.925   4.564   5.043  2.3280 -1.9444  0.0502
11845TIP3   OH256949   2.218   6.582  16.714 -0.4167 -0.7497  0.3959
11845TIP3    H156950   2.164   6.656  16.742  0.1171  0.0531 -0.6209
11845TIP3    H256951   2.211   6.581  16.619  0.6560 -1.1750  0.2980
11846TIP3   OH256952   2.730   5.351  17.101 -0.1281 -0.2360  0.0172
11846TIP3    H156953   2.824   5.368  17.103  0.5758 -3.2185 -1.1946
11846TIP3    H256954   2.707   5.350  17.008 -0.9636 -1.0979  0.2093
11847TIP3   OH256955   3.546   1.402   3.910 -0.5857  0.5082  0.1491
11847TIP3    H156956   3.485   1.384   3.838 -0.9589  0.3889  0.4902
11847TIP3    H256957   3.573   1.315   3.940 -1.7588  0.5101  1.2687
11848TIP3   OH256958   3.907   1.483  11.188 -0.2641 -0.0759  0.3028
11848TIP3    H156959   3.955   1.561  11.161 -0.5250 -0.0949 -0.2359
11848TIP3    H256960   3.830   1.517  11.234 -0.8344  0.0144 -0.7016
11849TIP3   OH256961   5.251   6.596   2.408 -0.3302 -0.1072  0.2965
11849TIP3    H156962   5.337   6.601   2.449 -0.1586 -1.4491  0.1420
11849TIP3    H256963   5.197   6.548   2.471 -0.8937  0.4517  0.2536
11850TIP3   OH256964   4.081   0.848  14.138 -0.1585  0.3783 -0.0521
11850TIP3    H156965   4.172   0.867  14.117 -0.4910  1.9178 -0.2334
11850TIP3    H256966   4.061   0.768  14.090  0.6916  0.8052 -1.1586
11851TIP3   OH256967   1.008   0.987   2.067 -0.0565 -0.9068 -0.1238
11851TIP3    H156968   1.087   0.944   2.034  0.6313 -0.3785  0.8192
11851TIP3    H256969   0.965   0.920   2.120 -1.0081 -1.6616 -1.7534
11852TIP3   OH256970   5.227   1.383   1.173 -0.0655  0.0049 -0.3432
11852TIP3    H156971   5.177   1.325   1.230 -0.1064 -0.8735 -1.2358
11852TIP3    H256972   5.303   1.409   1.224 -0.5820  0.0116  0.4379
11853TIP3   OH256973   0.079   3.723   5.091 -0.3069  0.1653  0.3926
11853TIP3    H156974   0.056   3.631   5.085 -1.3572  0.4859 -1.0138
11853TIP3    H256975   0.169   3.727   5.060 -0.7950 -0.2099 -1.1836
11854TIP3   OH256976   5.173   2.473  14.613  0.2976  0.6707 -0.3251
11854TIP3    H156977   5.154   2.529  14.538  0.4734 -0.6783 -1.4208
11854TIP3    H256978   5.092   2.423  14.627  0.7262 -0.0982 -0.5316
11855TIP3   OH256979   0.070   5.275   1.328  0.3060  0.0335 -0.2369
11855TIP3    H156980   0.141   5.259   1.266  0.0329  0.6531 -0.7103
11855TIP3    H256981  -0.009   5.280   1.274  0.0564  0.4972  0.1668
11856TIP3   OH256982   3.767   4.928   5.809 -0.0459  0.0051  0.9194
11856TIP3    H156983   3.725   4.869   5.746 -0.5454  0.3661  0.9104
11856TIP3    H256984   3.714   5.007   5.807 -0.0938  0.0095  1.8223
11857TIP3   OH256985   0.356   5.013  11.847 -0.4065 -0.3762 -0.3837
11857TIP3    H156986   0.351   5.041  11.756 -0.3975 -0.0045 -0.2719
11857TIP3    H256987   0.448   4.990  11.860 -0.2802  0.1443 -0.3070
11858TIP3   OH256988   0.885   2.939  12.684 -0.2695  0.5449 -0.1162
11858TIP3    H156989   0.795   2.953  12.714 -0.1563  1.7081 -0.2789
11858TIP3    H256990   0.931   3.019  12.709  0.4102  0.5004 -1.1911
11859TIP3   OH256991   2.578   0.016   4.967 -0.5734 -0.3171 -0.5298
11859TIP3    H156992   2.636   0.005   5.042 -0.5556  2.1844 -0.0884
11859TIP3    H256993   2.621  -0.030   4.896 -0.6740 -2.9351  0.9668
11860TIP3   OH256994   3.063   4.623  12.499 -0.3575  0.5820  0.1053
11860TIP3    H156995   3.118   4.611  12.577 -1.2256  1.0160  0.7996
11860TIP3    H256996   3.017   4.706  12.515 -0.0422  1.0285 -1.1802
11861TIP3   OH256997   4.161   6.405   5.584 -0.1826 -0.7255 -0.4612
11861TIP3    H156998   4.120   6.492   5.579  2.7124  0.8406  0.5097
11861TIP3    H256999   4.147   6.377   5.674 -0.8131 -1.1350 -0.6795
11862TIP3   OH257000   0.107   3.492   1.361 -0.0576 -0.5918  0.1822
11862TIP3    H157001   0.185   3.546   1.359 -0.2150 -0.3808 -0.7099
11862TIP3    H257002   0.137   3.406   1.332 -0.2339 -0.3931 -0.6125
11863TIP3   OH257003   4.206   4.849  16.554 -0.0854 -0.3428 -0.0916
11863TIP3    H157004   4.245   4.837  16.640  0.1467 -1.5854 -0.3520
11863TIP3    H257005   4.236   4.936  16.526 -1.2475  0.6774  1.6024
11864TIP3   OH257006   1.500   5.464   0.156 -0.1553  0.0537  0.3673
11864TIP3    H157007   1.436   5.490   0.222  0.1562 -1.1939  1.2152
11864TIP3    H257008   1.565   5.534   0.157 -0.9871  0.8565  0.1878
11865TIP3   OH257009   6.522   1.622  10.691  0.5491 -0.4596  0.2225
11865TIP3    H157010   6.576   1.589  10.619  0.3754  0.9034 -0.5636
11865TIP3    H257011   6.540   1.716  10.694  2.4613 -0.7394  3.5922
11866TIP3   OH257012   1.973   4.724  13.667  0.1413  0.3656  0.2727
11866TIP3    H157013   2.060   4.688  13.652  0.5878  0.8922  1.4569
11866TIP3    H257014   1.944   4.684  13.749 -1.4902 -1.1404 -0.9830
11867TIP3   OH257015   1.095   1.879  11.495  0.5542  0.4218 -0.2718
11867TIP3    H157016   1.069   1.859  11.405  0.6768  1.0473 -0.4500
11867TIP3    H257017   1.155   1.808  11.519  1.1999  0.7192 -0.9841
11868TIP3   OH257018   1.447   3.843  14.493 -0.3469 -0.2807  0.0109
11868TIP3    H157019   1.503   3.912  14.529  0.9176 -0.7943 -0.8711
11868TIP3    H257020   1.468   3.765  14.546 -2.7060  0.2388  1.8483
11869TIP3   OH257021   2.527   2.169  14.339 -0.3487 -0.1317  0.3411
11869TIP3    H157022   2.546   2.126  14.422 -0.9085 -3.9020 -1.2529
11869TIP3    H257023   2.593   2.135  14.279 -1.2262  0.7968 -1.2289
11870TIP3   OH257024   1.734   6.137   5.650  0.1068  0.3113 -0.3291
11870TIP3    H157025   1.667   6.205   5.657 -0.2787  0.1924 -2.2584
11870TIP3    H257026   1.718   6.079   5.724 -1.8044  0.4186 -0.6206
11871TIP3   OH257027   3.489   1.644   2.960 -0.1681 -0.0656 -0.6351
11871TIP3    H157028   3.449   1.731   2.961 -0.4913 -0.1962  1.0928
11871TIP3    H257029   3.578   1.658   2.993 -0.3726 -0.4235  0.1057
11872TIP3   OH257030   1.451   6.248  13.029 -0.1402 -0.8110 -0.0930
11872TIP3    H157031   1.497   6.183  12.976 -2.5908 -2.5926 -0.1606
11872TIP3    H257032   1.386   6.198  13.078  0.0092  1.1788  2.3737
11873TIP3   OH257033   4.586   0.445  14.442  0.2447 -0.1679  0.5722
11873TIP3    H157034   4.545   0.500  14.375  1.2574 -0.6557 -0.4617
11873TIP3    H257035   4.515   0.389  14.473 -0.2881  0.2260  0.0889
11874TIP3   OH257036   3.897   5.259   6.001 -0.0511  0.0281  0.2030
11874TIP3    H157037   3.899   5.172   5.962 -1.7850  0.4761 -1.0092
11874TIP3    H257038   3.820   5.257   6.059 -0.1505  0.7610  0.1080
11875TIP3   OH257039   2.961   4.261  16.232 -0.2026 -0.3703 -0.3952
11875TIP3    H157040   3.037   4.205  16.219 -0.6325 -0.6948 -1.6877
11875TIP3    H257041   2.974   4.334  16.171  0.2051  0.8199  1.0534
11876TIP3   OH257042   4.089   1.706  15.204  0.0018 -0.4086 -0.1858
11876TIP3    H157043   4.076   1.617  15.172  0.7073 -0.2620 -0.9085
11876TIP3    H257044   4.178   1.729  15.176  0.3370  0.0354  1.1668
11877TIP3   OH257045   0.085   5.019   0.012  0.0638  0.1912 -0.2621
11877TIP3    H157046   0.134   4.948   0.053 -1.2709 -1.0283 -0.6827
11877TIP3    H257047   0.122   5.025  -0.076 -1.0658 -1.3556 -0.8989
11878TIP3   OH257048   4.100   1.297  12.441 -0.2953 -0.3603  0.2375
11878TIP3    H157049   4.138   1.370  12.394  1.6758  0.9380  3.4970
11878TIP3    H257050   4.040   1.337  12.504  0.2498 -1.5703  1.5872
11879TIP3   OH257051   4.873   1.322   2.992  0.5926  0.2768 -0.1219
11879TIP3    H157052   4.806   1.254   2.993  1.3578 -0.4993  0.6377
11879TIP3    H257053   4.892   1.336   2.899 -0.9060  0.8342 -0.3763
11880TIP3   OH257054   2.326   5.522  11.371  0.5083 -0.5832 -0.3687
11880TIP3    H157055   2.281   5.478  11.442 -1.0289  0.4277 -0.6654
11880TIP3    H257056   2.345   5.610  11.405  0.4577 -0.3479 -0.9338
11881TIP3   OH257057   4.156   3.792   0.709  0.2519  0.3128  0.5832
11881TIP3    H157058   4.191   3.703   0.703  0.6139  0.4129  1.1097
11881TIP3    H257059   4.097   3.800   0.634  0.5714 -0.2136  0.2689
11882TIP3   OH257060   5.804   2.538  14.078  0.0261 -0.3476 -0.7794
11882TIP3    H157061   5.746   2.516  14.151 -0.9126 -2.7332 -2.1323
11882TIP3    H257062   5.883   2.573  14.120 -0.4370 -1.6991  1.4043
11883TIP3   OH257063   1.076   2.072   0.524  0.2253 -0.2661  0.5544
11883TIP3    H157064   1.111   1.983   0.511  0.5335 -0.3614  1.9443
11883TIP3    H257065   1.132   2.110   0.591 -0.4368  0.6940  0.5743
11884TIP3   OH257066   2.745   0.569   5.716 -0.2774 -0.6455 -0.1577
11884TIP3    H157067   2.835   0.600   5.727 -0.1894 -1.3388  1.1927
11884TIP3    H257068   2.754   0.476   5.695 -0.6523 -0.4369 -1.3564
11885TIP3   OH257069   5.966   2.328  12.240  0.4064 -0.0952  0.2852
11885TIP3    H157070   6.013   2.259  12.193 -0.9284 -0.4245 -0.6434
11885TIP3    H257071   5.982   2.309  12.332  2.6916  0.2642  0.0282
11886TIP3   OH257072   0.117   4.466   5.353  0.7010  0.5658 -0.7861
11886TIP3    H157073   0.070   4.497   5.276 -0.5368 -1.3548 -0.8603
11886TIP3    H257074   0.136   4.375   5.335  0.2790  0.0319  1.2050
11887TIP3   OH257075   3.280   5.061   3.098  0.0843  0.1216 -0.1602
11887TIP3    H157076   3.231   5.057   3.016  0.1298 -0.6210 -0.1583
11887TIP3    H257077   3.351   5.123   3.080  0.7495 -0.8659 -1.0471
11888TIP3   OH257078   2.489   3.975  11.346 -0.4007 -0.5054  0.0745
11888TIP3    H157079   2.429   3.933  11.283 -0.1045  0.1287 -0.6433
11888TIP3    H257080   2.476   4.069  11.332  0.0752 -0.3608  0.5871
11889TIP3   OH257081   2.438   6.010   1.817  0.4168 -0.0977  0.1183
11889TIP3    H157082   2.405   6.077   1.756 -0.8139 -1.1159 -0.4001
11889TIP3    H257083   2.494   5.954   1.763  1.0990  0.2697  0.4466
11890TIP3   OH257084   1.502   5.468  10.340 -0.5163 -0.4108  0.6090
11890TIP3    H157085   1.445   5.544  10.328  2.2484  2.1999  2.8841
11890TIP3    H257086   1.479   5.434  10.426 -0.2232 -0.8207  0.5282
11891TIP3   OH257087   3.997   4.940  10.654  0.3689  0.4306 -0.3613
11891TIP3    H157088   3.964   4.985  10.576 -1.8157 -1.4248 -0.6064
11891TIP3    H257089   4.041   4.862  10.620 -1.3712 -0.8635  0.1949
11892TIP3   OH257090   3.871   5.382   1.134  0.5008 -0.3214  0.6383
11892TIP3    H157091   3.867   5.388   1.038  0.1454 -0.4840  0.6437
11892TIP3    H257092   3.829   5.462   1.165 -0.6432 -0.9102  0.6675
11893TIP3   OH257093   4.745   2.101   3.406  0.8160 -0.2626  0.1561
11893TIP3    H157094   4.803   2.169   3.370  0.9153  0.4123  1.4929
11893TIP3    H257095   4.663   2.111   3.357  1.5018 -0.5839 -1.0964
11894TIP3   OH257096   4.431   1.703  14.121  0.0221 -0.5792 -0.2357
11894TIP3    H157097   4.388   1.757  14.055 -0.3125  0.4798  0.8088
11894TIP3    H257098   4.421   1.614  14.090 -2.5822 -0.3531 -0.2408
11895TIP3   OH257099   3.401   5.144  16.721  0.0250 -0.2097  0.7092
11895TIP3    H157100   3.430   5.094  16.798 -3.0665 -0.8680  1.6072
11895TIP3    H257101   3.365   5.225  16.757  1.8404  1.1720 -0.4448
11896TIP3   OH257102   3.546   2.506   5.291 -0.0488  0.4366 -0.4093
11896TIP3    H157103   3.537   2.428   5.237  0.2560  0.0918  0.0363
11896TIP3    H257104   3.515   2.577   5.235 -0.6606 -0.0442 -0.6979
11897TIP3   OH257105   6.304   1.345  14.735  0.6843  1.1580  0.0526
11897TIP3    H157106   6.364   1.414  14.706  1.0294  1.1336  0.7108
11897TIP3    H257107   6.219   1.371  14.699  0.9711  1.4946 -0.3944
11898TIP3   OH257108   2.269   5.340  11.559 -0.0100  0.3369  0.1589
11898TIP3    H157109   2.330   5.271  11.583 -1.6559 -2.7592 -3.5816
11898TIP3    H257110   2.192   5.324  11.613 -0.1085 -0.3101 -0.1656
11899TIP3   OH257111   5.639   4.580   6.572  0.2407  0.6780  0.4086
11899TIP3    H157112   5.705   4.636   6.530 -0.8173  0.1819 -2.0689
11899TIP3    H257113   5.671   4.491   6.558 -1.1385  0.4019 -1.2889
11900TIP3   OH257114   3.929   3.596  14.215 -0.6732  0.1710  0.2681
11900TIP3    H157115   3.870   3.534  14.172 -0.8201 -0.3936  1.2630
11900TIP3    H257116   3.892   3.682  14.196 -1.4455 -0.1455  0.3294
11901TIP3   OH257117   1.504   1.961  13.924 -0.0476  0.0317 -0.1148
11901TIP3    H157118   1.490   1.981  13.832 -0.4709  0.6380  0.0729
11901TIP3    H257119   1.418   1.935  13.957 -0.1938  1.0933  0.4032
11902TIP3   OH257120   0.182   4.312  12.477 -0.2001  0.0132 -0.2550
11902TIP3    H157121   0.224   4.248  12.533 -1.3412 -0.4427  0.1146
11902TIP3    H257122   0.109   4.346  12.529  0.9425  2.3760 -0.0540
11903TIP3   OH257123   6.370   3.522  13.322  0.2133 -0.2036  0.0211
11903TIP3    H157124   6.328   3.608  13.334  0.5267 -0.1900  1.1615
11903TIP3    H257125   6.302   3.467  13.283 -0.6493  0.0168  1.1549
11904TIP3   OH257126   1.231   3.442  14.193 -0.0704 -0.4146 -0.2675
11904TIP3    H157127   1.171   3.395  14.252 -1.3188 -1.4601 -2.2358
11904TIP3    H257128   1.198   3.532  14.192 -2.2022 -1.1290 -1.8857
11905TIP3   OH257129   6.033   3.130   3.626  0.1552 -0.1814  0.0442
11905TIP3    H157130   5.966   3.198   3.617 -0.4259 -0.9364 -1.8110
11905TIP3    H257131   6.063   3.139   3.717 -0.2883  2.1597  0.0442
11906TIP3   OH257132   6.682   3.719   0.903  0.1627 -0.3770 -0.2755
11906TIP3    H157133   6.749   3.683   0.845  1.2895  1.0133  0.0861
11906TIP3    H257134   6.689   3.667   0.983  0.7023 -0.3566 -0.3036
11907TIP3   OH257135   5.135   0.669   4.841 -0.1721  0.6004 -0.2458
11907TIP3    H157136   5.116   0.589   4.889 -1.4681  0.3239 -1.1832
11907TIP3    H257137   5.088   0.738   4.888 -2.0276  0.2183 -1.4746
11908TIP3   OH257138   0.931   4.523   1.532  0.1954  0.1365 -0.4251
11908TIP3    H157139   0.994   4.532   1.604  1.3298 -1.0146 -1.2251
11908TIP3    H257140   0.862   4.586   1.552  0.9702  0.5288  1.1537
11909TIP3   OH257141   4.794   3.218  11.927 -0.0849 -0.2774  0.4357
11909TIP3    H157142   4.846   3.239  12.004  1.0319 -0.6840 -0.1864
11909TIP3    H257143   4.742   3.142  11.953 -1.5245  1.0459  1.5462
11910TIP3   OH257144   5.598   2.167   4.448  0.1353 -0.0355 -0.5782
11910TIP3    H157145   5.558   2.252   4.467 -3.6998 -1.4956 -1.1751
11910TIP3    H257146   5.577   2.150   4.356  0.1852 -1.9032 -0.2840
11911TIP3   OH257147   5.979   3.712  16.560 -0.1275 -0.1196  0.0729
11911TIP3    H157148   5.968   3.781  16.626 -2.2383 -1.8317  1.6745
11911TIP3    H257149   6.071   3.718  16.534  0.8258  0.7142  3.1634
11912TIP3   OH257150   4.069   3.251  10.944 -0.4575  0.0032  0.0633
11912TIP3    H157151   4.045   3.305  11.019 -1.0702  0.1604 -0.2429
11912TIP3    H257152   4.061   3.309  10.869  1.8957  0.3805  0.0258
11913TIP3   OH257153   3.790   6.646  14.116  0.8381 -0.2672 -0.5764
11913TIP3    H157154   3.753   6.707  14.052 -2.2395  0.4675  1.6814
11913TIP3    H257155   3.827   6.702  14.184  0.3558 -0.9368  0.2583
11914TIP3   OH257156   5.774   3.386   1.452 -0.4892 -0.1616  0.7061
11914TIP3    H157157   5.689   3.429   1.440 -0.0213  0.5679 -0.0481
11914TIP3    H257158   5.836   3.440   1.403  0.6061 -0.0907  2.0957
11915TIP3   OH257159   3.718   4.593  16.936 -0.5095  0.3729 -0.3682
11915TIP3    H157160   3.764   4.677  16.941 -1.1023  0.6692  0.2311
11915TIP3    H257161   3.636   4.613  16.892 -0.6715  0.1114 -0.1866
11916TIP3   OH257162   0.691   1.386  14.386 -0.1790 -0.1636 -0.4232
11916TIP3    H157163   0.681   1.295  14.413  2.3139  0.1908  2.1868
11916TIP3    H257164   0.611   1.429  14.417 -0.2378 -1.0277  0.7041
11917TIP3   OH257165   5.792   2.494   6.052  0.3562  0.0004  0.0481
11917TIP3    H157166   5.753   2.564   5.999  1.5647 -1.2440 -2.6604
11917TIP3    H257167   5.771   2.414   6.005  1.8500 -1.1598  1.2598
11918TIP3   OH257168   1.031   5.057  12.275  0.7194  0.8596 -0.3434
11918TIP3    H157169   0.967   4.989  12.254  0.1907  1.3768 -0.4256
11918TIP3    H257170   1.079   5.022  12.351 -0.5240  1.0042  0.5426
11919TIP3   OH257171   3.967   2.777  14.556 -0.1659  0.4381  0.2321
11919TIP3    H157172   4.058   2.755  14.537 -0.4699 -0.8354  0.1794
11919TIP3    H257173   3.956   2.760  14.650 -0.6726 -0.6484 -0.0108
11920TIP3   OH257174   0.837   5.151  16.527  0.3446  0.5145 -0.0201
11920TIP3    H157175   0.811   5.158  16.619  0.7458  0.5459  0.0894
11920TIP3    H257176   0.846   5.057  16.512 -0.4444  0.4603 -0.2303
11921TIP3   OH257177   2.374   4.373   0.628 -0.1162  0.1902 -0.4453
11921TIP3    H157178   2.454   4.375   0.576  0.1183 -2.5094 -0.3289
11921TIP3    H257179   2.403   4.396   0.717  0.2067  0.8779 -0.7248
11922TIP3   OH257180   3.856   5.440  12.868  0.0890  0.9686 -0.1888
11922TIP3    H157181   3.787   5.385  12.907  0.0778  1.5205  0.5868
11922TIP3    H257182   3.813   5.484  12.795 -0.0711  0.4329 -0.4213
11923TIP3   OH257183   1.160   3.035  16.349  0.0134  0.7407  0.1632
11923TIP3    H157184   1.126   3.087  16.277 -0.7396 -0.0598 -0.0831
11923TIP3    H257185   1.223   3.092  16.393 -1.8448  2.3982  0.8134
11924TIP3   OH257186   3.329   4.795  10.745  0.1175  0.1411  0.3440
11924TIP3    H157187   3.384   4.820  10.819  1.3359 -0.3665 -0.3612
11924TIP3    H257188   3.283   4.876  10.721 -1.4037  0.0003  2.5045
11925TIP3   OH257189   1.869   4.334  12.260 -0.6841  0.2874 -0.1019
11925TIP3    H157190   1.778   4.311  12.278 -0.0263 -0.9344  1.9979
11925TIP3    H257191   1.915   4.250  12.261  0.5849  0.9576 -0.3703
11926TIP3   OH257192   5.936   4.607   4.154  0.3216  0.0402 -0.6045
11926TIP3    H157193   5.847   4.572   4.150  0.4916 -0.6066  0.5915
11926TIP3    H257194   5.987   4.552   4.094  0.4979 -1.5918  0.9358
11927TIP3   OH257195   5.990   6.436   0.863  0.2982  0.2993 -0.0570
11927TIP3    H157196   6.045   6.361   0.887  0.2267 -0.0666 -0.9918
11927TIP3    H257197   6.050   6.509   0.857  0.8802 -0.2714 -1.9380
11928TIP3   OH257198   6.179   2.031   2.167  0.2944 -0.5196  0.4028
11928TIP3    H157199   6.176   2.115   2.213  2.6113  0.1520 -0.5215
11928TIP3    H257200   6.226   1.973   2.227 -1.1521 -1.1526  0.9668
11929TIP3   OH257201   6.352   4.612  11.941  0.0725  0.4004  0.4650
11929TIP3    H157202   6.345   4.531  11.991  1.9344 -0.3988 -0.4696
11929TIP3    H257203   6.295   4.600  11.865  2.1942 -1.1884 -1.0139
11930TIP3   OH257204   6.416   5.645   2.613 -0.3942 -0.4747 -0.0405
11930TIP3    H157205   6.465   5.680   2.539 -0.6188 -0.2334 -0.0764
11930TIP3    H257206   6.452   5.691   2.689  1.5097 -2.4251  0.3210
11931TIP3   OH257207   6.160   0.474   4.610  0.0586  0.3960 -0.8100
11931TIP3    H157208   6.079   0.429   4.636  0.1570  1.1758  0.9849
11931TIP3    H257209   6.151   0.561   4.648  2.0628  0.2682  0.0539
11932TIP3   OH257210   5.694   2.844   2.538 -0.1275 -0.3943  0.0710
11932TIP3    H157211   5.742   2.798   2.607 -1.2256  0.1315  1.2278
11932TIP3    H257212   5.663   2.924   2.580  0.8390  0.9200 -1.5996
11933TIP3   OH257213   4.273   3.750   1.058 -0.2192 -0.4728  0.4516
11933TIP3    H157214   4.360   3.711   1.059 -0.3344 -0.7411  0.2823
11933TIP3    H257215   4.217   3.683   1.018 -0.1361  0.4781 -1.3775
11934TIP3   OH257216   6.266   4.004   2.686  0.2102  0.1243 -0.0145
11934TIP3    H157217   6.243   4.025   2.595  2.2506  2.5426 -0.1035
11934TIP3    H257218   6.224   4.073   2.737  1.8152  0.8021  0.4573
11935TIP3   OH257219   4.288   4.288   3.981 -0.0417 -0.2891  0.1431
11935TIP3    H157220   4.319   4.212   4.030 -0.4947 -0.9042 -0.5047
11935TIP3    H257221   4.232   4.335   4.043  0.3266 -0.4130  0.5805
11936TIP3   OH257222   5.296   6.066  12.838  0.8450 -0.5077 -0.6018
11936TIP3    H157223   5.235   6.137  12.858  0.8793 -0.5751 -0.2503
11936TIP3    H257224   5.346   6.097  12.762  1.9601  0.5349  0.5106
11937TIP3   OH257225   6.415   3.990  10.896 -0.0911 -0.2962  0.0911
11937TIP3    H157226   6.483   3.922  10.894 -0.1641 -0.3499 -0.8086
11937TIP3    H257227   6.461   4.069  10.925  0.0209 -0.6863  1.0166
11938TIP3   OH257228   2.506   5.955  13.564 -0.0403 -0.2873 -0.6749
11938TIP3    H157229   2.430   5.996  13.524 -0.2632 -0.1532 -0.1206
11938TIP3    H257230   2.499   5.863  13.542 -0.6038 -0.3467 -0.2485
11939TIP3   OH257231   1.192   5.554   5.474  0.1964  0.1759 -0.6289
11939TIP3    H157232   1.120   5.574   5.414  0.7324 -1.4601 -1.8865
11939TIP3    H257233   1.157   5.489   5.534  0.2548  0.3184 -0.4389
11940TIP3   OH257234   1.769   5.175   0.684  0.5098 -0.0945  0.2660
11940TIP3    H157235   1.721   5.257   0.677  0.0883 -0.3271  0.3801
11940TIP3    H257236   1.861   5.199   0.674  0.3163  0.2522 -0.7086
11941TIP3   OH257237   5.696   4.459  13.080  0.4267  0.3969 -0.0725
11941TIP3    H157238   5.726   4.535  13.032  0.6854 -1.0154 -2.2754
11941TIP3    H257239   5.768   4.439  13.140  0.5505  1.5785  0.1964
11942TIP3   OH257240   6.585   5.729   4.598  0.1001 -0.1744 -0.2777
11942TIP3    H157241   6.621   5.701   4.682  0.9887  0.4154 -0.4541
11942TIP3    H257242   6.533   5.654   4.569 -0.1205 -0.4389  0.7291
11943TIP3   OH257243   1.186   3.879   4.234 -0.4913  0.1773 -0.2112
11943TIP3    H157244   1.166   3.952   4.176  0.4683  0.0070 -0.7822
11943TIP3    H257245   1.164   3.910   4.322  0.9303  1.5566 -0.3104
11944TIP3   OH257246   2.085   3.209  10.872 -0.7516 -0.1303  0.2345
11944TIP3    H157247   2.137   3.287  10.854 -1.3531  0.4366  0.9115
11944TIP3    H257248   2.031   3.232  10.947 -2.4689 -0.4743 -0.8398
11945TIP3   OH257249   3.800   2.305   0.085  0.1429  0.3674  0.2508
11945TIP3    H157250   3.774   2.260   0.165 -1.8800 -0.6090 -0.9052
11945TIP3    H257251   3.808   2.236   0.020  1.5269  1.1797 -0.4801
11946TIP3   OH257252   4.211   4.342   1.029 -0.4659 -0.0154 -0.7534
11946TIP3    H157253   4.118   4.343   1.050 -0.6253 -1.0964 -1.3549
11946TIP3    H257254   4.222   4.414   0.967 -0.6973  0.7685  0.0976
11947TIP3   OH257255   6.587   1.788   5.554 -0.4573 -0.2583 -0.7153
11947TIP3    H157256   6.654   1.745   5.606 -1.9323 -1.3944  0.3332
11947TIP3    H257257   6.523   1.819   5.618 -0.5179  1.6338 -1.6173
11948TIP3   OH257258   3.974   2.882   5.722 -0.0605 -0.5197  0.9512
11948TIP3    H157259   4.051   2.937   5.711 -0.1329 -0.7514 -1.0526
11948TIP3    H257260   3.930   2.917   5.800  0.3424  1.7059  0.2437
11949TIP3   OH257261   5.303   5.651  15.431  0.3502 -0.0948 -0.0742
11949TIP3    H157262   5.287   5.745  15.432  0.5607 -0.0468  1.2457
11949TIP3    H257263   5.215   5.612  15.435  0.2641  0.0334 -0.6067
11950TIP3   OH257264   1.616   4.893   3.522 -0.0423 -0.2682 -0.2251
11950TIP3    H157265   1.711   4.877   3.520 -0.2063 -1.2939 -0.4913
11950TIP3    H257266   1.589   4.865   3.610 -0.0499  0.3243 -0.0387
11951TIP3   OH257267   5.329   2.651  15.972  0.5451  0.0752 -0.5200
11951TIP3    H157268   5.266   2.594  16.016 -0.8795  2.2887  0.4971
11951TIP3    H257269   5.306   2.645  15.879 -1.2243  0.8041 -0.1755
11952TIP3   OH257270   0.366   6.480  14.480  0.3315  0.5310 -0.4983
11952TIP3    H157271   0.315   6.409  14.441 -1.7327  2.9599 -2.5769
11952TIP3    H257272   0.453   6.470  14.442 -0.1240 -0.4388 -1.3523
11953TIP3   OH257273   6.440   2.602   3.608  0.7551  0.1290  0.2927
11953TIP3    H157274   6.432   2.569   3.519 -0.0268  1.2268 -0.0717
11953TIP3    H257275   6.404   2.532   3.663 -1.5198  0.5834 -0.5086
11954TIP3   OH257276   5.244   6.725   0.533 -0.2699 -0.1259  0.1064
11954TIP3    H157277   5.217   6.694   0.619 -0.9883 -1.6410 -0.6304
11954TIP3    H257278   5.205   6.813   0.526  1.0037  0.6224  1.8509
11955TIP3   OH257279   4.138   2.231   0.661 -0.2903 -0.5167  0.2886
11955TIP3    H157280   4.166   2.265   0.747 -1.2443  1.6465 -0.1636
11955TIP3    H257281   4.217   2.193   0.623  0.8520  0.9980  1.0146
11956TIP3   OH257282   5.476   6.415  14.384  0.2794  0.2491  0.4831
11956TIP3    H157283   5.480   6.434  14.477 -0.1335 -0.5621  0.6801
11956TIP3    H257284   5.399   6.360  14.374 -0.2416  1.1159 -0.4903
11957TIP3   OH257285   2.611   1.885  17.062  0.2587 -0.5047 -0.3401
11957TIP3    H157286   2.681   1.873  16.998 -0.9399 -0.4104 -1.7144
11957TIP3    H257287   2.646   1.950  17.123  0.3787  1.6870 -2.5815
11958TIP3   OH257288   1.844   4.487   4.933 -0.1317 -0.1116 -0.6863
11958TIP3    H157289   1.829   4.485   4.839  0.2357 -0.2702 -0.7415
11958TIP3    H257290   1.855   4.395   4.957  0.3022 -0.0294 -0.5717
11959TIP3   OH257291   3.359   2.895   4.307  0.1026 -0.3717  0.2666
11959TIP3    H157292   3.431   2.836   4.286  0.0205 -0.7001  0.8581
11959TIP3    H257293   3.368   2.969   4.247  2.4317  0.8507  1.9855
11960TIP3   OH257294   2.362   4.081   6.481 -0.6593  0.3083 -0.3871
11960TIP3    H157295   2.307   4.003   6.484 -0.1807 -0.0140  1.8275
11960TIP3    H257296   2.319   4.143   6.541  0.5196  0.6314  0.1585
11961TIP3   OH257297   5.097   1.688  15.456 -0.1112  0.3933  0.2981
11961TIP3    H157298   5.151   1.679  15.534 -1.0461  0.6601  0.9864
11961TIP3    H257299   5.031   1.752  15.479 -0.2319  0.7050 -0.8215
11962TIP3   OH257300   0.059   5.445   1.723 -0.3171  0.4154 -0.0898
11962TIP3    H157301   0.115   5.510   1.681  1.0485  0.0621  1.1136
11962TIP3    H257302   0.010   5.405   1.651  0.7155  0.9817 -1.1359
11963TIP3   OH257303   3.810   5.664   5.834  0.0530  0.0956 -0.4501
11963TIP3    H157304   3.880   5.600   5.828 -0.6161 -0.6217 -0.8158
11963TIP3    H257305   3.782   5.679   5.744 -0.3660  0.2511 -0.3022
11964TIP3   OH257306   4.419   0.173   2.805 -0.4008  0.0379 -0.2844
11964TIP3    H157307   4.467   0.164   2.887 -1.8011 -2.5259  0.3392
11964TIP3    H257308   4.351   0.237   2.824  0.9148  1.5295 -0.3355
11965TIP3   OH257309   2.097   2.602  10.552 -0.2720 -0.2055 -0.2546
11965TIP3    H157310   2.033   2.616  10.622 -0.6007 -0.3426 -0.5240
11965TIP3    H257311   2.048   2.621  10.471  0.0616 -0.1928 -0.4529
11966TIP3   OH257312   2.820   0.917  12.168  0.1852  0.7740  0.2317
11966TIP3    H157313   2.807   0.971  12.246  1.9789  2.4900 -0.5657
11966TIP3    H257314   2.852   0.833  12.201 -2.5151  0.1604  1.5017
11967TIP3   OH257315   2.142   2.977  17.012  0.5316  0.4204  0.1637
11967TIP3    H157316   2.230   3.011  17.000  0.9393 -0.5418  0.3536
11967TIP3    H257317   2.151   2.906  17.075 -0.0435 -0.9849 -1.2530
11968TIP3   OH257318   4.681   0.319   0.699 -0.5842 -0.5355 -0.6337
11968TIP3    H157319   4.628   0.276   0.766  1.5574 -1.1095  0.8125
11968TIP3    H257320   4.678   0.412   0.723  0.9907 -0.8430  0.9839
11969TIP3   OH257321   3.703   6.405   6.016 -0.2462  0.2932 -0.5616
11969TIP3    H157322   3.759   6.331   5.995 -0.0107  0.7046 -1.4484
11969TIP3    H257323   3.631   6.368   6.068  0.2285 -0.4245 -0.4015
11970TIP3   OH257324   2.346   2.750  10.569 -0.3427 -0.5871 -0.1271
11970TIP3    H157325   2.279   2.681  10.572  2.6342 -3.6912  0.7435
11970TIP3    H257326   2.374   2.751  10.477  0.9069 -2.0362  0.1905
11971TIP3   OH257327   1.659   2.838   2.837 -0.0513 -0.9877  0.1406
11971TIP3    H157328   1.585   2.835   2.897  0.0395  0.7468  0.3625
11971TIP3    H257329   1.680   2.746   2.821 -2.7919 -1.5761 -0.6056
11972TIP3   OH257330   0.617   2.815  15.465  0.3570  0.6281 -0.3924
11972TIP3    H157331   0.669   2.889  15.432  1.4767 -0.1461 -0.4442
11972TIP3    H257332   0.528   2.834  15.438  0.9613  0.8860 -2.4285
11973TIP3   OH257333   2.353   3.677  13.221 -0.3376  0.3380  0.4959
11973TIP3    H157334   2.331   3.584  13.230  1.3670 -0.3765 -1.7251
11973TIP3    H257335   2.447   3.681  13.238 -0.3661  1.6319  0.4565
11974TIP3   OH257336   3.067   4.449   1.142 -0.7451  0.0669 -0.2001
11974TIP3    H157337   2.987   4.415   1.182  0.5813 -2.0439  0.8791
11974TIP3    H257338   3.113   4.492   1.214 -0.2243 -0.0467 -0.4645
11975TIP3   OH257339   4.487   2.000   5.112 -0.1903 -0.2472  0.0420
11975TIP3    H157340   4.456   2.032   5.027  1.8548 -1.3304 -1.1761
11975TIP3    H257341   4.577   1.972   5.096  1.2190  1.9046  3.1857
11976TIP3   OH257342   6.198   1.074   0.314  0.3288  0.4666 -0.1337
11976TIP3    H157343   6.227   1.062   0.404 -0.0648  0.9505  0.0660
11976TIP3    H257344   6.115   1.026   0.309  1.2910 -1.2159 -0.8016
11977TIP3   OH257345   3.114   5.224   1.026 -0.3293  0.4606 -0.3023
11977TIP3    H157346   3.201   5.262   1.038 -0.7656  1.8592 -1.3147
11977TIP3    H257347   3.131   5.132   1.005  0.8537  0.5052  0.3627
11978TIP3   OH257348   3.792   2.662   5.668 -0.5728 -0.3099  0.5436
11978TIP3    H157349   3.811   2.749   5.703 -1.2400 -0.1352  0.4938
11978TIP3    H257350   3.710   2.674   5.620 -1.0112 -1.1088  1.0822
11979TIP3   OH257351   1.341   4.095  12.261 -0.0951  0.1333  0.3701
11979TIP3    H157352   1.255   4.079  12.222  0.7391 -0.6430 -1.2515
11979TIP3    H257353   1.337   4.185  12.293 -0.8527  0.8170 -1.5346
11980TIP3   OH257354   5.201   0.079  13.560 -0.1178  0.1963 -0.0851
11980TIP3    H157355   5.131   0.020  13.588  0.1974 -1.1685 -1.9425
11980TIP3    H257356   5.234   0.118  13.640 -1.1459 -1.2770  1.1075
11981TIP3   OH257357   6.015   2.779   4.989 -0.2517  0.2167  0.7368
11981TIP3    H157358   6.058   2.814   4.911  0.2083 -1.4931  0.1930
11981TIP3    H257359   6.086   2.761   5.050  0.2134 -4.1461 -0.7545
11982TIP3   OH257360   2.765   3.580   5.244 -0.1795  0.0071  0.4877
11982TIP3    H157361   2.724   3.650   5.193 -1.0316 -1.0685 -0.3301
11982TIP3    H257362   2.787   3.622   5.327  3.6759  2.5724 -1.5203
11983TIP3   OH257363   5.485   1.218   3.305 -0.2025  0.3917 -0.3166
11983TIP3    H157364   5.503   1.291   3.365 -2.5317  1.1762 -0.4789
11983TIP3    H257365   5.570   1.175   3.294  1.0631  2.5197  0.5100
11984TIP3   OH257366   1.367   4.725  14.928  0.6850  0.3682  0.0265
11984TIP3    H157367   1.371   4.816  14.900 -1.0452  0.4861  0.0846
11984TIP3    H257368   1.354   4.675  14.847 -0.4467  0.3652  0.2052
11985TIP3   OH257369   3.972   1.855   3.298  0.3753  0.1259 -0.0168
11985TIP3    H157370   3.934   1.942   3.289 -0.1719 -0.2870 -2.3014
11985TIP3    H257371   3.897   1.795   3.290  1.0077 -0.6053 -0.5292
11986TIP3   OH257372   1.302   2.714  11.145  0.8299  0.6294 -0.2848
11986TIP3    H157373   1.338   2.792  11.188  1.7313  0.5444 -0.8569
11986TIP3    H257374   1.341   2.715  11.058 -2.0940  1.6216 -1.7210
11987TIP3   OH257375   3.896   6.524   2.777 -0.0315  0.8480 -0.4022
11987TIP3    H157376   3.833   6.455   2.754  0.1850 -0.3771  2.2836
11987TIP3    H257377   3.971   6.509   2.720 -0.4332 -0.4777 -0.6111
11988TIP3   OH257378   0.228   0.847  15.219  0.4574 -0.2893  0.6502
11988TIP3    H157379   0.250   0.831  15.128  0.0547  0.4088  0.4198
11988TIP3    H257380   0.156   0.787  15.238 -1.3590  1.4517 -0.3405
11989TIP3   OH257381   1.654   0.459   0.260 -0.2225  0.0492  0.5405
11989TIP3    H157382   1.668   0.536   0.204  3.5653 -1.5031 -0.9300
11989TIP3    H257383   1.566   0.429   0.237 -0.0922  1.3955 -2.1932
11990TIP3   OH257384   5.394   1.475  12.183 -0.0724 -0.5621 -0.5047
11990TIP3    H157385   5.425   1.529  12.110 -0.0899  1.5434  0.9841
11990TIP3    H257386   5.430   1.516  12.261 -4.2012  0.4380  1.1345
11991TIP3   OH257387   3.491   1.520   6.189 -0.0561  0.1917 -0.8205
11991TIP3    H157388   3.518   1.558   6.105  4.3219  0.8019  0.6160
11991TIP3    H257389   3.527   1.432   6.188  1.5509  0.7690  0.9509
11992TIP3   OH257390   4.096   1.063   5.365  0.3391 -0.0108 -0.5358
11992TIP3    H157391   4.019   1.052   5.422 -0.0755 -1.0383 -1.2665
11992TIP3    H257392   4.170   1.035   5.420 -0.0779 -1.1968 -0.5380
11993TIP3   OH257393   3.200   6.658  15.941 -0.5814  0.5231 -0.1377
11993TIP3    H157394   3.208   6.708  16.022 -0.7493  0.2952  0.0213
11993TIP3    H257395   3.286   6.664  15.900 -1.0866  2.4633 -1.0224
11994TIP3   OH257396   1.120   3.059   6.375  0.4297 -0.2838  0.3979
11994TIP3    H157397   1.120   3.136   6.320  1.0958 -0.4696  0.1293
11994TIP3    H257398   1.053   3.002   6.337 -0.3027  0.3011  0.8038
11995TIP3   OH257399   1.360   3.416  15.291  0.1153  0.7653  0.1250
11995TIP3    H157400   1.422   3.479  15.327 -0.0231  0.7560  0.3785
11995TIP3    H257401   1.276   3.461  15.296 -0.2337 -0.0016  1.7132
11996TIP3   OH257402   5.104   4.366   6.382  0.3252 -0.6288 -0.0853
11996TIP3    H157403   5.084   4.452   6.345  0.9920 -0.1898  0.5405
11996TIP3    H257404   5.025   4.314   6.367 -0.4945  0.4146  0.4893
11997TIP3   OH257405   4.140   3.543  12.879 -0.1742  0.4606 -0.5579
11997TIP3    H157406   4.159   3.577  12.967  0.7666  1.6227 -1.1746
11997TIP3    H257407   4.182   3.457  12.878  0.4175  0.7262 -0.0785
11998TIP3   OH257408   5.228   5.248   1.521  0.1731 -0.1967 -0.0022
11998TIP3    H157409   5.234   5.167   1.573 -2.3291  0.3448  1.2951
11998TIP3    H257410   5.274   5.228   1.440  0.2478 -2.6857  0.5701
11999TIP3   OH257411   1.621   2.551  13.590 -0.5477 -0.3650  0.0714
11999TIP3    H157412   1.715   2.559  13.605 -0.3061 -0.1412 -1.3737
11999TIP3    H257413   1.611   2.467  13.546 -0.7859  0.3619 -1.3194
12000TIP3   OH257414   4.209   0.718   4.786  0.2210 -0.3066 -0.2165
12000TIP3    H157415   4.117   0.735   4.807 -0.0424 -0.7377 -0.9859
12000TIP3    H257416   4.216   0.622   4.785  0.9624 -0.2888  1.0044
12001TIP3   OH257417   4.621   6.754  14.762 -0.3262  0.7054  0.3673
12001TIP3    H157418   4.673   6.829  14.734 -0.9750  2.0671  2.5706
12001TIP3    H257419   4.679   6.705  14.820 -0.0609 -0.2906 -0.7000
12002TIP3   OH257420   0.731   3.416  12.766 -0.0389  0.2916  0.3906
12002TIP3    H157421   0.793   3.487  12.785  0.0114  0.3626 -0.0369
12002TIP3    H257422   0.673   3.414  12.843 -0.6910  1.4986 -0.0346
12003TIP3   OH257423   3.626   0.409   4.709 -0.0008 -0.1950 -0.0748
12003TIP3    H157424   3.628   0.402   4.804  0.6840  1.8881  0.1137
12003TIP3    H257425   3.692   0.347   4.679 -0.9404 -1.6205  0.7183
12004TIP3   OH257426   2.662   2.481  11.405 -0.3410  0.3352 -0.0834
12004TIP3    H157427   2.587   2.443  11.360 -0.5140 -0.4181  0.8006
12004TIP3    H257428   2.737   2.459  11.350 -0.4917 -0.9817  0.1972
12005TIP3   OH257429   3.656   5.997   2.687  0.1515 -0.1344  1.1358
12005TIP3    H157430   3.656   5.990   2.782 -1.9709 -0.1595  1.1670
12005TIP3    H257431   3.567   5.974   2.660  0.7605 -0.3660 -0.8794
12006TIP3   OH257432   0.049   0.484  12.631  0.1123  0.3879  0.0682
12006TIP3    H157433  -0.033   0.530  12.646 -0.7277 -1.8798  3.9127
12006TIP3    H257434   0.101   0.501  12.709  0.3837 -3.5425  0.9926
12007TIP3   OH257435   1.090   3.678   2.506 -0.1133 -0.0981  0.8869
12007TIP3    H157436   1.146   3.633   2.442 -1.1316 -0.1349 -0.0029
12007TIP3    H257437   1.130   3.765   2.516 -0.3565  0.1803 -0.3896
12008TIP3   OH257438   4.649   2.442   2.587 -0.0761 -0.3521 -0.0880
12008TIP3    H157439   4.640   2.436   2.682 -0.9899 -0.7382 -0.1943
12008TIP3    H257440   4.609   2.526   2.563 -0.4718 -0.5732 -0.2063
12009TIP3   OH257441   1.060   5.063  15.614 -0.9577  0.1319  0.1620
12009TIP3    H157442   1.062   4.971  15.641 -1.7160  0.7040  2.4229
12009TIP3    H257443   0.967   5.081  15.599 -0.7582  0.4132 -0.8172
12010TIP3   OH257444   5.644   1.915   0.852  0.1033  0.4311  0.3581
12010TIP3    H157445   5.602   1.997   0.829 -0.2447  0.9173  2.4678
12010TIP3    H257446   5.578   1.848   0.835 -1.2593  1.0723  2.5741
12011TIP3   OH257447   1.127   5.994  15.712  0.2677  0.2641 -0.1950
12011TIP3    H157448   1.050   5.945  15.741 -0.1505  0.6495 -0.6183
12011TIP3    H257449   1.165   6.029  15.793  0.4067 -0.5163  0.0787
12012TIP3   OH257450   5.542   0.919  12.260  0.2130  0.3973  0.2846
12012TIP3    H157451   5.449   0.937  12.266  0.1006  0.4380 -1.1151
12012TIP3    H257452   5.579   0.996  12.215  0.9767  0.5261  1.0993
12013TIP3   OH257453   2.009   0.251  12.829  0.3028  0.0188  0.1683
12013TIP3    H157454   1.933   0.299  12.796 -2.2373 -3.7251 -0.1843
12013TIP3    H257455   2.038   0.300  12.905 -5.3512 -0.3754  3.1057
12014TIP3   OH257456   4.591   3.430   3.965  0.1471 -0.4213  0.4844
12014TIP3    H157457   4.577   3.387   3.880  2.3626 -0.4595  0.0690
12014TIP3    H257458   4.685   3.420   3.981  0.0656  1.0556  2.1594
12015TIP3   OH257459   5.913   1.169   0.820 -0.5178 -0.5063 -0.6204
12015TIP3    H157460   5.975   1.120   0.766  0.2717  0.5664 -0.7162
12015TIP3    H257461   5.857   1.215   0.758 -0.6471 -0.5352 -0.5266
12016TIP3   OH257462   2.554   4.287  11.855  0.0859  0.6708  0.2184
12016TIP3    H157463   2.645   4.265  11.875 -0.5193 -1.0559  1.4245
12016TIP3    H257464   2.525   4.216  11.798  0.2217  2.6970 -2.5137
12017TIP3   OH257465   3.769   5.120  17.146 -0.1512 -0.1635  0.1008
12017TIP3    H157466   3.815   5.196  17.181 -1.4967 -0.0517  1.7280
12017TIP3    H257467   3.693   5.156  17.100 -1.1466 -0.4835  1.4120
12018TIP3   OH257468   4.193   0.886   0.473  0.1447  0.7766  0.2948
12018TIP3    H157469   4.220   0.813   0.418  1.4310  0.3424  1.4239
12018TIP3    H257470   4.261   0.952   0.460  0.3942  0.7199  1.2340
12019TIP3   OH257471   4.751   0.913   4.288 -0.3103  0.5976  0.1674
12019TIP3    H157472   4.679   0.909   4.352 -0.5049 -0.0749 -0.0890
12019TIP3    H257473   4.716   0.872   4.210 -0.5835  2.7248 -0.9041
12020TIP3   OH257474   1.404   4.636   0.578  0.0042  0.0130  0.1536
12020TIP3    H157475   1.450   4.702   0.525  0.5036  0.6586  1.3455
12020TIP3    H257476   1.442   4.553   0.551  1.5135  0.4858  0.7149
12021TIP3   OH257477   5.388   0.894   2.873  0.2659 -0.2742 -0.2963
12021TIP3    H157478   5.322   0.959   2.850  1.7273  1.6389  0.6275
12021TIP3    H257479   5.435   0.878   2.791 -1.4645 -1.9071 -1.0440
12022TIP3   OH257480   1.013   0.860  11.408 -0.2671  0.5383  0.1478
12022TIP3    H157481   0.996   0.786  11.467 -0.3363 -0.1769 -0.7341
12022TIP3    H257482   0.959   0.841  11.331 -1.0538  2.0239  0.2879
12023TIP3   OH257483   6.479   5.231   3.459  0.0959 -0.1587  0.1834
12023TIP3    H157484   6.545   5.223   3.390 -0.1859  1.4298 -0.3222
12023TIP3    H257485   6.518   5.293   3.521 -1.1721  1.3566 -0.4792
12024TIP3   OH257486   1.050   4.081  15.678 -0.1210  0.5358 -0.3050
12024TIP3    H157487   1.099   4.136  15.617 -0.1875  1.0673  0.1136
12024TIP3    H257488   0.963   4.074  15.638  0.1528 -0.0462 -0.8262
12025TIP3   OH257489   6.762   5.236  16.544 -0.9662  0.2679  0.3876
12025TIP3    H157490   6.839   5.180  16.538 -0.9390  0.4596 -1.7718
12025TIP3    H257491   6.787   5.306  16.604  1.0037  0.9567 -1.1318
12026TIP3   OH257492   1.386   2.584  13.751  0.2952 -0.1993  0.1998
12026TIP3    H157493   1.472   2.589  13.710  0.5915  0.0777  0.8347
12026TIP3    H257494   1.373   2.491  13.767  1.4081 -0.1104  1.9675
12027TIP3   OH257495   3.612   4.373  14.977  0.2506 -0.4642 -0.2071
12027TIP3    H157496   3.673   4.447  14.981 -1.5861  1.5776 -4.0647
12027TIP3    H257497   3.527   4.411  14.996 -0.6497 -1.7269 -1.5256
12028TIP3   OH257498   6.067   5.973  14.354 -0.3277 -0.1931  0.1187
12028TIP3    H157499   6.095   6.057  14.318 -1.2311  0.1526  0.1825
12028TIP3    H257500   5.996   5.944  14.296  1.5331 -2.1392 -1.3843
12029TIP3   OH257501   0.317   0.733   2.783  0.0259  0.1936  0.2729
12029TIP3    H157502   0.297   0.754   2.875  0.5284  1.3443  0.1239
12029TIP3    H257503   0.260   0.791   2.732 -1.2526 -1.3703 -0.1880
12030TIP3   OH257504   3.190   5.586   0.561  0.0940 -0.2556 -0.3275
12030TIP3    H157505   3.205   5.621   0.649  3.2328  0.6908 -1.0929
12030TIP3    H257506   3.241   5.505   0.558 -0.7632 -0.7931 -0.9951
12031TIP3   OH257507   0.944   4.216   5.887 -0.5037 -0.1837 -0.1668
12031TIP3    H157508   0.880   4.217   5.959 -0.4352  1.0843 -0.0915
12031TIP3    H257509   1.005   4.146   5.910 -1.0341 -0.4351  0.5196
12032TIP3   OH257510   1.133   0.114   3.401 -0.0773  0.5335  1.0254
12032TIP3    H157511   1.117   0.024   3.429  0.5263 -0.0065 -0.2930
12032TIP3    H257512   1.050   0.159   3.419 -0.3050 -0.2065  1.9377
12033TIP3   OH257513   2.407   5.098   0.777 -0.2254  0.1824  0.6566
12033TIP3    H157514   2.357   5.141   0.846 -0.5222 -0.4197  0.8291
12033TIP3    H257515   2.461   5.034   0.823 -1.5428 -1.3076  0.2421
12034TIP3   OH257516   3.796   6.690  12.956  0.3061  0.4239 -0.2055
12034TIP3    H157517   3.742   6.614  12.932 -0.0643  0.4841  0.4104
12034TIP3    H257518   3.828   6.670  13.043 -2.0137  2.1238  1.1476
12035TIP3   OH257519   1.129   3.973   4.916  0.3327 -0.4835 -0.0610
12035TIP3    H157520   1.188   3.898   4.914  1.7011  0.5618 -1.8647
12035TIP3    H257521   1.042   3.935   4.904  0.9580 -1.8048 -0.6292
12036TIP3   OH257522   2.355   1.702  16.741  0.0026 -0.2384  0.5022
12036TIP3    H157523   2.441   1.668  16.766 -0.7041 -2.3369  0.2036
12036TIP3    H257524   2.314   1.631  16.693 -1.3786  1.2357 -0.5905
12037TIP3   OH257525   0.497   2.972  14.399  0.2600  0.5278  0.5249
12037TIP3    H157526   0.504   2.911  14.326  0.2476  1.6676 -0.4662
12037TIP3    H257527   0.583   2.968  14.442  0.8576  1.0933 -0.5911
12038TIP3   OH257528   2.237   1.371   2.355 -0.1220 -0.0829 -0.3733
12038TIP3    H157529   2.324   1.396   2.323 -0.1889  1.0214  0.2764
12038TIP3    H257530   2.255   1.321   2.434 -0.1079  2.0951  1.0641
12039TIP3   OH257531   3.873   4.185   0.641  0.6309 -0.0114  0.0722
12039TIP3    H157532   3.842   4.099   0.614  1.9525 -0.4517 -0.1439
12039TIP3    H257533   3.937   4.209   0.574 -0.2621  1.4885 -0.2786
12040TIP3   OH257534   2.982   1.405  14.477  0.0570  0.2192  0.0001
12040TIP3    H157535   2.957   1.370  14.392  0.9760  0.5619 -0.4331
12040TIP3    H257536   3.045   1.341  14.511 -0.6467 -0.1465  0.6324
12041TIP3   OH257537   2.850   5.783  16.894 -0.3361 -0.1280  0.0474
12041TIP3    H157538   2.789   5.721  16.854  1.2046 -1.2545 -0.6144
12041TIP3    H257539   2.920   5.729  16.929  1.1828  1.2256 -0.7712
12042TIP3   OH257540   4.181   0.762   5.385  0.1197 -0.2662  0.1851
12042TIP3    H157541   4.221   0.846   5.404 -0.3642 -0.0168  0.1198
12042TIP3    H257542   4.223   0.733   5.304  2.4087 -1.4842  1.7124
12043TIP3   OH257543   1.844   2.147   3.054 -0.2961 -0.0477  0.2070
12043TIP3    H157544   1.901   2.223   3.036  1.3645 -1.2875 -0.0485
12043TIP3    H257545   1.812   2.121   2.967 -1.3922  0.7326  0.3662
12044TIP3   OH257546   0.592   6.572  15.617 -0.3143  0.6908  0.0803
12044TIP3    H157547   0.683   6.549  15.637 -0.3181  0.1756 -0.4691
12044TIP3    H257548   0.555   6.596  15.701  0.1828  0.3841  0.3921
12045TIP3   OH257549   6.645   2.497  12.329 -0.2727  0.4056 -0.4032
12045TIP3    H157550   6.611   2.422  12.379 -0.8375 -0.4045 -1.9306
12045TIP3    H257551   6.710   2.537  12.388 -1.0826 -0.3309  1.0638
12046TIP3   OH257552   6.381   5.573   3.652  0.1892  0.3120 -0.1081
12046TIP3    H157553   6.418   5.599   3.567  2.1396 -2.2107 -0.1509
12046TIP3    H257554   6.298   5.529   3.629  0.1846  0.5684 -0.6053
12047TIP3   OH257555   3.217   0.619   2.203 -0.6548  0.5535  0.3377
12047TIP3    H157556   3.275   0.594   2.131 -1.1997  1.0665 -0.3006
12047TIP3    H257557   3.209   0.714   2.196  0.3181  0.7795  1.8970
12048TIP3   OH257558   0.499   4.444  16.181 -0.3134  0.0668 -0.1488
12048TIP3    H157559   0.427   4.406  16.131  0.0881 -1.2335  0.2186
12048TIP3    H257560   0.463   4.458  16.269  0.1532 -1.6567  0.3629
12049TIP3   OH257561   5.392   4.764   4.260 -0.3168 -0.3501 -0.1602
12049TIP3    H157562   5.366   4.754   4.169  2.2877  1.9187 -1.2701
12049TIP3    H257563   5.487   4.761   4.259 -0.1530  1.3214  2.2419
12050TIP3   OH257564   4.985   0.345  15.125  1.2086 -0.2136 -0.3075
12050TIP3    H157565   4.957   0.300  15.046  1.3807  0.5467 -0.8094
12050TIP3    H257566   4.906   0.350  15.179  0.7677  0.4106 -0.9882
12051TIP3   OH257567   6.627   5.043   4.348 -0.1506 -1.2220  0.5417
12051TIP3    H157568   6.579   5.084   4.275  1.3955 -0.5344 -0.1347
12051TIP3    H257569   6.559   5.021   4.412 -1.0979  3.3892  1.4889
12052TIP3   OH257570   2.289   4.086  15.858 -0.2331 -0.1127  0.2885
12052TIP3    H157571   2.351   4.024  15.896 -2.9295 -2.2670  1.5398
12052TIP3    H257572   2.299   4.165  15.912 -0.5579 -1.4343  2.4251
12053TIP3   OH257573   2.211   4.253  17.190  0.3779  0.4549  0.0792
12053TIP3    H157574   2.176   4.165  17.204  0.7058  0.3611  0.3550
12053TIP3    H257575   2.144   4.312  17.223  0.4365  0.2821  0.5141
12054TIP3   OH257576   4.668   1.878  15.067 -0.1518  0.4998  0.5243
12054TIP3    H157577   4.698   1.843  14.983 -1.0023 -1.1786  0.8723
12054TIP3    H257578   4.745   1.920  15.105  0.1980  1.4787 -1.1642
12055TIP3   OH257579   3.844   6.589  16.722 -0.0720 -0.2060  0.3392
12055TIP3    H157580   3.850   6.684  16.725  0.3897 -0.2444  0.7739
12055TIP3    H257581   3.773   6.567  16.782  1.2683 -0.2515  1.9889
12056TIP3   OH257582   2.344   2.902   1.372  0.1492  0.3092 -0.6099
12056TIP3    H157583   2.426   2.931   1.411  0.1301 -0.1303 -0.2334
12056TIP3    H257584   2.369   2.830   1.314  0.1796  0.9721 -1.4343
12057TIP3   OH257585   4.584   6.317   2.398 -0.3308 -0.0730 -0.2110
12057TIP3    H157586   4.609   6.270   2.477  1.2118 -0.1959 -0.7397
12057TIP3    H257587   4.556   6.249   2.337  2.9525 -0.5694 -1.3700
12058TIP3   OH257588   2.076   1.544  15.630  0.3465 -0.4482  0.1428
12058TIP3    H157589   2.123   1.520  15.710  0.4697  0.7140  0.4401
12058TIP3    H257590   2.145   1.565  15.567  0.2437 -0.7666 -0.0776
12059TIP3   OH257591   4.193   3.879  12.343 -0.0018  0.0832 -0.0837
12059TIP3    H157592   4.172   3.859  12.251  0.7109  0.9291 -0.4417
12059TIP3    H257593   4.164   3.801  12.391 -1.2725  0.0235 -0.8974
12060TIP3   OH257594   1.114   1.484   6.320  0.1925 -0.0918  0.0774
12060TIP3    H157595   1.123   1.556   6.257  0.8137 -0.3588 -0.1441
12060TIP3    H257596   1.047   1.428   6.282 -1.5986  1.2521  1.1046
12061TIP3   OH257597   5.064   6.360   4.591  0.4298  0.8295 -0.5696
12061TIP3    H157598   5.021   6.412   4.523 -0.9695 -0.2166 -0.5090
12061TIP3    H257599   5.014   6.279   4.596  1.9479 -0.1187  0.0618
12062TIP3   OH257600   5.854   5.065   0.325 -0.2748  0.2762 -0.4167
12062TIP3    H157601   5.803   5.014   0.263 -0.8683 -1.2170  1.2097
12062TIP3    H257602   5.792   5.132   0.357 -0.6650 -0.3401  0.1536
12063TIP3   OH257603   2.775   0.189  16.000  0.2400 -0.2044  0.2199
12063TIP3    H157604   2.831   0.120  15.964  0.6090 -0.7567  1.7581
12063TIP3    H257605   2.736   0.149  16.078 -0.0312  1.1318  0.7847
12064TIP3   OH257606   6.439   0.924   5.085  0.0769  0.0511 -0.5205
12064TIP3    H157607   6.366   0.966   5.040  0.8911  1.2975 -0.7146
12064TIP3    H257608   6.437   0.833   5.055 -0.7425  0.3273 -1.3323
12065TIP3   OH257609   4.479   6.192  13.931 -0.8240 -0.1508 -0.0801
12065TIP3    H157610   4.447   6.255  13.867 -1.6967 -0.7685 -0.2796
12065TIP3    H257611   4.526   6.245  13.996  2.3552  0.2614 -2.4808
12066TIP3   OH257612   5.712   1.471  12.682 -0.0088  0.0053 -0.3104
12066TIP3    H157613   5.805   1.452  12.682  0.2738  1.2589 -0.8697
12066TIP3    H257614   5.706   1.563  12.708 -1.1192 -0.1669  0.1201
12067TIP3   OH257615   6.628   3.424  13.365 -0.1814  0.0948 -0.1838
12067TIP3    H157616   6.673   3.419  13.281 -0.3647 -0.3634 -0.2527
12067TIP3    H257617   6.554   3.483  13.350  0.6171  1.1993  0.0325
12068TIP3   OH257618   1.656   3.693  15.643 -0.4027  0.3060  1.2858
12068TIP3    H157619   1.668   3.752  15.568 -0.6993 -0.4288  0.6481
12068TIP3    H257620   1.711   3.731  15.712  0.1454  0.8031  0.5940
12069TIP3   OH257621   2.905   3.662  16.795 -0.3129  0.5136 -0.2906
12069TIP3    H157622   2.893   3.577  16.839  1.5069  0.0829 -0.5642
12069TIP3    H257623   2.900   3.641  16.701  1.0823  0.5099 -0.3878
12070TIP3   OH257624   1.424   3.154  11.540  0.5467 -0.2263 -0.1743
12070TIP3    H157625   1.423   3.058  11.545 -0.6566 -0.2410 -0.3818
12070TIP3    H257626   1.514   3.178  11.563  0.9848 -1.4244 -0.5460
12071TIP3   OH257627   0.350   6.030   2.300  0.0211  0.5368 -0.6199
12071TIP3    H157628   0.438   6.035   2.338 -0.0346  0.3610 -0.4695
12071TIP3    H257629   0.333   6.119   2.268  0.1961  0.6057 -0.5236
12072TIP3   OH257630   5.323   2.027   3.809  0.1322  0.0744 -0.1413
12072TIP3    H157631   5.361   2.038   3.722  0.2586  1.2429  0.0413
12072TIP3    H257632   5.242   1.977   3.795  0.6212 -0.5477 -0.7980
12073TIP3   OH257633   3.554   0.813   0.689 -0.1157  0.8084  0.3501
12073TIP3    H157634   3.519   0.725   0.698  0.5156  0.7120  2.2641
12073TIP3    H257635   3.643   0.807   0.724  0.3531  1.9567 -0.5716
12074TIP3   OH257636   3.234   2.814  13.252  0.4070  0.9505  0.3561
12074TIP3    H157637   3.184   2.889  13.218  3.8608  2.0965 -3.0308
12074TIP3    H257638   3.244   2.756  13.176  0.3813 -1.4864  2.1190
12075TIP3   OH257639   3.804   1.046  15.625  0.0714  0.0317 -0.0153
12075TIP3    H157640   3.868   1.029  15.557  0.3391 -1.4588  0.5673
12075TIP3    H257641   3.829   1.132  15.661  1.0530 -0.0172 -0.5468
12076TIP3   OH257642   1.541   4.246   0.048  0.4028 -0.0422 -0.2109
12076TIP3    H157643   1.462   4.296   0.069  0.0197 -0.5687 -0.3962
12076TIP3    H257644   1.518   4.155   0.065  0.4625 -0.3735 -1.7217
12077TIP3   OH257645   5.719   0.649  16.466  0.1823  0.5751 -0.0041
12077TIP3    H157646   5.722   0.718  16.400  0.7955  0.1299 -0.4550
12077TIP3    H257647   5.631   0.612  16.458 -0.2866  1.5306  0.4950
12078TIP3   OH257648   3.201   0.711  10.866 -0.3499  0.1756 -0.2578
12078TIP3    H157649   3.124   0.739  10.915 -0.1944 -1.2054  0.8392
12078TIP3    H257650   3.239   0.792  10.833 -0.6657  1.1526  1.6330
12079TIP3   OH257651   0.207   4.077  16.257  0.4575 -0.1552 -0.2859
12079TIP3    H157652   0.194   3.988  16.226 -2.5507 -0.5434  1.6397
12079TIP3    H257653   0.300   4.083  16.278  0.5487 -3.2097  0.5484
12080TIP3   OH257654   2.436   1.388   2.784  0.1424  0.3089 -0.0390
12080TIP3    H157655   2.509   1.349   2.833  0.5131  0.7268 -0.2560
12080TIP3    H257656   2.478   1.439   2.715 -0.3678 -0.6276 -1.0840
12081TIP3   OH257657   6.675   2.519   4.063 -0.3478 -0.3072 -0.2432
12081TIP3    H157658   6.582   2.534   4.044 -1.0680 -0.3724  2.7133
12081TIP3    H257659   6.699   2.588   4.124  1.3345 -0.7763 -0.3070
12082TIP3   OH257660   3.183   2.533  13.961 -0.4308 -0.7641  0.0151
12082TIP3    H157661   3.234   2.471  13.909 -1.3821  0.0813 -2.0443
12082TIP3    H257662   3.093   2.521  13.931 -1.1488 -0.7534  2.0417
12083TIP3   OH257663   0.407   1.980   0.773  0.0218 -0.1855 -0.3293
12083TIP3    H157664   0.479   1.918   0.787  1.2483  1.6462  2.4958
12083TIP3    H257665   0.345   1.960   0.844  0.1026  1.2991  0.1863
12084TIP3   OH257666   0.507   2.569  13.653 -0.4889  0.2180  0.0577
12084TIP3    H157667   0.570   2.601  13.717 -0.5909  0.3551  0.0900
12084TIP3    H257668   0.560   2.538  13.580 -0.3342 -0.5904  0.5001
12085TIP3   OH257669   0.241   1.694   5.206  0.4452  0.3459  0.7345
12085TIP3    H157670   0.154   1.686   5.167  0.7640 -1.5697  0.3393
12085TIP3    H257671   0.226   1.688   5.300 -0.0265  2.0786  0.8016
12086TIP3   OH257672   5.750   4.820   3.057  0.2076 -0.2501  0.5880
12086TIP3    H157673   5.810   4.759   3.098  1.3253  0.8653  0.6668
12086TIP3    H257674   5.693   4.765   3.003  1.2091 -1.3510  0.6174
12087TIP3   OH257675   6.203   3.071   2.177  0.3834  0.2386 -0.7831
12087TIP3    H157676   6.144   3.103   2.110  1.0885  0.9172 -1.1036
12087TIP3    H257677   6.291   3.093   2.144  0.9300 -2.1076 -1.0458
12088TIP3   OH257678   5.286   0.570  14.429  0.3621 -0.2356  0.6057
12088TIP3    H157679   5.245   0.643  14.384 -0.1253 -1.0957 -0.4034
12088TIP3    H257680   5.227   0.550  14.502 -0.1165 -0.3560  0.1904
12089TIP3   OH257681   1.496   4.335   6.320 -0.2607  0.6006 -0.2736
12089TIP3    H157682   1.445   4.336   6.239 -1.2090  1.2041  0.3158
12089TIP3    H257683   1.457   4.403   6.374  1.2495  1.1546  0.1699
12090TIP3   OH257684   6.280   1.254  14.411 -0.2043  0.2258 -0.1737
12090TIP3    H157685   6.268   1.198  14.488 -1.4963  0.5910 -0.0871
12090TIP3    H257686   6.199   1.304  14.405 -0.5588 -0.4829 -2.3451
12091TIP3   OH257687   2.961   4.489  16.974  0.8116 -0.3265  0.2863
12091TIP3    H157688   2.981   4.492  17.067  2.7385 -1.4311 -0.0612
12091TIP3    H257689   2.894   4.422  16.966  1.2023 -0.7800  0.7801
12092TIP3   OH257690   4.018   0.593   3.728 -0.2062  0.1030  0.0399
12092TIP3    H157691   3.954   0.582   3.657  1.2301 -0.7156 -1.1921
12092TIP3    H257692   4.077   0.518   3.718  0.3855  0.3106  1.7508
12093TIP3   OH257693   4.900   2.373  16.373  0.1830  0.2225 -0.0679
12093TIP3    H157694   4.875   2.285  16.347  1.9071  0.1641 -1.6776
12093TIP3    H257695   4.826   2.428  16.347 -1.2586 -0.7827  1.6719
12094TIP3   OH257696   5.086   0.006  11.773 -0.0010  0.2292 -0.7629
12094TIP3    H157697   5.046   0.063  11.840 -0.5227  0.3091 -1.1303
12094TIP3    H257698   5.161   0.056  11.741  1.9486 -0.9211  1.6415
12095TIP3   OH257699   6.658   6.303  15.116 -0.2110  0.4758  0.4488
12095TIP3    H157700   6.606   6.243  15.169 -0.0816  1.7152  2.0606
12095TIP3    H257701   6.600   6.377  15.099 -0.1084  0.2900 -0.8217
12096TIP3   OH257702   1.810   3.270   0.543 -0.4988  0.3491 -0.5626
12096TIP3    H157703   1.865   3.220   0.604  1.4629 -1.3027 -3.4732
12096TIP3    H257704   1.871   3.326   0.495 -1.7452  0.4455 -2.1123
12097TIP3   OH257705   4.671   2.863   0.956 -0.0275 -0.6308 -0.5405
12097TIP3    H157706   4.623   2.785   0.984 -1.2218  0.0638 -0.5821
12097TIP3    H257707   4.743   2.870   1.019 -0.1918 -1.4902 -0.2400
12098TIP3   OH257708   1.798   2.762  11.199 -0.1816 -0.1158  1.0621
12098TIP3    H157709   1.864   2.831  11.205 -1.6599  1.9293 -2.7296
12098TIP3    H257710   1.723   2.796  11.248 -0.0267 -0.2020  1.3554
12099TIP3   OH257711   6.163   3.734   5.185 -0.5875 -0.1378  0.0950
12099TIP3    H157712   6.237   3.735   5.245 -1.0169  0.4590  0.6310
12099TIP3    H257713   6.145   3.641   5.170 -0.4946 -0.2945  0.9125
12100TIP3   OH257714   1.412   2.173   4.680  0.3801  0.8262  0.1188
12100TIP3    H157715   1.463   2.254   4.688  0.2483  1.1943 -1.9463
12100TIP3    H257716   1.334   2.200   4.630  1.7669 -1.0108 -3.3878
12101TIP3   OH257717   4.399   4.218   1.183 -0.6869 -0.7074 -0.0765
12101TIP3    H157718   4.462   4.246   1.117 -0.6504  1.7024  0.9024
12101TIP3    H257719   4.317   4.259   1.156 -0.6563  0.3827  1.3561
12102TIP3   OH257720   0.919   2.330  13.209 -0.0928  0.3427 -0.5811
12102TIP3    H157721   0.994   2.299  13.260  0.0376  0.4596 -0.7017
12102TIP3    H257722   0.910   2.422  13.233  0.1378  0.4689 -0.9735
12103TIP3   OH257723   0.143   0.918   3.734 -0.7418  0.0141 -0.3761
12103TIP3    H157724   0.117   0.837   3.690 -1.7230 -0.3165  0.7487
12103TIP3    H257725   0.111   0.988   3.677 -1.4586 -0.3935 -0.4778
12104TIP3   OH257726   5.492   2.971  11.571 -0.9978 -0.5220  0.3077
12104TIP3    H157727   5.516   3.057  11.536  0.0718 -0.7297  0.5013
12104TIP3    H257728   5.445   2.990  11.652  1.0702 -0.1276  1.4799
12105TIP3   OH257729   4.411   5.453  15.430  0.4746 -0.3516 -0.3170
12105TIP3    H157730   4.440   5.379  15.482  1.3285  0.8745  1.0273
12105TIP3    H257731   4.326   5.426  15.394  0.0170 -1.3708  1.4246
12106TIP3   OH257732   0.020   0.608  11.738  0.0910  0.1187 -0.2721
12106TIP3    H157733   0.012   0.541  11.805 -0.3730  0.4584  0.0223
12106TIP3    H257734   0.014   0.561  11.655 -0.5826 -0.1679 -0.0693
12107TIP3   OH257735   0.400   6.162   2.597 -0.4563  0.4639 -0.1783
12107TIP3    H157736   0.448   6.144   2.516  0.1015 -0.5424  0.3581
12107TIP3    H257737   0.454   6.225   2.644  0.1916 -0.4154  0.2734
12108TIP3   OH257738   2.701   0.044  14.200  0.5727  0.1660  0.6291
12108TIP3    H157739   2.755   0.117  14.231  1.9432 -1.0130  1.1700
12108TIP3    H257740   2.757  -0.002  14.138  0.9444 -2.0937  2.4999
12109TIP3   OH257741   2.876   2.814   2.358  0.0179  0.3522  0.6001
12109TIP3    H157742   2.789   2.780   2.338  0.3961 -0.2212 -0.1030
12109TIP3    H257743   2.867   2.909   2.349 -0.8252  0.4087  1.7121
12110TIP3   OH257744   2.437   1.357  14.593  0.2777 -0.4338 -0.0631
12110TIP3    H157745   2.369   1.331  14.531  0.0510 -1.9498  0.7695
12110TIP3    H257746   2.443   1.452  14.584 -3.4414  0.0799  1.2774
12111TIP3   OH257747   3.533   5.955  14.793 -0.4856  0.4551  0.0262
12111TIP3    H157748   3.446   5.991  14.814  0.1884  2.1952  0.0124
12111TIP3    H257749   3.515   5.884  14.732 -1.8965  0.9967 -0.2393
12112TIP3   OH257750   3.634   4.048   1.116 -0.4435  0.1861 -0.4172
12112TIP3    H157751   3.667   4.080   1.032 -0.3202  1.4753  0.0977
12112TIP3    H257752   3.564   3.987   1.093 -0.9317  1.1019 -1.4499
12113TIP3   OH257753   5.925   2.754  12.407 -0.2125 -0.0799 -0.3145
12113TIP3    H157754   5.833   2.742  12.433  0.0544  1.1374  1.3466
12113TIP3    H257755   5.968   2.787  12.486  1.1876  1.5985 -1.6981
12114TIP3   OH257756   3.387   2.531  14.605  0.7353  0.6905 -0.5163
12114TIP3    H157757   3.375   2.602  14.668 -2.4078  0.4464 -0.6887
12114TIP3    H257758   3.472   2.493  14.628  0.8399  2.1984  1.9340
12115TIP3   OH257759   0.143   2.597   4.803  0.0746 -0.1338  0.0724
12115TIP3    H157760   0.098   2.608   4.719  0.8104 -1.5345 -0.5426
12115TIP3    H257761   0.074   2.607   4.868 -0.8004 -0.5109 -0.7720
12116TIP3   OH257762   0.305   4.227  14.284  0.4643 -0.7708 -0.0424
12116TIP3    H157763   0.390   4.199  14.251 -0.3090 -0.7680 -2.2025
12116TIP3    H257764   0.242   4.182  14.228 -0.9612 -0.4909  1.2744
12117TIP3   OH257765   3.522   0.100   0.099  0.0833  0.0182  0.0821
12117TIP3    H157766   3.548   0.070   0.011 -1.1585 -0.6713 -0.0732
12117TIP3    H257767   3.590   0.066   0.157  1.9517  2.0218 -0.7712
12118TIP3   OH257768   1.985   6.742  10.901 -0.6994  0.1608 -0.0890
12118TIP3    H157769   2.076   6.768  10.917 -0.5681 -0.5707  0.4429
12118TIP3    H257770   1.992   6.663  10.847 -1.0819  1.0857 -1.5437
12119TIP3   OH257771   1.441   1.409  10.827  0.3073 -0.3856  0.3846
12119TIP3    H157772   1.437   1.412  10.731  1.5693  0.7454  0.3487
12119TIP3    H257773   1.350   1.397  10.854  0.0413 -1.7405 -0.9724
12120TIP3   OH257774   4.557   1.448  11.497  0.2023 -0.1488  0.2153
12120TIP3    H157775   4.573   1.361  11.460 -1.1309  0.2386 -1.3890
12120TIP3    H257776   4.570   1.508  11.423 -0.6927  0.8349  0.8311
12121TIP3   OH257777   0.702   2.502   0.157  0.0209  0.2809  0.2491
12121TIP3    H157778   0.635   2.476   0.093  0.1194  0.2787  0.1470
12121TIP3    H257779   0.778   2.526   0.104  0.0819  0.3394  0.3630
12122TIP3   OH257780   5.348   0.809  16.934 -0.4133 -0.1535 -0.0038
12122TIP3    H157781   5.261   0.772  16.950 -0.0738 -1.8619 -1.6560
12122TIP3    H257782   5.340   0.850  16.848 -0.1852  1.8530  0.8848
12123TIP3   OH257783   4.488   3.090  13.184 -0.4187  0.0224 -0.7019
12123TIP3    H157784   4.529   3.026  13.127 -0.9919  0.4559 -1.6273
12123TIP3    H257785   4.540   3.170  13.172 -0.6178  0.1501 -0.7273
12124TIP3   OH257786   5.901   5.068  13.666 -0.1604  0.4855  0.0302
12124TIP3    H157787   5.967   5.131  13.692 -0.3728  0.5424  0.4369
12124TIP3    H257788   5.842   5.117  13.608 -0.2362  0.6164  0.2206
12125TIP3   OH257789   1.999   5.417  11.979  0.0998  0.1565 -0.1619
12125TIP3    H157790   2.081   5.465  11.963  0.1574 -0.3745 -1.5478
12125TIP3    H257791   1.949   5.475  12.037  0.2289  1.8598 -1.6657
12126TIP3   OH257792   3.098   1.700   1.835 -0.1570 -0.0943  0.0874
12126TIP3    H157793   3.021   1.742   1.872  1.3824  1.3144  1.8975
12126TIP3    H257794   3.157   1.687   1.909  0.3834 -3.5252 -0.7853
12127TIP3   OH257795   2.053   5.373   2.330  0.1198  0.5058  0.3834
12127TIP3    H157796   2.036   5.464   2.308  1.7362  0.3123 -2.0208
12127TIP3    H257797   1.970   5.328   2.310 -0.5354  1.3334  1.1386
12128TIP3   OH257798   0.606   3.573  11.935  0.7528 -0.5843  0.3838
12128TIP3    H157799   0.698   3.564  11.908  1.4526  1.9720  1.6347
12128TIP3    H257800   0.587   3.666  11.926 -2.0924 -1.1855 -0.7758
12129TIP3   OH257801   5.759   3.547   4.597  0.4241 -0.0185  0.3253
12129TIP3    H157802   5.801   3.535   4.512  0.4671 -0.3639  0.3933
12129TIP3    H257803   5.762   3.460   4.638 -1.0841 -0.2549 -0.0101
12130TIP3   OH257804   0.973   1.905  13.862  0.3166 -0.2330 -0.2740
12130TIP3    H157805   0.942   1.819  13.835 -1.0760  0.5422 -1.2712
12130TIP3    H257806   1.009   1.944  13.783  1.2723 -0.0149  0.2518
12131TIP3   OH257807   2.025   4.943   5.004  0.5948  0.1488 -0.4283
12131TIP3    H157808   2.022   4.969   5.096  1.1134  1.4584 -0.7572
12131TIP3    H257809   1.984   4.857   5.002  0.7615  0.0082  1.0558
12132TIP3   OH257810   4.305   0.120   3.319  0.6151  0.2544  0.2820
12132TIP3    H157811   4.253   0.197   3.295  0.6470  0.2994  0.3564
12132TIP3    H257812   4.259   0.046   3.278 -1.5113 -0.1796  3.1506
12133TIP3   OH257813   1.910   5.327  16.718 -1.0371 -0.4178  0.0237
12133TIP3    H157814   1.951   5.273  16.651 -0.2621  0.3560 -0.1381
12133TIP3    H257815   1.950   5.413  16.708  0.4657 -0.7147  2.6527
12134TIP3   OH257816   5.841   3.287   3.957 -0.3180  0.0301  0.2443
12134TIP3    H157817   5.828   3.214   4.017  0.1264  0.4952  0.9280
12134TIP3    H257818   5.879   3.356   4.012 -1.1379  0.9264 -0.2788
12135TIP3   OH257819   1.940   4.433  10.724 -0.2026  0.3152  0.2243
12135TIP3    H157820   1.954   4.383  10.804 -1.2577  0.3551  0.4484
12135TIP3    H257821   1.856   4.476  10.737 -0.5396  0.0684 -1.0368
12136TIP3   OH257822   5.587   2.502   5.598 -0.2453  0.3790 -0.2790
12136TIP3    H157823   5.559   2.412   5.615 -1.5708  0.4095 -2.0253
12136TIP3    H257824   5.625   2.532   5.681 -1.5053 -1.1464  0.8995
12137TIP3   OH257825   3.203   3.014  12.041 -0.3028  0.3565  0.2874
12137TIP3    H157826   3.143   3.088  12.051  0.3040  0.8625  0.2573
12137TIP3    H257827   3.241   3.026  11.954  1.1914  1.0754  0.9972
12138TIP3   OH257828   5.987   0.541  16.630 -0.5218  0.2054 -0.5734
12138TIP3    H157829   6.070   0.504  16.600 -1.1877 -1.6366 -0.2495
12138TIP3    H257830   5.936   0.556  16.550 -0.1760  0.6284 -0.7183
12139TIP3   OH257831   1.092   5.666  16.098  0.5123  0.2005 -0.1328
12139TIP3    H157832   1.025   5.625  16.153 -1.1754  0.7470 -1.6920
12139TIP3    H257833   1.056   5.752  16.077  0.5062 -0.4230 -3.0236
12140TIP3   OH257834   3.829   3.182   5.265  0.4331 -0.1949 -0.0163
12140TIP3    H157835   3.864   3.176   5.354 -0.6317  2.7805  0.7130
12140TIP3    H257836   3.758   3.117   5.262  1.1299 -1.0365  0.9116
12141TIP3   OH257837   5.213   3.611  14.347  0.9637  0.1076 -0.2370
12141TIP3    H157838   5.179   3.653  14.268 -1.7710  1.0887  1.3069
12141TIP3    H257839   5.267   3.678  14.389  0.0058  0.6539  0.1516
12142TIP3   OH257840   3.573   0.104   2.199  0.2277 -0.1189 -0.2849
12142TIP3    H157841   3.604   0.052   2.125 -0.5519  0.1585 -0.8300
12142TIP3    H257842   3.515   0.044   2.247 -2.5396  0.8236 -2.2033
12143TIP3   OH257843   0.547   4.650   1.624  0.4161  0.0134  0.5569
12143TIP3    H157844   0.545   4.745   1.638  2.3436  0.0484  0.8041
12143TIP3    H257845   0.591   4.640   1.539  0.1200 -0.6643  0.4827
12144TIP3   OH257846   5.632   4.543   0.722 -0.6013 -0.4526 -0.4334
12144TIP3    H157847   5.612   4.554   0.815  0.8465  0.8581 -0.2380
12144TIP3    H257848   5.624   4.449   0.707 -1.5879 -0.5983  0.8350
12145TIP3   OH257849   6.229   4.207   6.136 -0.1818 -0.3955 -0.0771
12145TIP3    H157850   6.223   4.178   6.227 -0.0893 -0.2430 -0.0209
12145TIP3    H257851   6.310   4.258   6.133 -1.2403  1.3909  0.2657
12146TIP3   OH257852   4.522   4.995   6.223  0.0076  0.0590  0.2758
12146TIP3    H157853   4.554   5.006   6.133  0.1204  0.6321  0.3784
12146TIP3    H257854   4.576   4.926   6.260  0.7005  0.5666  0.2398
12147TIP3   OH257855   1.827   3.027  13.042  0.1583  0.0100  0.2825
12147TIP3    H157856   1.818   3.110  13.090 -0.3597  0.1573 -0.0650
12147TIP3    H257857   1.738   2.992  13.038  0.4476 -0.8417  0.9071
12148TIP3   OH257858   4.809   4.335   1.207 -0.1993  0.1714 -0.1883
12148TIP3    H157859   4.857   4.347   1.126 -0.3644 -1.0558 -0.4853
12148TIP3    H257860   4.815   4.420   1.251  1.4014  0.3412 -0.6584
12149TIP3   OH257861   2.514   1.745   6.013  0.8096 -0.4562  0.1307
12149TIP3    H157862   2.526   1.699   6.096 -0.3248  3.0751  2.4769
12149TIP3    H257863   2.442   1.698   5.971 -0.7143 -0.5909  2.6636
12150TIP3   OH257864   0.559   1.455  15.085 -0.4162  0.5059  0.4579
12150TIP3    H157865   0.532   1.482  15.173 -1.2094  2.7811 -0.4221
12150TIP3    H257866   0.654   1.451  15.089 -0.4550  0.3933  1.4624
12151TIP3   OH257867   2.006   4.918  12.075 -0.1023 -0.2407 -0.7649
12151TIP3    H157868   1.960   4.885  12.152 -0.9106  1.2625 -0.5629
12151TIP3    H257869   2.032   5.007  12.099  2.6436 -0.8947 -1.0132
12152TIP3   OH257870   0.271   3.568   5.877 -0.1367  0.3295  0.5451
12152TIP3    H157871   0.316   3.534   5.800 -1.2515 -0.5574  0.2537
12152TIP3    H257872   0.316   3.527   5.951  0.3376  0.4547  0.3296
12153TIP3   OH257873   0.170   6.771   5.506  0.0743  0.1333  0.6075
12153TIP3    H157874   0.097   6.832   5.519  0.9790  1.7193 -1.1716
12153TIP3    H257875   0.211   6.765   5.592 -0.6866  1.1881  1.0772
12154TIP3   OH257876   0.885   1.559  14.294 -0.0894  0.5580 -0.0516
12154TIP3    H157877   0.816   1.500  14.324  0.7360 -0.2339  0.3345
12154TIP3    H257878   0.838   1.633  14.254 -1.1542  0.1950  0.4930
12155TIP3   OH257879   5.164   5.628  13.791 -0.8616  0.1302  0.1117
12155TIP3    H157880   5.165   5.552  13.732  0.5842 -1.3835  1.9343
12155TIP3    H257881   5.072   5.656  13.791 -1.2012 -0.8090 -1.5959
12156TIP3   OH257882   4.695   0.826   4.035 -0.2160  0.2128  0.0636
12156TIP3    H157883   4.715   0.760   3.969  0.3816  0.7303 -0.2868
12156TIP3    H257884   4.606   0.854   4.014 -0.0312  0.3725 -0.5302
12157TIP3   OH257885   2.525   6.310  15.705  0.2375  0.2084  0.0061
12157TIP3    H157886   2.467   6.379  15.673  1.8936  0.4475 -2.8794
12157TIP3    H257887   2.558   6.343  15.789 -2.4283  0.7677  0.9229
12158TIP3   OH257888   0.775   4.357   5.717 -0.3106 -0.4863  0.0827
12158TIP3    H157889   0.817   4.443   5.712 -1.3517 -0.0443 -2.1690
12158TIP3    H257890   0.837   4.303   5.765  1.1947  1.0396 -0.0367
12159TIP3   OH257891   1.022   2.737   2.723  0.4030 -0.5076  0.2835
12159TIP3    H157892   1.054   2.795   2.792 -0.7053  0.4084  0.0561
12159TIP3    H257893   1.098   2.683   2.699  1.8696  1.7599 -0.4390
12160TIP3   OH257894   0.780   5.164   2.937  0.3954  0.0530 -0.0938
12160TIP3    H157895   0.864   5.199   2.967 -0.5440  2.0173  0.3735
12160TIP3    H257896   0.715   5.202   2.997 -0.7708 -2.2408  0.2181
12161TIP3   OH257897   5.350   6.583   2.140 -0.6267  0.1113  0.6417
12161TIP3    H157898   5.368   6.505   2.088  0.4730  0.7620  0.0057
12161TIP3    H257899   5.335   6.550   2.229 -0.1264 -0.8092  0.3938
12162TIP3   OH257900   0.506   0.931   4.550 -0.1655 -0.3926 -0.3843
12162TIP3    H157901   0.549   0.972   4.625 -0.6842  0.6949 -0.6583
12162TIP3    H257902   0.459   1.003   4.507  0.4581 -0.9042 -1.9899
12163TIP3   OH257903   4.756   4.760  11.882 -0.5011 -0.1396 -0.4064
12163TIP3    H157904   4.722   4.711  11.808 -1.7069  0.1421 -0.0506
12163TIP3    H257905   4.837   4.799  11.849 -0.6613 -0.5774 -1.3558
12164TIP3   OH257906   2.981   2.712   1.221 -0.5060 -0.1936  0.0064
12164TIP3    H157907   2.990   2.763   1.141  1.3202 -0.9166 -0.3078
12164TIP3    H257908   3.006   2.623   1.195  0.7222 -0.3188  1.4926
12165TIP3   OH257909   3.755   2.073  16.844 -0.5152  0.1171  0.1727
12165TIP3    H157910   3.762   2.098  16.936 -0.6084 -1.4205  0.6274
12165TIP3    H257911   3.668   2.103  16.817 -1.3035 -1.1832  1.1810
12166TIP3   OH257912   3.816   4.095  15.803 -0.1054 -0.0746  0.2706
12166TIP3    H157913   3.827   4.141  15.719  1.0002  0.9603  0.9413
12166TIP3    H257914   3.752   4.027  15.785 -1.3125  1.3146 -0.9565
12167TIP3   OH257915   5.412   5.231  12.207 -0.8116  0.3750 -0.1203
12167TIP3    H157916   5.413   5.302  12.143  0.9114 -1.0923 -1.8813
12167TIP3    H257917   5.438   5.272  12.289 -2.1385  2.1614 -0.5412
12168TIP3   OH257918   3.677   3.419  14.744  0.3328 -0.2615  0.3649
12168TIP3    H157919   3.596   3.452  14.783  0.4262  0.1869  0.1743
12168TIP3    H257920   3.655   3.329  14.718  0.5604 -0.9581  2.3944
12169TIP3   OH257921   6.396   4.638  17.157 -0.1493 -0.3415  0.6083
12169TIP3    H157922   6.357   4.726  17.161  2.4258  0.9533 -0.2790
12169TIP3    H257923   6.446   4.631  17.238  0.1224 -0.7596  0.4076
12170TIP3   OH257924   5.324   1.987  13.529 -0.8658  0.1392 -0.0299
12170TIP3    H157925   5.260   2.056  13.514 -0.7241  0.7100  1.8438
12170TIP3    H257926   5.399   2.012  13.475 -0.8021  1.4921  0.6549
12171TIP3   OH257927   1.972   1.594   4.482  1.0930 -0.0477  0.1698
12171TIP3    H157928   2.059   1.575   4.447  0.6827 -1.6320 -0.0727
12171TIP3    H257929   1.917   1.524   4.447 -0.5677  1.6247 -0.7359
12172TIP3   OH257930   4.949   3.451   0.146 -0.3755 -0.1007  0.5884
12172TIP3    H157931   4.949   3.482   0.237  0.5836  2.1881 -0.1104
12172TIP3    H257932   5.040   3.459   0.118 -0.4244 -1.9341 -0.2604
12173TIP3   OH257933   2.061   3.693  15.696 -0.4864 -0.0658 -1.0293
12173TIP3    H157934   2.100   3.744  15.768  0.6150 -3.0883  0.6795
12173TIP3    H257935   2.073   3.748  15.619  3.6471  0.9059  0.0795
12174TIP3   OH257936   3.884   6.255   6.193 -0.0505 -0.2735  0.4978
12174TIP3    H157937   3.924   6.233   6.108 -1.4670  1.8789 -0.8376
12174TIP3    H257938   3.830   6.179   6.214 -0.6512 -0.3808 -1.2079
12175TIP3   OH257939   3.390   2.064  16.050 -0.4729  0.0488  0.0970
12175TIP3    H157940   3.298   2.062  16.076 -0.1555  1.2543  1.5020
12175TIP3    H257941   3.435   2.100  16.127  0.9617  0.9029 -1.0885
12176TIP3   OH257942   2.959   4.641  15.599  0.0266  0.0139  0.2078
12176TIP3    H157943   3.038   4.593  15.573 -0.3325 -0.3817 -0.1824
12176TIP3    H257944   2.959   4.719  15.544  0.6155  0.4760  0.8468
12177TIP3   OH257945   1.887   1.616   1.639  0.2725 -0.0035  0.1249
12177TIP3    H157946   1.946   1.565   1.584  2.2680  3.3289 -1.0872
12177TIP3    H257947   1.936   1.630   1.720  0.3687  1.1287 -0.1151
12178TIP3   OH257948   4.007   3.766   0.109 -0.0020  0.5497  0.5442
12178TIP3    H157949   3.928   3.730   0.148  0.2203  1.6999  2.1906
12178TIP3    H257950   3.978   3.846   0.065 -0.1229 -0.3386 -1.0557
12179TIP3   OH257951   0.083   1.213   5.776  0.4098 -0.2090 -0.1872
12179TIP3    H157952   0.126   1.132   5.750  1.0558 -0.1546  0.6286
12179TIP3    H257953   0.019   1.187   5.842 -0.5985 -0.2472 -1.1605
12180TIP3   OH257954   4.736   0.200  17.130 -0.1975  0.2886  0.3731
12180TIP3    H157955   4.794   0.137  17.088  1.8302  1.8006  0.7435
12180TIP3    H257956   4.662   0.148  17.161 -0.7676 -1.2254 -3.0880
12181TIP3   OH257957   0.124   6.694  10.882 -0.1173  0.4430 -0.1708
12181TIP3    H157958   0.184   6.702  10.808 -1.6323  1.9322 -1.3169
12181TIP3    H257959   0.070   6.617  10.860  1.2180 -0.8174  0.7986
12182TIP3   OH257960   3.827   6.431  12.282  1.0451 -0.2303 -0.6209
12182TIP3    H157961   3.828   6.409  12.189  0.3649 -0.5341 -0.5569
12182TIP3    H257962   3.899   6.493  12.292  1.2276 -0.3216 -1.3189
12183TIP3   OH257963   1.231   1.242   4.396 -0.1918  0.8017  0.1089
12183TIP3    H157964   1.250   1.318   4.450 -0.4079  0.6603  0.3823
12183TIP3    H257965   1.267   1.265   4.310 -0.3299  1.2493  0.1640
12184TIP3   OH257966   5.770   4.182  14.209 -0.0020  0.3770  0.1330
12184TIP3    H157967   5.838   4.125  14.173 -0.7103 -0.6697  0.4202
12184TIP3    H257968   5.817   4.263  14.232  1.0503 -0.1398 -0.1091
12185TIP3   OH257969   1.982   2.096   5.861  0.8066 -0.0267 -0.0736
12185TIP3    H157970   1.946   2.022   5.909  0.0820  0.1923 -0.2738
12185TIP3    H257971   2.054   2.127   5.915  1.2229 -0.9765 -0.0621
12186TIP3   OH257972   0.534   3.231   3.384 -0.2412  0.0958  0.5668
12186TIP3    H157973   0.456   3.175   3.377 -0.6407  0.6865  0.1546
12186TIP3    H257974   0.596   3.180   3.436 -0.1564 -1.2045 -0.7644
12187TIP3   OH257975   6.727   6.007  16.860  0.4550  0.1614 -0.3365
12187TIP3    H157976   6.743   6.080  16.920  0.9281 -0.5357  0.4025
12187TIP3    H257977   6.640   6.024  16.825 -0.1830  0.1669  1.1818
12188TIP3   OH257978   3.371   5.404   0.593 -0.6012 -0.1487  0.1060
12188TIP3    H157979   3.431   5.331   0.581 -0.3594  0.1840 -0.8165
12188TIP3    H257980   3.398   5.445   0.675  0.4624  0.0172 -0.3094
12189TIP3   OH257981   5.557   2.995   5.815 -0.3160  0.0811  0.2481
12189TIP3    H157982   5.646   3.004   5.847 -0.5981  0.6139  0.9112
12189TIP3    H257983   5.503   2.992   5.894 -1.0594  1.7646 -0.1449
12190TIP3   OH257984   5.866   4.851  11.259 -0.2743 -0.2989  0.1020
12190TIP3    H157985   5.829   4.777  11.211 -0.1917  0.3853 -1.0727
12190TIP3    H257986   5.835   4.928  11.211  0.4842  0.3826  0.6771
12191TIP3   OH257987   2.356   1.791  15.038  0.5005  0.0585 -0.2000
12191TIP3    H157988   2.427   1.760  15.094 -0.1370  1.3357  1.3987
12191TIP3    H257989   2.279   1.746  15.070  0.0404  1.1777  0.3133
12192TIP3   OH257990   4.077   1.603   6.117 -0.2209  0.2902  0.2897
12192TIP3    H157991   4.106   1.628   6.029  1.3252 -0.0742  0.6671
12192TIP3    H257992   4.043   1.684   6.155  0.5894  0.8271 -0.0893
12193TIP3   OH257993   0.201   0.056  12.880  0.2199 -0.0513 -0.5090
12193TIP3    H157994   0.123   0.109  12.872  0.8029  0.9188  0.0279
12193TIP3    H257995   0.236   0.048  12.791  0.4482  0.9695 -0.5152
12194TIP3   OH257996   0.897   1.209  13.884 -0.3843 -0.1614 -0.5028
12194TIP3    H157997   0.874   1.277  13.947 -1.8641 -0.2850 -0.8526
12194TIP3    H257998   0.833   1.139  13.901  0.9042 -1.3441 -0.3568
12195TIP3   OH257999   3.610   6.690   3.741 -0.1107  0.4660  0.2001
12195TIP3    H158000   3.582   6.754   3.676 -0.1225 -0.6421 -0.9354
12195TIP3    H258001   3.683   6.644   3.699 -1.0020 -1.1998  0.3704
12196TIP3   OH258002   4.622   1.556  12.514  0.1218 -0.5535 -0.0706
12196TIP3    H158003   4.558   1.484  12.508 -2.7420  1.7387  0.8456
12196TIP3    H258004   4.649   1.556  12.606 -1.5592  0.7910  0.4676
12197TIP3   OH258005   0.684   3.573  13.903 -0.3797 -0.0799 -0.0408
12197TIP3    H158006   0.689   3.662  13.939 -1.1897 -0.8922  2.2971
12197TIP3    H258007   0.596   3.566  13.868  0.0649  0.3811 -1.2845
12198TIP3   OH258008   0.146   3.600  10.999  0.1084 -0.0992 -0.1516
12198TIP3    H158009   0.088   3.656  11.050 -1.8744 -0.6005 -1.7647
12198TIP3    H258010   0.182   3.657  10.931  0.9226  0.0214  0.3646
12199TIP3   OH258011   4.888   4.294   5.404  0.0807  0.7482  0.3518
12199TIP3    H158012   4.866   4.380   5.441 -1.1194  1.0285 -0.9383
12199TIP3    H258013   4.804   4.259   5.375  0.8321  0.0501 -1.0389
12200TIP3   OH258014   5.488   2.103   3.560  0.0179  0.0869 -0.2272
12200TIP3    H158015   5.468   2.082   3.468 -2.4865 -1.8707  0.6501
12200TIP3    H258016   5.575   2.068   3.574 -0.6915 -2.2840 -1.1720
12201TIP3   OH258017   5.427   2.725  12.202  0.1385 -0.8289  0.4566
12201TIP3    H158018   5.433   2.815  12.171  0.8300 -1.6783 -2.1166
12201TIP3    H258019   5.334   2.710  12.216  0.0195  0.2613  0.9536
12202TIP3   OH258020   6.435   2.099  11.828 -0.1321 -0.5778  0.4221
12202TIP3    H158021   6.504   2.155  11.791  0.3806 -1.3945  0.1034
12202TIP3    H258022   6.404   2.147  11.905  1.2395 -0.4762  0.9473
12203TIP3   OH258023   4.797   1.489  16.900 -0.4901  0.0941 -0.2954
12203TIP3    H158024   4.825   1.573  16.866 -1.3414  0.8266  0.7305
12203TIP3    H258025   4.728   1.510  16.963  0.2174 -1.2588  1.0093
12204TIP3   OH258026   2.216   4.337   2.500 -0.6189 -0.0657 -0.1761
12204TIP3    H158027   2.158   4.275   2.456 -0.3575 -1.5607  1.4671
12204TIP3    H258028   2.304   4.309   2.477 -0.5122  0.1689 -0.0554
12205TIP3   OH258029   3.903   6.185   3.900  0.5009 -0.0180 -0.2368
12205TIP3    H158030   3.883   6.252   3.835 -2.2186 -1.6686 -1.2867
12205TIP3    H258031   3.966   6.127   3.857 -1.0420 -0.9225 -1.3810
12206TIP3   OH258032   4.584   2.459  16.469 -0.0846  0.1153  0.3596
12206TIP3    H158033   4.580   2.370  16.434  1.3544 -0.2944  1.1641
12206TIP3    H258034   4.629   2.509  16.401 -3.1401  0.9039 -1.2697
12207TIP3   OH258035   4.726   5.833   3.455  0.6677 -0.5196 -0.8408
12207TIP3    H158036   4.807   5.859   3.499  0.2542  0.3738 -0.5909
12207TIP3    H258037   4.689   5.914   3.421 -0.7287 -0.7285  0.0969
12208TIP3   OH258038   3.795   0.354  12.764 -0.2078 -0.0509 -0.1949
12208TIP3    H158039   3.855   0.328  12.694  0.5238  1.0599 -0.0095
12208TIP3    H258040   3.784   0.275  12.817  1.3371 -0.2209 -0.0723
12209TIP3   OH258041   4.245   5.260  14.683  0.2112  0.5501  0.6142
12209TIP3    H158042   4.245   5.350  14.713  1.7137  0.5768  0.5937
12209TIP3    H258043   4.315   5.256  14.618 -1.1792 -0.1535 -0.9181
12210TIP3   OH258044   4.950   4.250  14.584 -0.8697  0.3224 -0.1332
12210TIP3    H158045   4.971   4.331  14.537  1.3121 -0.0445  0.1321
12210TIP3    H258046   4.898   4.200  14.521 -0.8986  1.2652 -0.8912
12211TIP3   OH258047   5.695   0.640  14.484 -0.2450  0.0765  0.0588
12211TIP3    H158048   5.646   0.624  14.403 -0.9878 -1.9452  0.8436
12211TIP3    H258049   5.782   0.665  14.454 -0.6611 -0.0729 -1.3810
12212TIP3   OH258050   4.835   1.929  14.067 -0.3585  0.2377  0.1393
12212TIP3    H158051   4.842   2.012  14.113 -1.6541  0.2818  0.2835
12212TIP3    H258052   4.771   1.945  13.998  1.2761  0.0654 -1.4846
12213TIP3   OH258053   2.190   4.002   4.580 -0.2713  0.1492  0.3270
12213TIP3    H158054   2.272   4.024   4.623 -0.9856 -0.4311  2.0922
12213TIP3    H258055   2.199   3.910   4.557  0.4607  0.6870 -1.6763
12214TIP3   OH258056   4.131   2.964   0.911 -0.0573  0.6995  0.5843
12214TIP3    H158057   4.223   2.962   0.937  0.0029 -0.2256  0.3509
12214TIP3    H258058   4.132   2.937   0.819 -0.5337  0.9886  0.4943
12215TIP3   OH258059   5.617   5.800  13.220  0.3273  0.0387  0.4815
12215TIP3    H158060   5.592   5.883  13.181  2.2878 -0.0790 -1.2010
12215TIP3    H258061   5.565   5.735  13.173 -1.1662  0.2523  1.7610
12216TIP3   OH258062   1.157   3.968  13.566  0.4714 -0.1071  0.2561
12216TIP3    H158063   1.251   3.989  13.560  0.7849 -1.1440  1.1752
12216TIP3    H258064   1.155   3.882  13.608 -0.8185 -1.1896 -1.8419
12217TIP3   OH258065   6.417   2.036   0.254 -0.1721 -0.0624  0.6173
12217TIP3    H158066   6.363   2.035   0.333 -2.7755 -1.1894 -1.0522
12217TIP3    H258067   6.356   2.022   0.183  1.7679  2.8123 -1.8752
12218TIP3   OH258068   2.456   4.580  17.196 -0.0987 -0.3870  0.1698
12218TIP3    H158069   2.516   4.511  17.168 -0.9000 -1.3390  0.7446
12218TIP3    H258070   2.441   4.562  17.289  1.3711  1.8463  0.9332
12219TIP3   OH258071   3.081   0.006  14.859  0.3963  0.2255  0.1527
12219TIP3    H158072   3.144   0.075  14.882  1.4101 -0.7576  0.4291
12219TIP3    H258073   3.092  -0.060  14.928 -0.8031 -0.0639  0.0812
12220TIP3   OH258074   5.313   0.067   3.219  0.2849  0.5905 -0.2186
12220TIP3    H158075   5.351   0.134   3.162  1.7719  1.6628  1.9016
12220TIP3    H258076   5.338  -0.016   3.178  1.2301  1.3065 -1.1482
12221TIP3   OH258077   0.858   4.658  12.631  0.3533 -0.4479  0.7563
12221TIP3    H158078   0.778   4.644  12.682 -0.6293 -0.5448 -0.7393
12221TIP3    H258079   0.907   4.576  12.639  0.3186 -0.3840  1.6881
12222TIP3   OH258080   2.171   5.953   4.943  0.0875  0.1023 -0.1159
12222TIP3    H158081   2.172   5.978   5.036  0.5287  1.5084 -0.4721
12222TIP3    H258082   2.143   5.862   4.943 -0.9642  0.3838  1.3345
12223TIP3   OH258083   3.517   5.036  12.954 -0.1261 -0.4059 -0.7733
12223TIP3    H158084   3.577   5.029  12.880  0.3866  0.0647 -0.4117
12223TIP3    H258085   3.574   5.038  13.031 -0.4595  2.1047 -0.5191
12224TIP3   OH258086   0.340   2.205   5.627 -0.4105  0.1559  0.3218
12224TIP3    H158087   0.380   2.153   5.697 -0.0770  2.0655  1.6041
12224TIP3    H258088   0.320   2.289   5.667 -1.5533  0.8182 -1.5186
12225TIP3   OH258089   5.113   4.363   1.525 -0.5422  0.1323 -0.1388
12225TIP3    H158090   5.168   4.420   1.579 -0.0721  1.1691 -1.6340
12225TIP3    H258091   5.048   4.328   1.586  0.5871  0.3997  1.2928
12226TIP3   OH258092   6.584   3.592   3.856 -0.2382 -0.0535 -0.5707
12226TIP3    H158093   6.508   3.650   3.844  0.0401  0.5038  0.2961
12226TIP3    H258094   6.656   3.640   3.816  0.0608  0.3632  0.4540
12227TIP3   OH258095   0.720   1.356  14.059  0.5395  0.3510  0.4826
12227TIP3    H158096   0.632   1.387  14.038  0.3274 -1.1624 -1.1459
12227TIP3    H258097   0.713   1.321  14.148 -0.6500 -0.1583  0.2070
12228TIP3   OH258098   3.834   3.126   0.117  0.5458  0.0198  0.0209
12228TIP3    H158099   3.918   3.159   0.087  0.4354 -0.0113 -0.3333
12228TIP3    H258100   3.787   3.104   0.036  0.6893 -1.1910  0.2507
12229TIP3   OH258101   0.204   3.066   2.354 -0.0531 -0.3815 -0.2320
12229TIP3    H158102   0.245   3.123   2.419  1.2106 -1.8467  0.3013
12229TIP3    H258103   0.252   3.083   2.273  0.1363 -0.4899 -0.1421
12230TIP3   OH258104   6.250   2.807  11.584  0.2560  0.1142  0.1227
12230TIP3    H158105   6.231   2.716  11.606 -0.4864 -0.3305 -2.1109
12230TIP3    H258106   6.165   2.850  11.583  0.6104  0.9027  1.2549
12231TIP3   OH258107   6.330   2.580   1.738  0.2040  0.8223  0.4801
12231TIP3    H158108   6.350   2.624   1.655  0.8114  0.1664  0.2671
12231TIP3    H258109   6.281   2.502   1.713  0.6085  0.4873  0.7136
12232TIP3   OH258110   5.898   3.178  13.710  0.2606 -0.6709 -0.1009
12232TIP3    H158111   5.936   3.102  13.753  0.7250 -1.6586 -2.1866
12232TIP3    H258112   5.964   3.246  13.718 -0.6307  0.0117  2.8545
12233TIP3   OH258113   1.274   4.831  12.725 -0.3518  0.6251  0.1011
12233TIP3    H158114   1.197   4.851  12.779 -0.5412  0.0530  0.0573
12233TIP3    H258115   1.258   4.876  12.642 -1.4976 -0.8857 -0.5496
12234TIP3   OH258116   3.496   5.856   4.022  0.4015 -0.1688 -0.1359
12234TIP3    H158117   3.554   5.930   4.007  0.0215 -0.1871 -1.7983
12234TIP3    H258118   3.523   5.790   3.959 -1.2880 -0.2486 -0.8403
12235TIP3   OH258119   5.540   6.589  14.683  0.3172  0.0233  0.0705
12235TIP3    H158120   5.517   6.509  14.729  0.9267 -1.4679 -2.0778
12235TIP3    H258121   5.607   6.630  14.738  1.4297 -1.9718  0.2915
12236TIP3   OH258122   0.816   3.118  15.094 -0.7790  0.5119 -0.4564
12236TIP3    H158123   0.875   3.044  15.079 -0.4824  0.2605  1.6451
12236TIP3    H258124   0.843   3.184  15.030  0.4596 -0.3310 -0.8333
12237TIP3   OH258125   2.215   2.661  13.823 -0.5246  0.0113  0.1848
12237TIP3    H158126   2.263   2.694  13.746 -0.1286  1.5236  1.0435
12237TIP3    H258127   2.124   2.684  13.806 -0.2632  1.5315  0.7309
12238TIP3   OH258128   5.524   6.564   1.674 -0.4695 -0.1467 -0.1694
12238TIP3    H158129   5.476   6.492   1.714  1.5053 -2.2431 -1.3537
12238TIP3    H258130   5.579   6.599   1.745  3.1224 -3.9300 -0.7010
12239TIP3   OH258131   6.730   4.422   3.900 -0.1833  0.1756 -1.2422
12239TIP3    H158132   6.819   4.457   3.893  0.1995 -0.3531  0.5410
12239TIP3    H258133   6.681   4.492   3.943 -0.5873  0.3478 -1.9585
12240TIP3   OH258134   5.054   4.207  12.490 -0.2537  0.4661  0.2993
12240TIP3    H158135   5.089   4.143  12.428  1.5879  0.7734  0.9693
12240TIP3    H258136   5.006   4.269  12.436 -0.9530 -0.7335 -0.5106
12241TIP3   OH258137   6.198   6.010   6.436 -0.0356  0.1513 -0.4307
12241TIP3    H158138   6.258   5.960   6.382  1.1784 -1.4999  2.2850
12241TIP3    H258139   6.113   5.968   6.423 -0.0399  0.5343 -1.8660
12242TIP3   OH258140   2.617   6.651  13.706  0.9991 -0.0661  0.3981
12242TIP3    H158141   2.611   6.663  13.800  0.8230  0.3475  0.3393
12242TIP3    H258142   2.597   6.738  13.670 -3.8274 -1.1036 -0.1986
12243TIP3   OH258143   2.552   5.775   1.711 -0.3722 -0.5553  0.2775
12243TIP3    H158144   2.480   5.761   1.649 -1.8165 -0.1709  1.7868
12243TIP3    H258145   2.629   5.787   1.655 -1.6995  0.4401 -1.4936
12244TIP3   OH258146   1.171   3.694   5.284 -0.8040  0.4651  0.0872
12244TIP3    H158147   1.207   3.735   5.205 -0.5217  0.0129 -0.0198
12244TIP3    H258148   1.132   3.767   5.332 -0.2790  0.8745 -0.0889
12245TIP3   OH258149   2.234   1.530  10.348 -0.1874  0.4979 -0.3615
12245TIP3    H158150   2.278   1.490  10.424 -0.7162  0.2662 -0.1752
12245TIP3    H258151   2.209   1.617  10.378 -0.7847  0.2483 -0.1230
12246TIP3   OH258152   5.432   2.867  12.968  0.3573 -0.4978  0.1975
12246TIP3    H158153   5.472   2.927  12.906  0.1655 -0.1366  0.4246
12246TIP3    H258154   5.341   2.859  12.939  0.5464 -1.2117 -0.2381
12247TIP3   OH258155   2.536   1.865   4.587  0.2514 -0.5729  0.0218
12247TIP3    H158156   2.568   1.869   4.677  1.1605 -3.4112 -0.0779
12247TIP3    H258157   2.578   1.939   4.543  0.3474  0.4384  1.7491
12248TIP3   OH258158   4.151   0.944   3.088 -0.1412  0.1469 -0.5809
12248TIP3    H158159   4.172   1.013   3.150  0.6708  0.5372 -1.2737
12248TIP3    H258160   4.143   0.988   3.004 -2.1086 -0.2471 -0.6438
12249TIP3   OH258161   0.454   3.846  11.375 -0.0101 -0.3900 -0.4176
12249TIP3    H158162   0.360   3.844  11.354  0.3339 -0.9855 -2.0666
12249TIP3    H258163   0.497   3.816  11.295  1.6932  1.4339 -0.2556
12250TIP3   OH258164   2.022   1.839   2.430 -0.2377 -0.2944  0.1524
12250TIP3    H158165   2.029   1.744   2.421 -0.3515 -0.5067  1.9832
12250TIP3    H258166   1.991   1.853   2.520 -1.2951  1.4397 -0.4223
12251TIP3   OH258167   5.289   1.230  13.812  0.0978  0.4770  0.6091
12251TIP3    H158168   5.363   1.282  13.842  0.9146  0.8584 -1.8488
12251TIP3    H258169   5.217   1.292  13.804  0.4051  0.7492 -0.0419
12252TIP3   OH258170   5.710   2.990  15.722  0.2325 -0.4795 -0.1578
12252TIP3    H158171   5.640   2.926  15.723  0.7908 -1.1002  0.0840
12252TIP3    H258172   5.667   3.072  15.699 -0.5765 -0.8370  0.0335
12253TIP3   OH258173   3.413   5.975  14.199 -0.1896  0.7849 -0.8183
12253TIP3    H158174   3.463   5.899  14.230 -1.6520 -0.1904 -0.7543
12253TIP3    H258175   3.471   6.050  14.216  0.7560 -0.1657  0.3547
12254TIP3   OH258176   3.910   5.841   0.813 -0.0680 -0.0517  0.6758
12254TIP3    H158177   3.939   5.930   0.790  1.1157 -0.6989 -0.4476
12254TIP3    H258178   3.956   5.822   0.895  1.1818 -0.3121 -0.0597
12255TIP3   OH258179   6.214   2.157   5.063 -0.1625  1.0410 -0.4440
12255TIP3    H158180   6.271   2.093   5.107  0.0582  0.1007 -2.0129
12255TIP3    H258181   6.151   2.103   5.015 -1.4583  2.0578  0.0492
12256TIP3   OH258182   2.194   6.077  17.112 -0.1650  0.2745 -0.8152
12256TIP3    H158183   2.120   6.048  17.059 -0.7960  1.1357 -0.4164
12256TIP3    H258184   2.230   5.996  17.149 -2.6576  0.0180  1.2996
12257TIP3   OH258185   5.308   6.277  12.207  0.2549  0.4236  0.3061
12257TIP3    H158186   5.217   6.253  12.186  0.5245 -0.0861 -0.3207
12257TIP3    H258187   5.345   6.307  12.124  1.3142 -1.5218  0.0224
12258TIP3   OH258188   1.478   1.354  14.985  0.1085  0.1920  0.0181
12258TIP3    H158189   1.458   1.424  15.048 -2.3154  1.4632 -1.9921
12258TIP3    H258190   1.453   1.274  15.031  0.9092  0.7914  1.5918
12259TIP3   OH258191   1.316   4.333   5.825 -0.0507  0.7051 -0.6784
12259TIP3    H158192   1.305   4.302   5.735  0.0162  1.8009 -1.0825
12259TIP3    H258193   1.312   4.428   5.818 -1.2013  0.7833  0.6368
12260TIP3   OH258194   5.155   1.280  14.702 -0.2428 -0.2393  0.0307
12260TIP3    H158195   5.083   1.266  14.641 -0.6982  0.6757  0.3304
12260TIP3    H258196   5.145   1.372  14.730  0.6536 -0.2932  0.5672
12261TIP3   OH258197   2.329   6.124   4.392 -0.2931 -0.2020  0.2865
12261TIP3    H158198   2.301   6.187   4.458 -2.0505  0.0416 -0.6193
12261TIP3    H258199   2.248   6.081   4.365  0.2080  0.3702 -2.3685
12262TIP3   OH258200   6.759   3.535   2.491 -0.0822 -0.5830  0.0019
12262TIP3    H158201   6.672   3.511   2.520  1.0932 -2.3713  2.3747
12262TIP3    H258202   6.781   3.471   2.423 -1.0588  0.6969 -1.5768
12263TIP3   OH258203   3.312   2.344   5.768 -0.2259  0.1723 -0.1371
12263TIP3    H158204   3.327   2.293   5.848  0.5545 -1.0497 -1.0085
12263TIP3    H258205   3.225   2.317   5.738 -0.6913  0.9355  0.4931
12264TIP3   OH258206   2.562   5.356   0.796  0.2280  0.1896  0.1753
12264TIP3    H158207   2.470   5.383   0.796  0.4560  1.0465  0.6192
12264TIP3    H258208   2.569   5.291   0.727 -0.9311 -0.6674  0.8267
12265TIP3   OH258209   1.797   3.930  16.157  0.1813 -0.2856  0.1640
12265TIP3    H158210   1.806   3.999  16.223  1.3383 -1.8535  1.7470
12265TIP3    H258211   1.827   3.850  16.201 -2.0927 -2.0585 -1.2322
12266TIP3   OH258212   4.028   5.053   2.375  0.2338  0.9704 -0.1076
12266TIP3    H158213   3.955   5.113   2.358  0.4110  1.2197  0.0104
12266TIP3    H258214   4.051   5.019   2.289 -0.4344  0.4048 -0.0765
12267TIP3   OH258215   3.665   2.452  17.108  0.4716  0.3275 -1.0211
12267TIP3    H158216   3.728   2.522  17.090  0.2853  0.5679 -0.7220
12267TIP3    H258217   3.708   2.398  17.175 -0.2762  1.3532  0.3273
12268TIP3   OH258218   0.049   5.323   4.283  0.5284  0.4061 -0.1115
12268TIP3    H158219   0.106   5.256   4.321  0.5681  1.7560  2.4230
12268TIP3    H258220  -0.010   5.274   4.225  3.2083 -1.2297 -1.7213
12269TIP3   OH258221   2.674   0.675   3.060  0.6171 -0.3260  0.3531
12269TIP3    H158222   2.603   0.610   3.056  1.4001 -1.1900  0.0221
12269TIP3    H258223   2.660   0.720   3.143  0.1078 -0.9949  0.6494
12270TIP3   OH258224   1.705   2.906   0.482 -0.4396  0.0294 -0.5548
12270TIP3    H158225   1.652   2.985   0.487 -0.3894  0.0151  0.3849
12270TIP3    H258226   1.669   2.848   0.550  0.7454  0.0220  0.1041
12271TIP3   OH258227   5.830   2.340  13.905  0.3791 -0.9506 -0.6051
12271TIP3    H158228   5.760   2.275  13.911 -2.2063  1.5960 -0.6218
12271TIP3    H258229   5.821   2.392  13.985  1.3097  0.3030 -1.2794
12272TIP3   OH258230   6.292   6.043   0.533 -0.6203  0.3128  0.3882
12272TIP3    H158231   6.303   5.956   0.572 -0.9516  0.0508 -0.0800
12272TIP3    H258232   6.360   6.097   0.573  0.5784 -0.5563 -0.4196
12273TIP3   OH258233   3.213   5.039  14.490 -0.0312 -0.0596  0.7074
12273TIP3    H158234   3.143   4.974  14.485  0.6790 -1.1353  2.9769
12273TIP3    H258235   3.183   5.102  14.555 -0.0945  1.1231 -0.4329
12274TIP3   OH258236   6.183   5.973  12.764  0.6520  0.6686  0.1341
12274TIP3    H158237   6.102   6.022  12.750 -0.7740 -1.7145 -0.5580
12274TIP3    H258238   6.245   6.010  12.702 -1.1089  0.1021 -2.1180
12275TIP3   OH258239   1.952   5.125   2.791  0.1263  0.4017 -0.1835
12275TIP3    H158240   1.978   5.034   2.784 -0.4913  0.1015  1.1503
12275TIP3    H258241   2.034   5.173   2.800  0.4054 -0.1550  0.2878
12276TIP3   OH258242   5.075   0.410  13.571 -0.0593 -0.1132  0.1059
12276TIP3    H158243   5.158   0.437  13.609 -0.1671  0.2897  0.0556
12276TIP3    H258244   5.097   0.380  13.483 -0.2422  2.0727 -0.7573
12277TIP3   OH258245   6.271   1.630  15.130 -0.1171  0.1509  0.1759
12277TIP3    H158246   6.298   1.676  15.209 -1.8428  0.2115  0.7685
12277TIP3    H258247   6.310   1.543  15.138  0.5148  0.4641  0.5999
12278TIP3   OH258248   0.388   5.470   0.980 -0.4296 -0.0718  0.0839
12278TIP3    H158249   0.346   5.541   1.030 -0.5089 -0.5688  0.7283
12278TIP3    H258250   0.472   5.457   1.023 -1.3676 -1.9516  1.4605
12279TIP3   OH258251   6.301   2.410  12.546 -0.2113  0.3704 -0.1655
12279TIP3    H158252   6.239   2.380  12.612 -1.7029 -0.1768 -1.7360
12279TIP3    H258253   6.249   2.462  12.485  1.2645  1.5185 -0.5232
12280TIP3   OH258254   0.776   4.753  16.952 -0.4285 -0.0034 -0.7785
12280TIP3    H158255   0.828   4.686  16.996 -0.7639  0.4496  0.3474
12280TIP3    H258256   0.800   4.835  16.995 -1.3296  0.3497 -0.9172
12281TIP3   OH258257   0.277   4.160   4.452  0.4275 -0.0894  0.7014
12281TIP3    H158258   0.229   4.226   4.402  2.4327  0.1981 -1.0159
12281TIP3    H258259   0.217   4.086   4.457 -1.2014  1.2052  1.1158
12282TIP3   OH258260   1.373   4.618   5.192  0.5034  0.0610 -0.1965
12282TIP3    H158261   1.365   4.677   5.118 -0.5527  1.2635  0.8160
12282TIP3    H258262   1.400   4.674   5.265  0.0614 -0.7974  0.6533
12283TIP3   OH258263   4.956   3.661  15.569  0.0367 -0.2987  0.2433
12283TIP3    H158264   4.865   3.638  15.552 -0.2757  1.3773 -0.5345
12283TIP3    H258265   4.989   3.693  15.485  1.2071 -0.4306  0.6312
12284TIP3   OH258266   6.074   2.220  16.030 -0.7850  0.0631  0.2381
12284TIP3    H158267   6.029   2.304  16.023 -0.3541  0.2661 -0.1431
12284TIP3    H258268   6.115   2.207  15.945 -0.0907 -0.0973  0.5887
12285TIP3   OH258269   6.053   4.099  13.088  0.8037 -0.0235 -0.0216
12285TIP3    H158270   5.989   4.139  13.029  1.8833 -0.7503 -1.7552
12285TIP3    H258271   6.014   4.016  13.113 -0.0366  0.6528  1.0442
12286TIP3   OH258272   1.799   1.769   2.221 -0.4720 -0.6769 -0.1856
12286TIP3    H158273   1.736   1.710   2.180 -1.4676 -1.8389  2.7051
12286TIP3    H258274   1.802   1.740   2.313  1.4340  1.7786  0.6377
12287TIP3   OH258275   6.550   4.054   2.682  0.1069 -0.3411  1.0953
12287TIP3    H158276   6.458   4.028   2.685 -0.0930 -0.2841 -1.7888
12287TIP3    H258277   6.598   3.973   2.702 -0.5902 -1.3519 -0.9851
12288TIP3   OH258278   1.191   6.630  12.272  0.0593 -0.4870 -0.0244
12288TIP3    H158279   1.275   6.671  12.254 -0.1103  0.7143  1.6448
12288TIP3    H258280   1.211   6.537  12.284  1.1055 -0.2564  0.0858
12289TIP3   OH258281   0.896   0.015  16.082  0.4662  0.7801  0.0824
12289TIP3    H158282   0.845   0.087  16.044 -1.4952  1.0146  2.8210
12289TIP3    H258283   0.901   0.036  16.176  1.1458 -1.8863  0.7388
12290TIP3   OH258284   3.060   3.502   1.981 -0.1929 -0.4252  0.0602
12290TIP3    H158285   3.097   3.538   2.062 -1.7000 -1.9499  1.5075
12290TIP3    H258286   3.129   3.514   1.915  1.2458  0.4683  1.6571
12291TIP3   OH258287   4.886   3.978   2.082  0.5495  0.1897  0.2285
12291TIP3    H158288   4.808   3.923   2.091 -1.0360  2.2170 -0.3967
12291TIP3    H258289   4.909   4.003   2.172 -0.7537  1.1686  0.3135
12292TIP3   OH258290   4.415   6.067  10.950  0.1096 -0.2876  0.1099
12292TIP3    H158291   4.353   6.052  11.021 -0.8282 -0.4329 -0.7273
12292TIP3    H258292   4.419   6.162  10.942 -1.6770 -0.2795 -1.2374
12293TIP3   OH258293   4.580   4.326  12.294  0.2300  0.7895  0.0777
12293TIP3    H158294   4.659   4.350  12.247 -1.7809  0.6151 -3.8339
12293TIP3    H258295   4.521   4.401  12.283 -1.3138 -0.4021 -0.1830
12294TIP3   OH258296   6.305   0.672   3.378  0.3038  0.0189  0.2433
12294TIP3    H158297   6.345   0.617   3.445  0.5463  1.1114  1.0236
12294TIP3    H258298   6.333   0.761   3.400 -0.0373  0.4560 -1.0151
12295TIP3   OH258299   3.527   6.389  17.154 -0.8071  0.4535 -0.0249
12295TIP3    H158300   3.512   6.347  17.070 -1.1749 -1.1464  0.8028
12295TIP3    H258301   3.620   6.414  17.152 -0.9101  0.7761 -1.0369
12296TIP3   OH258302   2.015   5.274   4.290 -0.0810  0.3187  0.3604
12296TIP3    H158303   1.926   5.279   4.253  0.0073  1.6805  0.2629
12296TIP3    H258304   2.002   5.283   4.385 -0.1337 -0.9138  0.4905
12297TIP3   OH258305   6.166   5.421  15.112  0.2647  0.6818  0.1616
12297TIP3    H158306   6.084   5.390  15.151  0.8258 -1.8722 -0.5327
12297TIP3    H258307   6.224   5.433  15.187  0.3120 -0.9500  0.4202
12298TIP3   OH258308   5.824   6.706  13.476  0.3537  0.6386 -0.5343
12298TIP3    H158309   5.768   6.629  13.464 -2.0273  2.3395 -1.0938
12298TIP3    H258310   5.899   6.690  13.418 -1.3179 -0.2056 -2.6117
12299TIP3   OH258311   0.949   5.623   3.194  0.1718  0.6281 -0.4933
12299TIP3    H158312   0.989   5.695   3.242  2.1960 -0.0729 -1.0223
12299TIP3    H258313   0.908   5.568   3.261  1.1924  0.7316  0.2256
12300TIP3   OH258314   1.506   3.748   4.933 -0.2837 -0.4084 -0.4610
12300TIP3    H158315   1.590   3.702   4.937 -1.0908 -1.9426 -0.4699
12300TIP3    H258316   1.489   3.758   4.839 -0.9669 -1.7847 -0.5079
12301TIP3   OH258317   3.837   1.498   2.323  0.3022 -0.5971  0.0602
12301TIP3    H158318   3.854   1.427   2.262 -1.7312 -1.4698  0.4193
12301TIP3    H258319   3.751   1.477   2.361 -0.6060  2.3055 -0.1749
12302TIP3   OH258320   5.862   2.408  12.946 -0.2740  0.0018 -0.7207
12302TIP3    H158321   5.794   2.439  12.886 -1.9809 -0.8182  0.7048
12302TIP3    H258322   5.814   2.375  13.022  1.7800  0.2080  0.7353
12303TIP3   OH258323   2.675   1.218  15.292 -0.3738  0.4942  0.2054
12303TIP3    H158324   2.666   1.311  15.268 -1.8269  0.4409  0.4664
12303TIP3    H258325   2.639   1.213  15.380 -1.5643 -0.5575 -0.3273
12304TIP3   OH258326   0.382   0.653  12.331 -0.0517 -0.0633 -0.3869
12304TIP3    H158327   0.460   0.679  12.380 -0.1833 -2.4385  1.2631
12304TIP3    H258328   0.410   0.651  12.240  1.2191  1.0367 -0.0593
12305TIP3   OH258329   3.890   3.630  11.680 -0.5646 -0.5149 -0.3527
12305TIP3    H158330   3.893   3.591  11.767 -2.9098  0.1669  0.0895
12305TIP3    H258331   3.945   3.572  11.626 -1.2604 -2.5197  0.9758
12306TIP3   OH258332   1.485   4.535   0.072 -0.2292 -0.4445 -0.2028
12306TIP3    H158333   1.566   4.553   0.119  0.9130 -0.0361 -2.1956
12306TIP3    H258334   1.416   4.572   0.127  1.2589  2.4100 -0.0600
12307TIP3   OH258335   0.201   1.843   0.090 -0.5381 -0.0312  0.4610
12307TIP3    H158336   0.159   1.831   0.005  0.9317  0.2765 -0.3367
12307TIP3    H258337   0.276   1.784   0.089 -1.6825 -1.6436  2.4389
12308TIP3   OH258338   3.829   5.805   3.613 -0.0010 -0.3270 -0.0237
12308TIP3    H158339   3.834   5.720   3.656  2.6680 -0.0360  0.3846
12308TIP3    H258340   3.919   5.838   3.612 -0.9111  2.4641 -0.2559
12309TIP3   OH258341   0.632   1.196  13.434  0.0205 -0.3861  0.0629
12309TIP3    H158342   0.626   1.126  13.369 -0.2110  0.9923 -1.4815
12309TIP3    H258343   0.724   1.222  13.432 -0.2919  0.7355 -0.9543
12310TIP3   OH258344   5.242   2.187   3.077  0.0451 -0.1256 -0.3561
12310TIP3    H158345   5.236   2.283   3.082 -3.6714 -0.0244 -2.6816
12310TIP3    H258346   5.323   2.171   3.030  0.0253  2.0315 -1.2613
12311TIP3   OH258347   5.490   2.110   0.723  0.5482 -0.3371  0.4883
12311TIP3    H158348   5.462   2.127   0.633  0.3463  0.8376  0.7489
12311TIP3    H258349   5.565   2.168   0.736 -0.2509  0.5132  1.4862
12312TIP3   OH258350   0.033   5.527   3.569  0.0445 -0.3136 -0.1597
12312TIP3    H158351   0.107   5.468   3.551  0.3973  0.2807 -0.6811
12312TIP3    H258352   0.024   5.525   3.664  2.7890  2.0095  0.2981
12313TIP3   OH258353   5.367   3.155   0.892  0.3620  0.3118 -0.0400
12313TIP3    H158354   5.413   3.129   0.812  1.0191  1.1139  0.0587
12313TIP3    H258355   5.376   3.081   0.951  1.2701  0.3411 -0.1364
12314TIP3   OH258356   5.577   5.636  15.128 -0.1898  0.4868  0.3938
12314TIP3    H158357   5.588   5.577  15.054 -0.1263 -0.6837  1.3046
12314TIP3    H258358   5.520   5.705  15.095 -1.1457 -0.6431 -0.4040
12315TIP3   OH258359   0.474   5.655   0.071  0.1619 -0.4978 -0.0592
12315TIP3    H158360   0.408   5.652   0.140 -2.4904  1.9434 -2.2012
12315TIP3    H258361   0.539   5.717   0.103 -0.1533 -0.6458  0.9038
12316TIP3   OH258362   0.814   3.389  15.769 -0.0806 -0.0759  0.1194
12316TIP3    H158363   0.847   3.448  15.837  0.0630 -0.5488  0.4685
12316TIP3    H258364   0.843   3.428  15.687 -0.1850  0.4612  0.3329
12317TIP3   OH258365   1.696   1.969   5.507  0.5375 -0.0881  0.0268
12317TIP3    H158366   1.722   2.052   5.546  1.1112 -1.0657  1.8371
12317TIP3    H258367   1.729   1.973   5.418  4.3338  0.0036  1.2640
12318TIP3   OH258368   0.247   2.526   1.112 -0.0362  0.3801  0.3365
12318TIP3    H158369   0.337   2.554   1.123  0.1079  0.2107 -0.3466
12318TIP3    H258370   0.194   2.600   1.141  0.3370  1.3053 -1.2460
12319TIP3   OH258371   0.577   4.489   5.048  0.4500 -0.7931 -0.0967
12319TIP3    H158372   0.562   4.541   4.968 -1.8684 -3.2665 -1.4332
12319TIP3    H258373   0.672   4.481   5.053  0.7868  1.4946 -1.1412
12320TIP3   OH258374   1.116   2.417   4.940  0.3729 -0.0607 -0.0174
12320TIP3    H158375   1.135   2.424   5.033  0.1608 -0.2231  0.0383
12320TIP3    H258376   1.183   2.471   4.898  0.8750 -0.5198  0.1857
12321TIP3   OH258377   0.996   0.459   3.714 -0.0009  0.3269  0.4434
12321TIP3    H158378   1.089   0.451   3.696 -0.2497 -0.6819 -0.5222
12321TIP3    H258379   0.964   0.518   3.646  0.1041  1.5622  1.4411
12322TIP3   OH258380   5.551   4.406  16.583  0.1237 -0.4403 -0.3144
12322TIP3    H158381   5.482   4.339  16.583 -1.9425  1.5021 -2.3902
12322TIP3    H258382   5.504   4.489  16.586  2.5612  1.0079  1.1469
12323TIP3   OH258383   4.933   5.886   0.229  0.7103  0.3434  0.5619
12323TIP3    H158384   5.009   5.878   0.286  0.9931  1.0634  0.2987
12323TIP3    H258385   4.861   5.907   0.289  0.4554 -1.5034  0.9522
12324TIP3   OH258386   6.316   4.898  12.702 -0.0546  0.4503  0.0552
12324TIP3    H158387   6.366   4.820  12.722 -1.1604  0.0675  1.4657
12324TIP3    H258388   6.360   4.937  12.626  0.2655 -1.7457 -0.9442
12325TIP3   OH258389   3.213   2.264   0.581  0.6667 -0.0758 -0.3519
12325TIP3    H158390   3.296   2.310   0.574  0.8498 -0.3953 -0.3263
12325TIP3    H258391   3.206   2.239   0.674  0.0920  0.7691 -0.1578
12326TIP3   OH258392   6.632   4.726  14.322  0.2525  0.4015 -0.0924
12326TIP3    H158393   6.567   4.730  14.251 -1.9992 -0.6705  1.7910
12326TIP3    H258394   6.648   4.633  14.335  2.1473  0.6379 -0.4192
12327TIP3   OH258395   0.693   3.008   0.311  0.2397 -0.2791 -0.6549
12327TIP3    H158396   0.600   3.020   0.291  0.5440  2.5505 -0.8591
12327TIP3    H258397   0.738   3.044   0.234  1.4244  3.2766  1.4514
12328TIP3   OH258398   1.072   4.234   2.977 -0.3295 -0.3289  0.0266
12328TIP3    H158399   1.150   4.275   2.940  0.8278  0.8218  3.3789
12328TIP3    H258400   1.018   4.307   3.006 -1.2507 -1.1458  0.4182
12329TIP3   OH258401   3.636   5.753  13.331 -0.1868 -0.1305 -0.2106
12329TIP3    H158402   3.721   5.735  13.370  0.3394 -1.7448 -1.9517
12329TIP3    H258403   3.655   5.806  13.254 -0.8952  0.4368 -0.0137
12330TIP3   OH258404   0.248   3.506   3.240 -0.1332  0.1504 -0.2268
12330TIP3    H158405   0.220   3.598   3.244  0.9662  0.4708  0.6463
12330TIP3    H258406   0.305   3.502   3.163 -0.9083 -0.0248 -0.8015
12331TIP3   OH258407   0.081   5.438   5.803 -0.0109 -0.6319  0.2220
12331TIP3    H158408   0.058   5.481   5.885 -0.5462 -1.5047  0.5412
12331TIP3    H258409   0.159   5.386   5.824  0.0827 -0.5507  0.0773
12332TIP3   OH258410   2.258   0.466   1.913  0.1950  0.5537 -0.0720
12332TIP3    H158411   2.205   0.491   1.988  1.8708 -1.0334  1.7827
12332TIP3    H258412   2.329   0.531   1.911  0.2980  0.4411 -0.1072
12333TIP3   OH258413   4.450   0.816   0.388 -0.1090 -0.0807 -0.1275
12333TIP3    H158414   4.539   0.786   0.408 -0.0465 -0.3534 -0.7809
12333TIP3    H258415   4.461   0.909   0.367  0.2844 -0.4407 -1.7070
12334TIP3   OH258416   2.145   6.464   2.316 -0.0672  0.4897 -0.5655
12334TIP3    H158417   2.197   6.434   2.241 -1.2526 -1.5155 -0.6560
12334TIP3    H258418   2.204   6.523   2.364  1.6972 -0.3933 -1.5385
12335TIP3   OH258419   0.203   3.035  13.618  0.5765  0.0718  0.3194
12335TIP3    H158420   0.293   3.066  13.611  1.1204 -0.7952  2.5243
12335TIP3    H258421   0.204   2.977  13.694 -1.9222  0.2638  0.5707
12336TIP3   OH258422   4.194   3.492  14.616  0.6152 -0.0378  0.1001
12336TIP3    H158423   4.224   3.461  14.530  0.8578  0.4105  0.0191
12336TIP3    H258424   4.114   3.541  14.598  1.2283  0.9531 -0.0129
12337TIP3   OH258425   1.440   6.678   3.469 -0.1979 -0.6393  0.3400
12337TIP3    H158426   1.489   6.760   3.474  2.4482 -2.1478  0.9858
12337TIP3    H258427   1.401   6.679   3.382 -1.3949  1.8642  0.8231
12338TIP3   OH258428   2.337   3.534   1.237  1.0394 -0.2042  0.4722
12338TIP3    H158429   2.289   3.608   1.275 -0.1021 -0.8420  0.3222
12338TIP3    H258430   2.314   3.536   1.144  2.1647  0.1136  0.1927
12339TIP3   OH258431   4.671   6.053  13.726 -0.5857 -0.4588  0.8745
12339TIP3    H158432   4.612   6.095  13.789 -0.0715  1.3121  0.2352
12339TIP3    H258433   4.616   5.992  13.678 -1.2769 -0.8447  2.1202
12340TIP3   OH258434   5.076   4.696  11.215 -0.4512  0.0254 -0.5064
12340TIP3    H158435   5.123   4.685  11.132 -0.9565  1.9346 -1.0977
12340TIP3    H258436   4.986   4.669  11.195 -0.1974 -1.1850 -0.0762
12341TIP3   OH258437   2.973   6.005  11.462  0.2462 -0.6466  0.1761
12341TIP3    H158438   2.986   5.974  11.551  0.6188 -0.2665  0.2546
12341TIP3    H258439   2.879   6.021  11.455  0.4646  1.3152  1.1600
12342TIP3   OH258440   2.864   0.525  15.301  0.0337 -0.1503  0.0280
12342TIP3    H158441   2.810   0.458  15.260  1.5458 -0.4639 -1.5777
12342TIP3    H258442   2.952   0.511  15.264  0.8930  1.2619  1.4002
12343TIP3   OH258443   6.596   2.507   2.292 -0.2130 -0.4895  0.1843
12343TIP3    H158444   6.510   2.538   2.320  1.2774  2.8521  1.5602
12343TIP3    H258445   6.604   2.537   2.201 -0.8475 -1.7444 -0.3097
12344TIP3   OH258446   2.522   2.740  10.770 -0.6451 -0.4619  0.8551
12344TIP3    H158447   2.613   2.746  10.741 -0.3775  0.6252  1.8285
12344TIP3    H258448   2.471   2.754  10.691  0.0506  0.3515  0.5289
12345TIP3   OH258449   2.826   2.132   5.966 -0.1846  0.0436 -0.2633
12345TIP3    H158450   2.787   2.202   5.913  1.1581  1.7419  0.8849
12345TIP3    H258451   2.911   2.167   5.992 -0.2735 -1.2416  1.9351
12346TIP3   OH258452   3.026   2.547   0.224  0.4367  0.4670  0.3810
12346TIP3    H158453   3.003   2.543   0.317  0.5717  0.5779  0.4199
12346TIP3    H258454   2.975   2.477   0.184  0.6001  0.2266  0.5873
12347TIP3   OH258455   4.277   0.289  12.588  0.4892  0.4876 -0.0374
12347TIP3    H158456   4.324   0.227  12.532 -1.4607 -0.5470 -0.6157
12347TIP3    H258457   4.334   0.300  12.664  0.2537 -3.3630  0.9064
12348TIP3   OH258458   3.912   1.007   2.878  0.8215 -0.0285 -0.1105
12348TIP3    H158459   3.826   1.044   2.894  1.1314  0.4747  0.4116
12348TIP3    H258460   3.895   0.914   2.863  0.0130  0.3199 -1.6443
12349TIP3   OH258461   2.597   1.625  16.812  0.0128 -0.3051  0.2796
12349TIP3    H158462   2.596   1.706  16.862  0.7957 -0.1268  0.0123
12349TIP3    H258463   2.679   1.582  16.837 -0.3918 -1.0155  0.4144
12350TIP3   OH258464   5.242   2.239   2.787  0.8112 -0.2750  0.1203
12350TIP3    H158465   5.313   2.197   2.737  0.6926 -1.4696  0.9122
12350TIP3    H258466   5.285   2.312   2.832  0.8405  1.1215 -2.0077
12351TIP3   OH258467   0.850   6.402   0.461 -0.4482  0.7099 -0.4358
12351TIP3    H158468   0.832   6.370   0.372  0.5288  0.1971 -0.4605
12351TIP3    H258469   0.880   6.492   0.448 -1.1858  0.9512 -0.5387
12352TIP3   OH258470   3.878   6.387  16.254 -0.0638  0.2837 -0.2733
12352TIP3    H158471   3.834   6.466  16.224 -0.3374  0.3744  0.3402
12352TIP3    H258472   3.950   6.374  16.193  1.4039  2.3221  0.9091
12353TIP3   OH258473   3.174   0.939   2.504  0.2320 -0.0214  0.6297
12353TIP3    H158474   3.169   0.915   2.411 -0.5593  1.1670  0.3526
12353TIP3    H258475   3.268   0.949   2.521  0.6816 -3.3334  0.8098
12354TIP3   OH258476   6.490   6.058   3.360  0.2789 -0.7198  0.1923
12354TIP3    H158477   6.550   6.086   3.430 -0.5111 -0.8109  0.9274
12354TIP3    H258478   6.484   5.963   3.370 -1.2853 -0.5520  1.2406
12355TIP3   OH258479   2.633   5.008   3.905  0.0596  0.3643 -0.2048
12355TIP3    H158480   2.670   4.924   3.878  1.1313  0.2767  1.3984
12355TIP3    H258481   2.556   4.984   3.956  0.2941  0.3541  0.1468
12356TIP3   OH258482   0.092   2.835   4.115  0.3986 -0.1330 -0.0304
12356TIP3    H158483   0.130   2.799   4.195  0.4816  0.3344  0.1490
12356TIP3    H258484   0.001   2.854   4.139  0.0862 -1.1171 -0.4145
12357TIP3   OH258485   6.633   5.308  13.472 -0.0291 -0.1537  0.2868
12357TIP3    H158486   6.653   5.231  13.418 -0.1894 -0.1492  0.2209
12357TIP3    H258487   6.579   5.363  13.416  1.0810  0.5731 -0.0982
12358TIP3   OH258488   4.236   2.494   3.503 -0.2346  0.3779  0.1839
12358TIP3    H158489   4.325   2.466   3.478 -0.1534 -0.1084  0.9768
12358TIP3    H258490   4.179   2.449   3.442  0.0951  1.3220 -0.8569
12359TIP3   OH258491   2.889   1.959   5.765  0.0839 -0.3083 -0.3663
12359TIP3    H158492   2.850   2.032   5.813  2.7356  0.9255  0.0803
12359TIP3    H258493   2.908   1.894   5.833  1.4067  0.3220 -0.1092
12360TIP3   OH258494   1.026   3.042  12.144 -0.2047  0.2875 -0.2953
12360TIP3    H158495   0.971   3.071  12.217 -1.2217 -1.3472 -0.3415
12360TIP3    H258496   0.964   3.008  12.080  0.8177 -2.0535 -0.1653
12361TIP3   OH258497   1.339   6.536  13.375  0.0405  0.7039 -0.5583
12361TIP3    H158498   1.410   6.564  13.432  0.2847 -1.7545  0.4980
12361TIP3    H258499   1.274   6.606  13.381 -0.1156  0.4161  3.1358
12362TIP3   OH258500   1.711   0.153  12.484  0.1121  0.0594 -0.2090
12362TIP3    H158501   1.792   0.203  12.488 -0.2817  0.7606 -0.7531
12362TIP3    H258502   1.689   0.151  12.390 -0.7415  0.2914 -0.0224
12363TIP3   OH258503   6.610   4.833  16.226 -0.3457  1.1882 -0.4383
12363TIP3    H158504   6.641   4.891  16.295 -2.1946  1.5544  0.1289
12363TIP3    H258505   6.619   4.745  16.262  0.9214  1.1937 -0.6795
12364TIP3   OH258506   1.288   1.834   4.349 -0.8401 -0.2069  0.0010
12364TIP3    H158507   1.285   1.888   4.427 -0.6883 -1.7186  1.1057
12364TIP3    H258508   1.267   1.746   4.380  0.4271 -1.0751 -1.4502
12365TIP3   OH258509   4.896   3.755  12.190  0.0975 -0.0352 -0.0776
12365TIP3    H158510   4.884   3.777  12.098  0.6624 -0.9259 -0.3762
12365TIP3    H258511   4.911   3.839  12.233  2.6443  0.1905 -1.2336
12366TIP3   OH258512   3.280   0.788  11.362 -0.4086 -0.1445 -0.0097
12366TIP3    H158513   3.222   0.843  11.310 -0.2168 -0.1432 -0.2221
12366TIP3    H258514   3.235   0.704  11.366 -1.2540  0.3408  1.2757
12367TIP3   OH258515   2.646   6.610  16.134 -0.3643 -0.2860 -0.4842
12367TIP3    H158516   2.633   6.590  16.227  2.5987 -2.0588 -0.3202
12367TIP3    H258517   2.739   6.627  16.126 -0.6294  0.3477 -3.0727
12368TIP3   OH258518   0.260   0.832   4.659 -0.1334  0.1440  0.1499
12368TIP3    H158519   0.338   0.826   4.604 -0.3934 -2.0894 -0.0762
12368TIP3    H258520   0.194   0.780   4.613 -1.2862  0.7239  1.0940
12369TIP3   OH258521   1.099   6.178  12.593 -0.6744  0.0085 -0.4606
12369TIP3    H158522   1.062   6.212  12.674  0.7721  0.5147  0.0241
12369TIP3    H258523   1.023   6.159  12.537 -1.7022 -0.3939  1.0086
12370TIP3   OH258524   1.633   3.189   0.109 -0.8384 -0.1067  0.5518
12370TIP3    H158525   1.624   3.256   0.041 -1.2846  0.1158  0.8291
12370TIP3    H258526   1.552   3.139   0.106  0.4115 -2.1813 -1.2563
12371TIP3   OH258527   4.783   0.201   1.480  0.2196 -0.8041 -0.2369
12371TIP3    H158528   4.831   0.211   1.562 -1.1099  2.4450  0.3320
12371TIP3    H258529   4.691   0.211   1.504 -0.4350 -2.2905 -1.8592
12372TIP3   OH258530   5.183   2.086  15.531 -0.1060  0.8132  0.3358
12372TIP3    H158531   5.240   2.040  15.594 -2.3309 -1.3457  0.9346
12372TIP3    H258532   5.239   2.100  15.455  1.5138 -0.3324  1.2382
12373TIP3   OH258533   3.906   4.149  16.060 -0.4166  0.1785 -0.1913
12373TIP3    H158534   3.880   4.136  15.969 -0.6756 -0.9345  0.0247
12373TIP3    H258535   3.887   4.065  16.102 -2.3512  1.2969  1.3733
12374TIP3   OH258536   2.610   1.961  13.437 -0.2624 -0.1230  0.5161
12374TIP3    H158537   2.663   1.884  13.415  0.1793 -0.2854  1.9951
12374TIP3    H258538   2.545   1.928  13.499 -3.0234 -0.2051 -2.2096
12375TIP3   OH258539   5.995   1.536  15.774 -0.1326  0.0926  0.2910
12375TIP3    H158540   5.934   1.471  15.738  1.5375 -1.4676  0.1445
12375TIP3    H258541   6.080   1.511  15.737  0.9646  0.8869  2.1625
12376TIP3   OH258542   5.375   2.266   1.235 -0.1317 -0.4853 -0.1875
12376TIP3    H158543   5.431   2.263   1.312 -0.0881  0.3618 -0.1769
12376TIP3    H258544   5.340   2.177   1.227 -0.9369 -0.3489  1.4041
12377TIP3   OH258545   1.899   5.769   2.639  0.4482  0.3733  0.2561
12377TIP3    H158546   1.936   5.690   2.678 -1.4910 -0.2371  0.9900
12377TIP3    H258547   1.952   5.840   2.675  1.0433 -0.4589  1.0866
12378TIP3   OH258548   0.254   2.612  14.564  0.4441  0.1255 -0.0721
12378TIP3    H158549   0.188   2.634  14.498 -0.4047  0.8843  0.9869
12378TIP3    H258550   0.212   2.543  14.617  1.5256 -1.2422 -0.9353
12379TIP3   OH258551   4.802   5.263   0.255  0.2735  0.3910 -0.2902
12379TIP3    H158552   4.748   5.190   0.283  2.3069 -0.6944  1.1041
12379TIP3    H258553   4.794   5.327   0.326 -0.3908  0.9188 -0.8328
12380TIP3   OH258554   1.689   5.215   0.006 -0.0853  0.3433  0.2128
12380TIP3    H158555   1.712   5.302   0.036  0.9354  0.6648 -1.3740
12380TIP3    H258556   1.620   5.230  -0.059  0.8196  0.1022 -0.8411
12381TIP3   OH258557   6.365   5.649  16.155  0.0307  0.2633  0.0610
12381TIP3    H158558   6.441   5.596  16.129 -0.2824 -0.5904  0.8473
12381TIP3    H258559   6.323   5.598  16.224  0.2011  1.9169  1.4670
12382TIP3   OH258560   3.368   0.371   4.132  0.1390  0.4158 -0.4198
12382TIP3    H158561   3.277   0.401   4.130  0.4270  1.4835  1.0783
12382TIP3    H258562   3.418   0.446   4.098  0.5487  0.2018 -0.2895
12383TIP3   OH258563   1.256   1.990  14.570 -0.2048  0.3665  0.4129
12383TIP3    H158564   1.291   1.903  14.551  0.9898  0.9542 -0.1890
12383TIP3    H258565   1.166   1.987  14.537 -0.2955 -0.7369  0.7213
12384TIP3   OH258566   4.832   0.634   3.863 -0.3035 -0.2811  0.0175
12384TIP3    H158567   4.918   0.612   3.900 -0.5254  0.3779  0.9447
12384TIP3    H258568   4.850   0.707   3.804 -0.0711 -0.8233 -0.5945
12385TIP3   OH258569   2.752   2.483  14.284  0.9417  0.1163 -0.3452
12385TIP3    H158570   2.768   2.469  14.191  1.0122 -0.9434 -0.1904
12385TIP3    H258571   2.790   2.405  14.326  1.3274  0.8025  0.6021
12386TIP3   OH258572   2.421   4.611   2.282 -0.1255 -0.3202  0.0341
12386TIP3    H158573   2.470   4.691   2.261 -0.7137 -0.0642 -0.3830
12386TIP3    H258574   2.467   4.542   2.234  1.0124 -0.4267  1.2183
12387TIP3   OH258575   2.753   1.519   0.617 -0.2279  0.0719  0.2974
12387TIP3    H158576   2.812   1.505   0.691  0.1864 -0.0066 -0.0440
12387TIP3    H258577   2.666   1.523   0.656  0.0437  0.6469  0.8533
12388TIP3   OH258578   0.057   2.027  15.518 -0.1585 -0.0337 -0.1592
12388TIP3    H158579   0.028   2.108  15.477  0.0288  0.6069  0.9283
12388TIP3    H258580  -0.009   2.010  15.586  1.9600  1.5702  2.5161
12389TIP3   OH258581   4.253   5.560   2.153  0.3937  0.1354 -0.0525
12389TIP3    H158582   4.229   5.550   2.245  0.3106 -1.2832 -0.2052
12389TIP3    H258583   4.239   5.653   2.134  1.6501  0.7329  1.7028
12390TIP3   OH258584   1.404   1.180  12.737  0.4552 -0.0054 -0.5256
12390TIP3    H158585   1.392   1.247  12.670 -1.4186 -0.1210 -0.3765
12390TIP3    H258586   1.498   1.173  12.749  0.7067  2.2507 -0.8854
12391TIP3   OH258587   4.994   6.478   5.117  0.4363  0.0499 -0.1632
12391TIP3    H158588   4.993   6.470   5.021 -0.3748  0.8957 -0.2372
12391TIP3    H258589   4.977   6.389   5.148  0.4198 -0.1825 -0.8146
12392TIP3   OH258590   1.432   4.976  14.860  0.0156 -0.7137  0.3198
12392TIP3    H158591   1.521   5.011  14.858 -0.1704 -0.1204  1.6090
12392TIP3    H258592   1.387   5.021  14.789  0.0700  0.9249  1.2628
12393TIP3   OH258593   5.834   3.689  14.763  0.2441  0.2256 -0.5703
12393TIP3    H158594   5.817   3.623  14.829 -2.0896  0.6437 -0.6532
12393TIP3    H258595   5.799   3.770  14.800  1.0941  0.9684 -1.3342
12394TIP3   OH258596   5.777   5.713  12.950 -0.1379 -0.1024 -0.0362
12394TIP3    H158597   5.725   5.645  12.992  1.3879 -1.5319 -0.3420
12394TIP3    H258598   5.770   5.789  13.009 -1.4694 -0.6646  0.5687
12395TIP3   OH258599   1.493   6.135   0.128  0.2592 -0.0386 -0.7525
12395TIP3    H158600   1.586   6.113   0.135  0.2652  0.2269  0.3365
12395TIP3    H258601   1.492   6.221   0.085  0.4007 -0.7752 -2.2904
12396TIP3   OH258602   5.321   4.958  15.294 -0.0780 -0.6008 -0.3957
12396TIP3    H158603   5.242   4.949  15.348 -0.9516 -3.8321 -1.9624
12396TIP3    H258604   5.378   5.017  15.344 -2.1483 -0.7477  2.3707
12397TIP3   OH258605   6.618   5.601   1.455  0.1280  0.2501 -0.2299
12397TIP3    H158606   6.628   5.512   1.490  0.4653  1.4954  3.1444
12397TIP3    H258607   6.528   5.602   1.421  0.1038 -1.3347 -0.3277
12398TIP3   OH258608   3.735   2.044  15.437  0.4331  0.0043  0.1462
12398TIP3    H158609   3.769   2.075  15.354  1.0724 -0.5590  0.1876
12398TIP3    H258610   3.805   2.061  15.500  0.1701 -0.0677  0.4630
12399TIP3   OH258611   1.362   2.936   4.528  0.3172 -0.3789 -0.2429
12399TIP3    H158612   1.359   2.999   4.456  0.2289 -0.9764 -0.7733
12399TIP3    H258613   1.377   2.989   4.606 -1.0308  0.4272 -0.5085
12400TIP3   OH258614   0.665   6.605   2.346 -0.5020 -0.4340 -0.3645
12400TIP3    H158615   0.743   6.565   2.308 -0.2723 -0.5356  0.2034
12400TIP3    H258616   0.593   6.577   2.288 -0.5612 -2.8252  0.7283
12401TIP3   OH258617   4.208   3.211  14.340  0.3460 -0.2218 -0.1240
12401TIP3    H158618   4.225   3.279  14.275  0.9537 -0.5092 -0.2723
12401TIP3    H258619   4.294   3.191  14.377 -0.1483  0.8774  1.7208
12402TIP3   OH258620   0.803   5.151  16.823 -0.3189 -0.4023 -0.1273
12402TIP3    H158621   0.821   5.221  16.886  1.0189 -0.6151 -0.2409
12402TIP3    H258622   0.738   5.096  16.866  1.5852 -1.3558  1.7424
12403TIP3   OH258623   2.742   6.150  11.966  0.2283 -0.0922  0.2435
12403TIP3    H158624   2.785   6.127  11.884 -0.5663  0.6356 -0.3901
12403TIP3    H258625   2.665   6.199  11.940 -0.9727 -1.3169  1.3597
12404TIP3   OH258626   0.304   4.861   4.522 -0.1701  0.1912  0.2877
12404TIP3    H158627   0.234   4.921   4.499 -0.1987 -0.1312 -0.4881
12404TIP3    H258628   0.383   4.915   4.525 -0.3126  0.3970  0.3200
12405TIP3   OH258629   3.128   4.923   6.178 -0.0238 -0.2348  0.9072
12405TIP3    H158630   3.123   4.835   6.142 -0.3939 -0.2303  0.9454
12405TIP3    H258631   3.097   4.915   6.268  1.2378 -0.3112  1.3565
12406TIP3   OH258632   0.924   0.208  14.961 -0.3007  0.3310 -1.0005
12406TIP3    H158633   0.893   0.144  14.898 -0.1986  0.6670 -1.3979
12406TIP3    H258634   0.848   0.226  15.017  0.0003 -1.0607 -0.0831
12407TIP3   OH258635   5.106   3.709  16.918 -0.1716  0.2677 -0.9851
12407TIP3    H158636   5.036   3.711  16.982 -0.3127 -2.1836 -0.9899
12407TIP3    H258637   5.063   3.726  16.834 -0.6073 -0.1792 -0.8576
12408TIP3   OH258638   1.357   0.404  10.775  0.6255  0.5418 -0.0483
12408TIP3    H158639   1.440   0.403  10.728  0.6878 -0.3187  0.0615
12408TIP3    H258640   1.338   0.497  10.788  0.6829  0.8165 -1.6406
12409TIP3   OH258641   4.161   3.504   0.736 -0.1369  0.6419 -0.5984
12409TIP3    H158642   4.135   3.522   0.827  0.4497 -1.0671 -0.0610
12409TIP3    H258643   4.102   3.436   0.707  0.3726  0.4249 -1.1360
12410TIP3   OH258644   2.951   5.756   3.276  0.4243  0.5232  0.4180
12410TIP3    H158645   2.875   5.814   3.265  0.8752  1.0219 -0.1954
12410TIP3    H258646   2.922   5.689   3.337 -1.1224 -0.3382 -1.1671
12411TIP3   OH258647   5.461   3.334  11.929 -0.1298  0.4555  0.3490
12411TIP3    H158648   5.545   3.310  11.968  0.5545  0.1983 -1.1998
12411TIP3    H258649   5.403   3.348  12.004  0.7532 -1.2561  1.4094
12412TIP3   OH258650   6.385   5.197   1.549  0.1940  0.1963 -0.4769
12412TIP3    H158651   6.296   5.205   1.517 -0.0958  1.4871  0.5631
12412TIP3    H258652   6.382   5.127   1.613 -0.3316  0.9295  0.3246
12413TIP3   OH258653   3.402   1.057   6.035  0.0101  0.3091  0.0170
12413TIP3    H158654   3.423   0.967   6.009 -0.5915  0.2037 -0.1183
12413TIP3    H258655   3.363   1.096   5.957  0.1909  0.6620  0.1034
12414TIP3   OH258656   6.138   6.682  13.268 -0.4595  0.2072  0.1904
12414TIP3    H158657   6.141   6.643  13.180  1.0084  0.9895 -0.1489
12414TIP3    H258658   6.051   6.660  13.301 -0.5819 -1.2036 -0.9483
12415TIP3   OH258659   4.852   5.427   1.614  0.1870 -0.2160  0.3491
12415TIP3    H158660   4.784   5.396   1.554  0.9288 -2.2013  0.4689
12415TIP3    H258661   4.867   5.518   1.588 -1.0978 -0.3437 -0.9709
12416TIP3   OH258662   3.315   6.771  11.346 -0.5823  0.0870 -0.2563
12416TIP3    H158663   3.392   6.725  11.377 -0.5057 -0.1801 -0.8166
12416TIP3    H258664   3.312   6.852  11.397  0.1350  0.1533 -0.3116
12417TIP3   OH258665   3.606   1.102  12.854 -0.3079  0.1084 -0.4565
12417TIP3    H158666   3.600   1.040  12.782 -0.2571 -0.2803 -0.1293
12417TIP3    H258667   3.604   1.048  12.933  0.5219  0.4568 -0.1803
12418TIP3   OH258668   2.305   2.166  11.256 -0.1131  0.0624 -0.6996
12418TIP3    H158669   2.335   2.145  11.167  1.5128  2.9243 -0.9394
12418TIP3    H258670   2.211   2.182  11.245  0.2191  1.3101 -2.1771
12419TIP3   OH258671   0.785   2.259   2.017  0.0631  0.3418 -0.6306
12419TIP3    H158672   0.794   2.165   2.001 -2.3185  0.1105 -0.9193
12419TIP3    H258673   0.856   2.280   2.078 -0.0636 -1.8690  0.3647
12420TIP3   OH258674   6.487   2.627  15.197 -0.0183 -0.7771  0.3119
12420TIP3    H158675   6.472   2.601  15.288 -2.4912 -2.8110 -0.5386
12420TIP3    H258676   6.580   2.614  15.183  0.6520  0.6681  2.8095
12421TIP3   OH258677   5.545   4.281   3.146 -0.1964 -0.0482  0.9736
12421TIP3    H158678   5.570   4.362   3.101  0.5064  0.5275  2.3072
12421TIP3    H258679   5.451   4.275   3.134 -0.6077  2.1086  2.5174
12422TIP3   OH258680   0.368   2.614  15.544  0.2912  0.0337  0.3645
12422TIP3    H158681   0.398   2.683  15.485 -1.4876 -0.1143 -0.8171
12422TIP3    H258682   0.435   2.609  15.612  1.5100  1.4686 -0.6619
12423TIP3   OH258683   6.048   4.900   3.085  0.5802  0.1064  0.0591
12423TIP3    H158684   5.955   4.916   3.071  0.3997 -1.3904 -0.6242
12423TIP3    H258685   6.084   4.986   3.107 -1.1248  0.5227  1.3951
12424TIP3   OH258686   3.662   6.260  11.416 -0.0159  1.0646  0.5093
12424TIP3    H158687   3.580   6.226  11.379 -0.3653  2.4930 -0.0844
12424TIP3    H258688   3.691   6.326  11.354  3.3513 -1.5436 -1.0271
12425TIP3   OH258689   6.363   1.256  13.947  0.3719  0.4652 -0.0713
12425TIP3    H158690   6.343   1.177  13.897 -0.7800  1.5419 -1.3940
12425TIP3    H258691   6.447   1.286  13.912 -0.6581  1.4785 -1.7670
12426TIP3   OH258692   3.331   1.196  17.185 -0.0629  0.6663  0.0089
12426TIP3    H158693   3.409   1.150  17.217 -0.5582 -0.6043 -0.5254
12426TIP3    H258694   3.343   1.286  17.214  2.1802  0.7966 -1.1051
12427TIP3   OH258695   0.383   4.213  11.000  0.1006 -0.2592  0.7970
12427TIP3    H158696   0.343   4.134  10.966  0.0380  0.0560  0.1153
12427TIP3    H258697   0.468   4.185  11.035  1.3280 -0.2581 -1.8995
12428TIP3   OH258698   1.805   3.927   5.766  0.1875 -0.2042  0.2853
12428TIP3    H158699   1.785   3.938   5.673 -1.7084  0.1346  0.7059
12428TIP3    H258700   1.734   3.971   5.812 -1.1266 -3.6559  1.9407
12429TIP3   OH258701   0.482   1.994  12.734  0.6020 -0.6008 -0.2485
12429TIP3    H158702   0.414   2.026  12.675  0.2369 -0.3420  0.3006
12429TIP3    H258703   0.439   1.924  12.784  0.5821 -0.1217  0.4275
12430TIP3   OH258704   3.414   6.555   2.525  0.2285  0.0338 -0.7546
12430TIP3    H158705   3.494   6.504   2.518  1.9397  1.6919  3.4317
12430TIP3    H258706   3.359   6.505   2.585 -0.7999  0.1266 -1.6019
12431TIP3   OH258707   1.390   5.190  10.966 -0.5562  0.0133 -0.2069
12431TIP3    H158708   1.468   5.230  10.928 -0.3134 -1.6706 -1.6567
12431TIP3    H258709   1.328   5.185  10.893 -1.6353  0.3901  0.6674
12432TIP3   OH258710   6.510   5.621   0.837 -0.3673 -0.2096  1.0398
12432TIP3    H158711   6.539   5.579   0.918  2.1021 -0.3411  0.1826
12432TIP3    H258712   6.524   5.555   0.769  1.5877  1.2017 -0.0405
12433TIP3   OH258713   4.438   6.226   3.885 -0.7434  0.1326 -0.1719
12433TIP3    H158714   4.388   6.272   3.953 -0.0258  1.1253 -0.2928
12433TIP3    H258715   4.529   6.241   3.910 -0.4850 -0.1104 -0.9696
12434TIP3   OH258716   3.518   2.255   5.113  0.1385  0.0489 -0.2492
12434TIP3    H158717   3.559   2.272   5.029  0.9365 -0.3828  0.0416
12434TIP3    H258718   3.556   2.173   5.143 -1.6934 -0.9134 -0.4157
12435TIP3   OH258719   5.467   2.667  12.546 -0.0634  0.2738 -0.0217
12435TIP3    H158720   5.393   2.703  12.595  0.8031  0.5754  1.1100
12435TIP3    H258721   5.448   2.574  12.539 -1.4850  0.6258 -1.4682
12436TIP3   OH258722   4.790   4.291   0.532  0.1221 -0.0737  0.6605
12436TIP3    H158723   4.766   4.276   0.440  2.3414  0.9319 -0.1632
12436TIP3    H258724   4.860   4.227   0.548  0.9913  0.9666  1.0611
12437TIP3   OH258725   1.133   1.033   0.206 -0.0284 -0.7472 -0.0332
12437TIP3    H158726   1.087   0.955   0.174 -0.9246 -0.1100 -0.3378
12437TIP3    H258727   1.067   1.080   0.258  0.6128 -0.3743  0.4595
12438TIP3   OH258728   2.149   1.922  11.155  0.1868  0.2435 -0.1262
12438TIP3    H158729   2.093   1.933  11.077 -1.2258  0.0893  0.8243
12438TIP3    H258730   2.237   1.913  11.120 -0.3295  0.8101 -1.6853
12439TIP3   OH258731   3.855   4.392  12.122 -0.4959 -0.3156 -0.2295
12439TIP3    H158732   3.817   4.386  12.210  0.7961  0.0133  0.3869
12439TIP3    H258733   3.787   4.433  12.069 -0.5845  1.4138  1.1204
12440TIP3   OH258734   6.247   6.417  14.719 -0.1783 -0.1626 -0.0737
12440TIP3    H158735   6.324   6.419  14.662  0.1165 -0.5819  0.3044
12440TIP3    H258736   6.175   6.394  14.661 -0.0081  0.1589 -0.4170
12441TIP3   OH258737   5.036   6.625  13.528 -0.3161 -0.1821 -0.3464
12441TIP3    H158738   4.961   6.678  13.501 -0.4603 -0.4318 -0.4380
12441TIP3    H258739   5.033   6.625  13.623 -0.8352 -0.7632 -0.3586
12442TIP3   OH258740   4.633   5.586  11.436 -0.3739 -0.9693  0.0929
12442TIP3    H158741   4.542   5.614  11.423 -0.6531 -2.3902 -1.4489
12442TIP3    H258742   4.685   5.665  11.422 -1.3555 -0.1846  0.7947
12443TIP3   OH258743   2.480   0.172  16.348 -0.3660  0.2938 -0.5589
12443TIP3    H158744   2.476   0.265  16.328  1.5899  0.0755 -2.2913
12443TIP3    H258745   2.570   0.147  16.328 -0.5770 -1.7978  0.7486
12444TIP3   OH258746   6.317   2.203   3.339  0.3838 -0.2654 -0.2937
12444TIP3    H158747   6.344   2.151   3.415 -0.0343  0.0297  0.0589
12444TIP3    H258748   6.259   2.270   3.375  2.0361  1.3513 -0.5406
12445TIP3   OH258749   0.119   3.626  16.594 -0.5839  0.6069  0.0355
12445TIP3    H158750   0.114   3.718  16.619  0.1627  0.9221 -0.9338
12445TIP3    H258751   0.069   3.620  16.513 -1.0329  0.0584  0.3491
12446TIP3   OH258752   2.043   3.890   0.774  0.2272  0.0981  0.5504
12446TIP3    H158753   2.030   3.913   0.682 -0.4384 -0.4311  0.4997
12446TIP3    H258754   2.117   3.944   0.803 -0.1361  0.9400 -0.0438
12447TIP3   OH258755   6.079   5.131   2.685 -0.0010  0.1442 -0.3473
12447TIP3    H158756   5.987   5.152   2.670  0.2851  0.4964 -1.7545
12447TIP3    H258757   6.092   5.148   2.778 -0.7854  2.4787 -0.5949
12448TIP3   OH258758   1.002   4.302  17.006  1.0360 -0.5855  0.1183
12448TIP3    H158759   1.086   4.258  16.990  0.5636 -1.5451  0.1730
12448TIP3    H258760   0.963   4.252  17.078  0.9349  0.5926  0.8963
12449TIP3   OH258761   6.095   3.142   0.262 -0.7342  0.0644  0.4079
12449TIP3    H158762   6.071   3.109   0.176 -0.2113 -1.5296  0.8369
12449TIP3    H258763   6.063   3.074   0.323 -1.0645  1.1347  1.4669
12450TIP3   OH258764   0.899   1.403  11.218 -0.5034  0.0135 -0.1534
12450TIP3    H158765   0.887   1.496  11.203 -0.4351 -0.1435 -1.3018
12450TIP3    H258766   0.871   1.362  11.136 -0.5288 -0.9752  0.3332
12451TIP3   OH258767   6.302   0.528   6.601  0.4854 -0.2386  0.5155
12451TIP3    H158768   6.349   0.546   6.520  2.1236 -1.3722  1.1661
12451TIP3    H258769   6.257   0.610   6.621  0.3806  0.1989 -1.2819
12452TIP3   OH258770   2.366   4.107   5.350  0.4289  0.3243 -0.3545
12452TIP3    H158771   2.362   4.108   5.445  1.9336  0.4204 -0.2699
12452TIP3    H258772   2.290   4.158   5.322 -0.1219  0.1537  0.7794
12453TIP3   OH258773   0.448   2.523  10.656  0.3135  0.1514 -0.2726
12453TIP3    H158774   0.510   2.459  10.690  0.2286  1.0537  1.6852
12453TIP3    H258775   0.364   2.496  10.693 -0.3166 -0.4321 -2.0356
12454TIP3   OH258776   2.762   0.230  15.444  0.4448  0.5946  0.2130
12454TIP3    H158777   2.736   0.275  15.363 -0.9649  0.5472  0.6133
12454TIP3    H258778   2.742   0.292  15.514  0.4385  0.1522  0.6113
12455TIP3   OH258779   4.647   4.250   1.426 -0.3096 -0.2219  0.3329
12455TIP3    H158780   4.624   4.158   1.414 -2.7336  0.2672  0.6810
12455TIP3    H258781   4.724   4.263   1.371  1.1895 -2.8325  1.6220
12456TIP3   OH258782   5.952   2.427  13.447  0.2159  0.4484 -0.1602
12456TIP3    H158783   5.883   2.370  13.414  0.0200  0.7696 -0.3109
12456TIP3    H258784   5.954   2.410  13.541 -1.3849  1.8192  0.1628
12457TIP3   OH258785   0.095   2.377   0.808  0.5767 -0.1442  0.3469
12457TIP3    H158786   0.051   2.296   0.781  1.0177  0.2692 -1.8757
12457TIP3    H258787   0.175   2.346   0.852 -0.5038 -0.8781  1.8814
12458TIP3   OH258788   3.108   6.633  12.410 -0.8781 -0.4723 -0.1740
12458TIP3    H158789   3.198   6.665  12.397  0.1837 -3.1460 -0.0255
12458TIP3    H258790   3.068   6.637  12.323 -0.9793  1.5810 -0.0824
12459TIP3   OH258791   2.012   0.597  14.845 -0.0559  0.1247 -0.3333
12459TIP3    H158792   1.955   0.536  14.892  1.2803 -0.4584  0.5880
12459TIP3    H258793   1.992   0.682  14.883 -0.6566  0.0059 -0.3715
12460TIP3   OH258794   3.322   2.062  10.675 -0.0489 -0.0382  0.1954
12460TIP3    H158795   3.353   1.973  10.655  0.2807 -0.6074  2.7900
12460TIP3    H258796   3.317   2.064  10.771 -0.6346  2.5720  0.1830
12461TIP3   OH258797   5.507   4.078   3.317 -0.2344  0.4142  0.8922
12461TIP3    H158798   5.518   3.990   3.281  0.5382 -0.1317  2.4007
12461TIP3    H258799   5.539   4.136   3.247  0.7867 -0.5849  0.4964
12462TIP3   OH258800   0.274   0.051   4.260 -0.2941  0.0560  0.2631
12462TIP3    H158801   0.190   0.011   4.280  0.3116 -1.3081  0.1388
12462TIP3    H258802   0.339  -0.001   4.307  0.5153  0.9152  0.1412
12463TIP3   OH258803   6.411   5.142  17.120 -0.0604 -0.3169 -0.3038
12463TIP3    H158804   6.426   5.136  17.215  1.8568  1.5116 -0.4111
12463TIP3    H258805   6.455   5.066  17.084  1.0278  0.0543  0.1668
12464TIP3   OH258806   2.180   1.835  14.511  0.4624 -0.3999 -0.2072
12464TIP3    H158807   2.259   1.856  14.561  0.1007  0.4707  0.0107
12464TIP3    H258808   2.122   1.909  14.525  0.4765  0.0642 -2.2149
12465TIP3   OH258809   4.336   4.036  15.121 -0.2248 -0.0872  0.3308
12465TIP3    H158810   4.369   3.964  15.067 -1.4675 -1.0938  0.8579
12465TIP3    H258811   4.394   4.037  15.198 -0.5403 -0.9295  0.5953
12466TIP3   OH258812   3.228   5.324   4.507  0.1895 -0.4473  0.1433
12466TIP3    H158813   3.135   5.346   4.496  0.8906  2.9220 -0.2764
12466TIP3    H258814   3.256   5.297   4.419 -0.4498 -1.9677  0.3802
12467TIP3   OH258815   5.580   6.149  11.906 -0.7321  0.3047 -0.0778
12467TIP3    H158816   5.562   6.127  11.815 -1.2111  2.3497 -0.5457
12467TIP3    H258817   5.494   6.166  11.944 -0.4524  0.6893  0.3959
12468TIP3   OH258818   1.441   4.621  17.014  0.2312 -0.1874  0.1173
12468TIP3    H158819   1.423   4.581  17.098  2.0638  0.0732  0.6664
12468TIP3    H258820   1.367   4.595  16.959 -1.0061 -0.3584  1.7743
12469TIP3   OH258821   3.861   3.585  12.878  0.2038  0.2900 -0.1095
12469TIP3    H158822   3.954   3.562  12.875  1.4394  3.8932  2.6115
12469TIP3    H258823   3.843   3.599  12.971 -3.0508 -0.0004 -0.5768
12470TIP3   OH258824   5.697   1.158  10.274  0.0650  0.0086  0.3092
12470TIP3    H158825   5.756   1.183  10.203  0.1809  0.3777  0.5282
12470TIP3    H258826   5.739   1.193  10.353 -0.6398  0.6229  0.4230
12471TIP3   OH258827   5.772   6.770   5.793  0.0571  0.0041  0.3184
12471TIP3    H158828   5.721   6.809   5.721 -1.9610 -2.4619  0.2573
12471TIP3    H258829   5.725   6.797   5.872  0.2637 -0.0670  0.4644
12472TIP3   OH258830   3.013   6.690  15.664 -0.1383 -0.5987 -0.0722
12472TIP3    H158831   3.061   6.758  15.616 -0.5712  0.4545  0.9235
12472TIP3    H258832   3.076   6.620  15.677  0.6794  0.1097 -0.1287
12473TIP3   OH258833   3.749   2.435  15.268 -0.2206  0.1389 -0.3919
12473TIP3    H158834   3.777   2.490  15.341 -0.1646 -0.2439 -0.1255
12473TIP3    H258835   3.676   2.383  15.302 -0.8608  0.6820 -0.9033
12474TIP3   OH258836   0.865   6.175   1.361 -0.0777  0.1143  0.3567
12474TIP3    H158837   0.840   6.266   1.379 -0.6644 -0.0054  0.1701
12474TIP3    H258838   0.841   6.161   1.269  1.3035  0.1933 -0.0412
12475TIP3   OH258839   5.765   0.183   3.454 -0.1493 -0.0978 -0.2406
12475TIP3    H158840   5.693   0.242   3.430  0.2219  1.4293  2.0512
12475TIP3    H258841   5.737   0.142   3.535  0.8732 -0.8134 -0.2242
12476TIP3   OH258842   3.128   5.418   6.028  0.1932  0.4422 -0.2997
12476TIP3    H158843   3.056   5.480   6.040 -0.5582 -0.3503 -0.5933
12476TIP3    H258844   3.105   5.370   5.948 -0.0341 -1.2580  0.7207
12477TIP3   OH258845   3.828   2.525  10.923  0.3646 -0.2521  0.3128
12477TIP3    H158846   3.823   2.490  10.834  1.4113  0.9245 -0.2216
12477TIP3    H258847   3.747   2.493  10.965 -1.1062  0.7132 -1.6150
12478TIP3   OH258848   5.765   3.179   0.919  0.1888  0.0707 -0.0715
12478TIP3    H158849   5.771   3.191   0.824  0.4551  1.2827  0.0723
12478TIP3    H258850   5.698   3.112   0.931 -0.8435  0.8778 -1.0818
12479TIP3   OH258851   3.710   1.719   2.592  0.1198 -0.0157 -0.1479
12479TIP3    H158852   3.712   1.627   2.567  2.1627 -0.0972  0.1026
12479TIP3    H258853   3.798   1.752   2.569  0.0619  1.3921  1.4235
12480TIP3   OH258854   2.897   4.509   0.810  0.0284 -0.3154  0.2334
12480TIP3    H158855   2.835   4.490   0.881 -0.8333  0.3027 -0.3366
12480TIP3    H258856   2.981   4.475   0.841 -0.1051  0.8504  1.9819
12481TIP3   OH258857   2.606   2.776  13.857  0.5443 -0.0281  0.0203
12481TIP3    H158858   2.535   2.783  13.921  0.0122  1.1738 -0.6778
12481TIP3    H258859   2.570   2.719  13.788 -0.8358  2.6414 -1.6446
12482TIP3   OH258860   5.130   6.667   4.696 -0.6588  0.0170 -0.0364
12482TIP3    H158861   5.116   6.664   4.791 -3.4652 -0.3533 -0.3649
12482TIP3    H258862   5.212   6.620   4.683  0.2093  0.7557  2.2550
12483TIP3   OH258863   5.428   5.343  15.147 -0.2514 -1.3933  0.1725
12483TIP3    H158864   5.406   5.420  15.095  0.5372 -0.2730  1.4717
12483TIP3    H258865   5.486   5.292  15.090  2.3351  0.8308  0.6274
12484TIP3   OH258866   2.663   5.105  14.321  0.4447  0.1361  0.1844
12484TIP3    H158867   2.681   5.015  14.295 -0.0205 -0.6975  2.5255
12484TIP3    H258868   2.730   5.125  14.386 -1.6153  0.0981  2.4682
12485TIP3   OH258869   6.378   6.771  11.215  0.5852 -0.3414  0.3624
12485TIP3    H158870   6.378   6.810  11.127 -0.8261  0.5099  0.7100
12485TIP3    H258871   6.318   6.697  11.208 -2.2041  1.6797  1.3562
12486TIP3   OH258872   1.463   3.649   1.623 -0.2086 -0.6925  0.3738
12486TIP3    H158873   1.485   3.562   1.590 -0.3521  0.0226 -1.8060
12486TIP3    H258874   1.371   3.661   1.600  0.0236  0.3182 -0.1136
12487TIP3   OH258875   1.572   4.445   4.047 -0.1805  0.0744 -0.4832
12487TIP3    H158876   1.655   4.398   4.038 -0.1204  0.1400 -0.2764
12487TIP3    H258877   1.523   4.396   4.112  0.4310  1.0478  0.7547
12488TIP3   OH258878   5.177   4.237  16.151 -0.4953  0.6599 -0.6092
12488TIP3    H158879   5.149   4.149  16.178 -0.6060  0.0749 -2.4543
12488TIP3    H258880   5.097   4.290  16.154 -0.0831  1.2941  2.4083
12489TIP3   OH258881   1.776   4.135   0.711  0.8545 -0.0253  0.1144
12489TIP3    H158882   1.813   4.062   0.661 -1.9065 -1.6478  0.2558
12489TIP3    H258883   1.710   4.173   0.652 -0.2932 -0.0150  1.3649
12490TIP3   OH258884   1.391   4.083   4.903  0.4208  0.3093 -0.4172
12490TIP3    H158885   1.364   4.126   4.822 -1.3600  0.6540  0.3270
12490TIP3    H258886   1.315   4.032   4.930  2.3008 -3.3237 -1.1623
12491TIP3   OH258887   1.913   0.177  13.331  0.4446 -0.6827  0.5821
12491TIP3    H158888   1.988   0.172  13.390  1.7974 -0.9598 -1.0934
12491TIP3    H258889   1.942   0.234  13.260  0.0874 -2.8883 -1.4549
12492TIP3   OH258890   2.988   3.225   0.498 -0.0999 -0.1048  0.1734
12492TIP3    H158891   3.065   3.256   0.546  1.4290 -0.4377 -1.9615
12492TIP3    H258892   2.914   3.261   0.547  1.3205 -0.6595  2.9352
12493TIP3   OH258893   0.145   3.994   2.915 -0.7803 -0.3755  0.2591
12493TIP3    H158894   0.152   3.959   2.826  0.4772 -1.5371  0.7848
12493TIP3    H258895   0.169   4.086   2.906 -0.0085 -0.6394 -0.5168
12494TIP3   OH258896   5.730   2.736  10.830 -0.2065  0.6898 -0.1761
12494TIP3    H158897   5.657   2.757  10.887  0.5183 -0.6463  1.3318
12494TIP3    H258898   5.699   2.755  10.741 -1.6348  2.0688  0.5827
12495TIP3   OH258899   2.265   1.683  10.692  0.4355  0.5702  0.1724
12495TIP3    H158900   2.286   1.595  10.659 -0.5206 -0.0908  1.2327
12495TIP3    H258901   2.200   1.716  10.630  0.5420  0.3858 -0.0400
12496TIP3   OH258902   1.135   2.012   0.870  0.2433  0.4405  0.3438
12496TIP3    H158903   1.179   2.050   0.794  0.3172 -0.5976 -0.1502
12496TIP3    H258904   1.046   1.994   0.839  0.9402 -2.2475 -0.3125
12497TIP3   OH258905   1.477   5.053   2.451 -0.3126  0.6671  0.5021
12497TIP3    H158906   1.544   5.110   2.413 -0.8883 -0.0560 -1.8092
12497TIP3    H258907   1.520   4.968   2.460 -0.7885  0.2397 -0.8471
12498TIP3   OH258908   4.913   0.414  14.168  0.3438 -0.2744 -0.0549
12498TIP3    H158909   4.926   0.320  14.152 -2.3366 -0.8946  0.8771
12498TIP3    H258910   4.973   0.457  14.107  1.8699 -2.5693 -0.2998
12499TIP3   OH258911   3.794   3.166  14.182  0.2119  0.5433 -0.1835
12499TIP3    H158912   3.882   3.171  14.144  0.3728  1.2041  0.2629
12499TIP3    H258913   3.745   3.109  14.122  0.8217  0.5304 -0.6745
12500TIP3   OH258914   5.329   3.234   1.192 -0.4482 -0.0764 -0.3737
12500TIP3    H158915   5.319   3.203   1.103  0.9550 -0.2010 -0.5076
12500TIP3    H258916   5.285   3.168   1.246  0.4218 -1.0723 -0.8380
12501TIP3   OH258917   2.136   5.322   1.927 -0.4689 -0.0478  0.3354
12501TIP3    H158918   2.078   5.249   1.946  1.4685 -1.7120  0.2850
12501TIP3    H258919   2.213   5.306   1.981  0.1403  1.8141  0.0848
12502TIP3   OH258920   3.613   5.384   2.189  0.1997 -0.0537  0.4132
12502TIP3    H158921   3.532   5.435   2.190  0.9390  1.1760 -0.1535
12502TIP3    H258922   3.608   5.335   2.107 -0.2641 -0.4980  0.6984
12503TIP3   OH258923   6.779   0.277   2.204 -0.2749  0.7767  0.6803
12503TIP3    H158924   6.772   0.342   2.134 -1.4372 -1.0210 -0.9871
12503TIP3    H258925   6.791   0.194   2.157  1.7811 -0.1716  2.7278
12504TIP3   OH258926   2.510   6.162  14.207 -0.2242  0.0996  0.2190
12504TIP3    H158927   2.600   6.145  14.236  0.2937  0.2695 -1.2342
12504TIP3    H258928   2.480   6.233  14.263  0.7043  0.3444  0.4196
12505TIP3   OH258929   6.730   2.222   1.954 -0.3339  0.2287 -0.0606
12505TIP3    H158930   6.662   2.154   1.957 -0.5746  0.2958 -2.3500
12505TIP3    H258931   6.698   2.286   1.890  0.8023  1.4963  0.5847
12506TIP3   OH258932   6.502   5.511  13.735  0.0688  0.1945  0.1907
12506TIP3    H158933   6.507   5.576  13.806 -0.0516  0.2948  0.1064
12506TIP3    H258934   6.593   5.503  13.705  0.3140 -0.6660  1.0888
12507TIP3   OH258935   0.210   4.119  11.347  0.5424 -0.7178 -0.2361
12507TIP3    H158936   0.267   4.186  11.385 -0.3083 -0.0088 -0.1759
12507TIP3    H258937   0.143   4.168  11.300  1.2817 -1.5740 -2.2800
12508TIP3   OH258938   3.543   2.898  11.376  0.0048  0.4457 -0.1348
12508TIP3    H158939   3.536   2.868  11.467  1.0934 -1.1972 -0.5495
12508TIP3    H258940   3.478   2.968  11.369  0.2833  0.9914  2.0492
12509TIP3   OH258941   6.151   5.613  15.959  0.0119  0.0466  0.1946
12509TIP3    H158942   6.145   5.677  16.030  1.1022  2.2606 -1.5959
12509TIP3    H258943   6.237   5.572  15.970  1.4793  2.4374 -1.3342
12510TIP3   OH258944   4.166   4.816  13.216  0.4391  0.2518 -0.4758
12510TIP3    H158945   4.133   4.855  13.135 -1.6401 -1.0315 -0.3037
12510TIP3    H258946   4.148   4.882  13.283  0.0854  0.3990 -0.7105
12511TIP3   OH258947   4.049   4.902  13.644 -0.2937 -0.3327 -0.4351
12511TIP3    H158948   3.957   4.875  13.636 -0.0127 -1.7412  0.6191
12511TIP3    H258949   4.058   4.929  13.736  0.3578 -0.2954 -0.5064
12512TIP3   OH258950   3.683   2.898  15.587 -0.1553 -0.1638  0.1502
12512TIP3    H158951   3.650   2.843  15.659  0.8182 -1.4918 -0.3815
12512TIP3    H258952   3.623   2.973  15.585 -0.7346 -0.5343  1.7604
12513TIP3   OH258953   2.802   4.173  11.912 -0.5323  0.1988 -0.4667
12513TIP3    H158954   2.838   4.262  11.917 -1.0494  0.3924 -0.1146
12513TIP3    H258955   2.798   4.144  12.003  0.4985 -0.5422 -0.6452
12514TIP3   OH258956   0.519   0.622  13.890 -0.3123 -0.3359  0.0057
12514TIP3    H158957   0.514   0.622  13.986 -2.9456 -1.1271 -0.0608
12514TIP3    H258958   0.505   0.714  13.866  0.3852 -0.1286  0.3686
12515TIP3   OH258959   0.189   3.779   3.098  0.2171  0.0522  0.2556
12515TIP3    H158960   0.196   3.862   3.051 -0.2839  0.3497  0.6780
12515TIP3    H258961   0.173   3.713   3.031  0.1201  0.3781 -0.0403
12516TIP3   OH258962   0.484   1.873  15.627  0.4655  0.3884 -0.1792
12516TIP3    H158963   0.433   1.805  15.584  0.9426  0.4984 -0.9463
12516TIP3    H258964   0.440   1.955  15.604  0.4927  0.4181 -0.1266
12517TIP3   OH258965   1.711   3.478   1.057 -0.1823  0.2954  0.5252
12517TIP3    H158966   1.750   3.456   0.973  0.6414  1.5390  0.5663
12517TIP3    H258967   1.785   3.491   1.116 -0.6963  1.1275  1.0054
12518TIP3   OH258968   1.467   1.663  11.498 -0.7825 -0.3338  0.5715
12518TIP3    H158969   1.491   1.665  11.590 -0.1957  0.5958  0.4164
12518TIP3    H258970   1.508   1.741  11.461 -1.3396 -0.4795 -0.3943
12519TIP3   OH258971   4.131   1.285   1.469 -0.1592 -0.2650 -0.1427
12519TIP3    H158972   4.150   1.318   1.380  0.5608 -1.0359 -0.2888
12519TIP3    H258973   4.085   1.357   1.512  2.4676  1.4903 -0.0446
12520TIP3   OH258974   3.259   0.972   4.151 -0.6835 -0.1922 -0.3039
12520TIP3    H158975   3.261   0.905   4.220  0.8043  0.3715  0.2315
12520TIP3    H258976   3.319   0.939   4.085  0.0366  0.5850 -0.0501
12521TIP3   OH258977   4.729   6.402   2.895 -0.4283 -0.2526  0.0508
12521TIP3    H158978   4.682   6.340   2.951 -2.0298 -1.9081 -2.8139
12521TIP3    H258979   4.810   6.357   2.872  0.7619  0.8883  1.7632
12522TIP3   OH258980   0.565   2.917   6.415 -0.4397 -0.5263 -0.7063
12522TIP3    H158981   0.623   2.879   6.349 -1.6339  0.6346 -2.5110
12522TIP3    H258982   0.565   2.853   6.486  2.3578 -0.9433 -0.9709
12523TIP3   OH258983   5.634   4.982  12.854  0.4163 -0.2272 -0.7231
12523TIP3    H158984   5.701   5.034  12.899  0.0587  1.8549 -2.4408
12523TIP3    H258985   5.551   5.014  12.889  0.2156 -1.9935  0.5568
12524TIP3   OH258986   4.620   5.798  15.680  0.5298  0.0791 -0.4280
12524TIP3    H158987   4.549   5.745  15.646  1.6774 -0.6773 -1.6966
12524TIP3    H258988   4.624   5.874  15.621  0.2702  0.5448  0.1328
12525TIP3   OH258989   2.967   2.117   3.997 -0.8298 -0.1230 -0.6317
12525TIP3    H158990   2.971   2.061   4.074  0.2211  0.4904 -0.2224
12525TIP3    H258991   2.918   2.066   3.933  0.0702 -1.5040 -0.2574
12526TIP3   OH258992   2.363   4.344   4.833  0.1258 -0.2188  0.4207
12526TIP3    H158993   2.402   4.403   4.898 -1.5884  1.7654 -0.2497
12526TIP3    H258994   2.282   4.314   4.874 -0.2356 -0.1256 -0.2136
12527TIP3   OH258995   4.396   4.758   1.548  0.4979  0.0001 -0.0862
12527TIP3    H158996   4.390   4.675   1.595 -0.7374  0.4785  0.6524
12527TIP3    H258997   4.483   4.791   1.569  0.4120 -0.3666  0.9315
12528TIP3   OH258998   4.198   4.609  12.478  0.3372  0.4099  0.5017
12528TIP3    H158999   4.261   4.586  12.546 -0.5231 -3.5886  0.2308
12528TIP3    H259000   4.238   4.578  12.397 -0.1084  1.9778 -0.3635
12529TIP3   OH259001   2.283   5.979   2.411  0.1038 -0.0006 -0.2142
12529TIP3    H159002   2.342   5.907   2.433 -0.2186  0.1609  1.2918
12529TIP3    H259003   2.300   5.996   2.318  0.0673 -2.1077 -0.6590
12530TIP3   OH259004   4.057   3.021  12.044 -0.6178 -0.3871  0.2437
12530TIP3    H159005   4.011   3.102  12.024  0.9165  0.6381  0.7153
12530TIP3    H259006   4.046   3.010  12.138 -1.3299 -1.0702  0.0896
12531TIP3   OH259007   5.534   1.258   3.995  0.2321  0.8598 -0.4290
12531TIP3    H159008   5.626   1.281   4.011  0.9939 -1.5226 -0.8528
12531TIP3    H259009   5.491   1.270   4.079  1.0657  1.4899 -0.0838
12532TIP3   OH259010   0.306   3.976   1.887  0.4139 -0.0227  0.1019
12532TIP3    H159011   0.283   3.915   1.817  0.2968  0.7793 -0.5773
12532TIP3    H259012   0.397   3.955   1.908  0.4980 -0.1745 -0.3915
12533TIP3   OH259013   5.055   5.137  16.521  0.5047 -0.1000 -0.0348
12533TIP3    H159014   5.019   5.080  16.453  0.0710 -2.1052  1.7639
12533TIP3    H259015   5.149   5.116  16.522  0.2479 -1.3292  1.0431
12534TIP3   OH259016   1.533   5.028   0.456 -0.2130  0.0067 -0.4398
12534TIP3    H159017   1.577   5.100   0.411  0.7583  0.6512  1.4391
12534TIP3    H259018   1.505   5.065   0.540 -0.3868 -1.5845  0.2564
12535TIP3   OH259019   0.448   5.065   5.950  0.6309  0.1643 -0.2315
12535TIP3    H159020   0.539   5.041   5.967  0.0599 -0.8071  1.6391
12535TIP3    H259021   0.396   5.000   5.996 -1.0664  0.1046 -2.0836
12536TIP3   OH259022   3.000   4.372   4.263  0.6010 -0.4841  0.2779
12536TIP3    H159023   2.929   4.388   4.200  1.8467  1.3634 -0.7631
12536TIP3    H259024   2.979   4.287   4.301 -1.5489 -0.5345 -0.8134
12537TIP3   OH259025   3.638   3.128   3.397 -0.3061 -0.1120  0.3157
12537TIP3    H159026   3.625   3.205   3.341  0.5485 -0.1726  0.0106
12537TIP3    H259027   3.550   3.095   3.413 -0.6714  0.7885  0.2502
12538TIP3   OH259028   0.699   1.072  15.482 -0.0932 -0.0668  0.3631
12538TIP3    H159029   0.615   1.118  15.496 -0.4466 -0.7879  0.6526
12538TIP3    H259030   0.741   1.120  15.410  0.1887  1.5899  1.5722
12539TIP3   OH259031   4.464   2.404  16.762 -0.3847  0.5365  0.2544
12539TIP3    H159032   4.540   2.461  16.780  0.5791 -1.1413  1.9734
12539TIP3    H259033   4.459   2.400  16.667 -0.8769  3.8967  0.0242
12540TIP3   OH259034   4.511   0.547   4.908 -0.5973 -0.0780  0.1476
12540TIP3    H159035   4.534   0.523   4.818  0.6167 -2.2292  0.9477
12540TIP3    H259036   4.473   0.468   4.945 -0.1572  0.4390  1.8148
12541TIP3   OH259037   5.178   5.403   0.832 -0.1295 -0.8616  0.2826
12541TIP3    H159038   5.109   5.423   0.895  1.3067 -1.1000  2.0023
12541TIP3    H259039   5.250   5.461   0.855  0.4805 -1.0213 -1.1025
12542TIP3   OH259040   4.746   2.628   2.946 -0.0071  0.4264 -0.4603
12542TIP3    H159041   4.735   2.533   2.933 -0.0985  0.2718  0.6659
12542TIP3    H259042   4.661   2.665   2.920 -0.1095  0.1604 -0.5117
12543TIP3   OH259043   0.169   1.752  13.551  0.0010 -0.2672  0.8770
12543TIP3    H159044   0.191   1.838  13.514  0.9121 -0.9712 -0.2799
12543TIP3    H259045   0.253   1.707  13.559 -0.4312 -0.9264  1.8145
12544TIP3   OH259046   4.321   1.726  11.684 -0.3844 -0.1372 -0.0061
12544TIP3    H159047   4.252   1.666  11.713 -0.3320 -0.0579  0.2859
12544TIP3    H259048   4.286   1.814  11.703  0.0738 -0.1131  0.7859
12545TIP3   OH259049   4.531   3.173  11.725  0.6885 -0.1982  0.2648
12545TIP3    H159050   4.561   3.135  11.808  2.1380  0.9601  0.3255
12545TIP3    H259051   4.558   3.109  11.659  0.3053 -0.7246  0.6155
12546TIP3   OH259052   4.517   4.663   4.654  0.1983 -0.0577 -0.2088
12546TIP3    H159053   4.491   4.583   4.607 -2.1146  1.1985 -1.2128
12546TIP3    H259054   4.592   4.635   4.708  0.8757 -2.3525 -2.1480
12547TIP3   OH259055   2.103   1.808  16.779 -0.7744  0.3817  0.3275
12547TIP3    H159056   2.083   1.850  16.695  2.3446  1.0672 -0.2101
12547TIP3    H259057   2.183   1.758  16.762 -0.4123  0.0344  2.7274
12548TIP3   OH259058   0.104   4.021  13.669  0.8959  0.2584  0.1197
12548TIP3    H159059   0.062   4.064  13.743  0.8323  0.5880 -0.1059
12548TIP3    H259060   0.198   4.038  13.682  0.7858  1.6610 -0.6946
12549TIP3   OH259061   5.125   4.587   4.894  0.7307 -0.0769  0.9523
12549TIP3    H159062   5.182   4.606   4.969  1.7282 -1.7122  0.6531
12549TIP3    H259063   5.185   4.584   4.820 -0.2126  1.2443  0.0934
12550TIP3   OH259064   1.147   2.227  14.956  0.5085 -0.2962  0.5326
12550TIP3    H159065   1.237   2.257  14.943  0.4534 -0.1223  0.5510
12550TIP3    H259066   1.147   2.137  14.923  0.5852 -0.1568  0.1512
12551TIP3   OH259067   1.954   6.642  11.152  0.1817 -0.0542  0.1415
12551TIP3    H159068   1.973   6.693  11.073 -0.0624 -0.8954 -0.4710
12551TIP3    H259069   1.984   6.554  11.131  1.4729  0.0203  1.5323
12552TIP3   OH259070   0.057   2.528   1.612  0.0066  0.2838 -0.5191
12552TIP3    H159071   0.037   2.456   1.671  0.5604  0.1923 -0.4363
12552TIP3    H259072   0.138   2.566   1.647  0.1270  0.4707 -0.9966
12553TIP3   OH259073   5.286   5.109   2.128  0.4184 -0.0310 -0.2040
12553TIP3    H159074   5.251   5.197   2.139 -1.4137 -0.9091  1.4804
12553TIP3    H259075   5.341   5.115   2.049 -3.4702  1.4771 -3.1187
12554TIP3   OH259076   0.698   5.401  13.046  0.3161  0.2142 -0.1968
12554TIP3    H159077   0.624   5.342  13.035  0.8583 -0.6762  0.7284
12554TIP3    H259078   0.658   5.485  13.071 -0.3817 -0.2522  0.2964
12555TIP3   OH259079   3.338   6.203  13.598  0.4343 -0.4491  0.1692
12555TIP3    H159080   3.282   6.126  13.608  1.2052 -1.0319  0.1031
12555TIP3    H259081   3.317   6.236  13.511  0.7028 -1.0830 -0.1436
12556TIP3   OH259082   2.229   2.343  13.314 -0.3136  0.0191 -0.1510
12556TIP3    H159083   2.220   2.363  13.407 -0.7416 -0.7667 -0.0193
12556TIP3    H259084   2.319   2.370  13.293  0.0604 -0.5294  0.6779
12557TIP3   OH259085   3.844   4.097   5.415  0.0506 -0.4448  0.3346
12557TIP3    H159086   3.898   4.169   5.382 -1.1759  0.9569  1.2591
12557TIP3    H259087   3.808   4.056   5.337 -0.5000  0.9723 -0.1938
12558TIP3   OH259088   0.693   4.352  11.352 -0.1241  0.1205 -0.4727
12558TIP3    H159089   0.732   4.390  11.431  0.2886 -0.1718 -0.5294
12558TIP3    H259090   0.667   4.264  11.378 -2.5683  0.9521  0.1157
12559TIP3   OH259091   6.189   4.707  12.397  0.5122  0.0591 -0.0473
12559TIP3    H159092   6.188   4.641  12.466  0.5671 -0.7702 -0.8171
12559TIP3    H259093   6.128   4.775  12.427  0.3743 -0.3936  0.7091
12560TIP3   OH259094   3.383   1.234   0.649  0.2240 -0.0260 -0.5094
12560TIP3    H159095   3.460   1.210   0.701 -0.1546  1.3619  0.7765
12560TIP3    H259096   3.354   1.152   0.609  0.6333 -1.1522  1.3811
12561TIP3   OH259097   0.644   6.156  10.960  0.5413 -0.6336  0.2938
12561TIP3    H159098   0.735   6.187  10.959  0.1587  0.5496 -0.5826
12561TIP3    H259099   0.621   6.152  11.053  1.2856 -0.2832  0.5025
12562TIP3   OH259100   1.467   2.861   6.655  0.5345  0.1213  0.1103
12562TIP3    H159101   1.412   2.937   6.639  1.2066  0.6588  0.3158
12562TIP3    H259102   1.405   2.787   6.660 -0.0396  0.5176 -0.9514
12563TIP3   OH259103   0.671   2.644   4.895 -0.1773 -0.2499 -0.7245
12563TIP3    H159104   0.689   2.649   4.989 -1.3959  0.2795 -0.5052
12563TIP3    H259105   0.624   2.561   4.884 -1.5347  0.4663 -0.5774
12564TIP3   OH259106   1.591   3.967   1.267 -0.3133  0.1080 -0.5085
12564TIP3    H159107   1.599   3.931   1.355  1.3649 -0.7924 -0.9794
12564TIP3    H259108   1.604   4.061   1.277  0.2896 -0.0446  0.1624
12565TIP3   OH259109   1.462   5.162  13.120  0.1912 -0.3139  0.3388
12565TIP3    H159110   1.547   5.140  13.158 -0.6071 -0.2452  2.2726
12565TIP3    H259111   1.409   5.084  13.133 -0.4716  0.1561  0.5391
12566TIP3   OH259112   3.619   0.569   2.486 -0.2411  0.4348 -0.1482
12566TIP3    H159113   3.629   0.569   2.391 -1.8625  0.6982 -0.3412
12566TIP3    H259114   3.709   0.567   2.519  0.3483 -0.2309 -1.6706
12567TIP3   OH259115   4.965   5.871  17.159  1.0086  0.2052  0.0501
12567TIP3    H159116   4.904   5.939  17.132 -0.8881 -1.4594 -0.1226
12567TIP3    H259117   4.942   5.853  17.250  1.1953 -0.4756 -0.0319
12568TIP3   OH259118   3.302   3.332   4.885 -0.2638 -0.1276 -0.1654
12568TIP3    H159119   3.341   3.274   4.819 -1.5651  0.0787 -1.1515
12568TIP3    H259120   3.262   3.402   4.834 -0.0101  0.8535  0.9473
12569TIP3   OH259121   1.258   1.708   3.872 -0.1152  0.1612  0.7888
12569TIP3    H159122   1.189   1.764   3.907  0.4310  0.8945  0.7229
12569TIP3    H259123   1.305   1.764   3.810  1.4183  0.1401  1.8731
12570TIP3   OH259124   0.463   3.090  13.558  0.1041 -0.2808  0.1110
12570TIP3    H159125   0.525   3.163  13.556 -0.9745  0.7316  1.4933
12570TIP3    H259126   0.517   3.012  13.552  1.3683  0.6042 -0.4974
12571TIP3   OH259127   3.991   5.214  12.748 -0.1948 -0.0489  0.0318
12571TIP3    H159128   3.985   5.256  12.663  1.4595  1.6051  0.6629
12571TIP3    H259129   3.965   5.281  12.811 -1.5125 -1.2771  0.8705
12572TIP3   OH259130   0.129   2.205  12.816  0.7820 -0.5095 -0.0373
12572TIP3    H159131   0.223   2.207  12.831  0.3925  0.8851  2.6771
12572TIP3    H259132   0.109   2.290  12.777  0.2209  1.0055  3.2123
12573TIP3   OH259133   5.065   5.407  14.861  0.6339 -0.1315  0.5494
12573TIP3    H159134   5.094   5.367  14.780  0.9905  0.0364  0.5939
12573TIP3    H259135   4.977   5.371  14.876 -1.0498  2.5642 -1.8203
12574TIP3   OH259136   2.283   1.167  15.984  0.5653 -0.1225  0.7604
12574TIP3    H159137   2.218   1.102  15.956 -1.6282  1.2948  2.1784
12574TIP3    H259138   2.241   1.252  15.966  2.6441  0.9177  0.4754
12575TIP3   OH259139   0.151   6.767  15.598 -0.0243 -0.3286  0.0360
12575TIP3    H159140   0.225   6.827  15.604 -1.1873  1.3440 -1.1521
12575TIP3    H259141   0.175   6.705  15.529  0.1784  0.3966 -0.5643
12576TIP3   OH259142   1.651   0.308  12.946  0.4858 -0.2705 -0.2049
12576TIP3    H159143   1.677   0.393  12.981 -2.0733  0.5926 -0.2158
12576TIP3    H259144   1.680   0.310  12.854 -1.7900  1.7308 -0.9717
12577TIP3   OH259145   5.933   0.307   0.051 -0.0417  0.6494 -0.0352
12577TIP3    H159146   5.885   0.380   0.091  0.6296  0.1377  1.7899
12577TIP3    H259147   5.879   0.230   0.069  0.5376  0.3322  0.3746
12578TIP3   OH259148   3.464   5.937   0.052 -0.0663  0.0868  0.1223
12578TIP3    H159149   3.532   5.988   0.096 -0.1233 -0.7908  1.2619
12578TIP3    H259150   3.382   5.969   0.090 -0.3548  1.2914 -1.3996
12579TIP3   OH259151   1.266   4.137  17.018  0.2522 -0.0475 -0.2851
12579TIP3    H159152   1.291   4.161  17.107 -0.4045  1.7588 -0.5441
12579TIP3    H259153   1.340   4.164  16.964  0.4923 -0.7879 -0.3233
12580TIP3   OH259154   5.513   1.067   2.039  0.1763 -0.3288  0.1638
12580TIP3    H159155   5.604   1.064   2.070 -0.0663  0.5162  1.0052
12580TIP3    H259156   5.518   1.118   1.957  0.3105  0.8409  0.8726
12581TIP3   OH259157   2.024   4.870  11.292  0.3850 -0.1268  0.2906
12581TIP3    H159158   1.979   4.915  11.220 -0.8431 -0.2294  0.9627
12581TIP3    H259159   1.990   4.911  11.371  1.9310  0.1743  0.8290
12582TIP3   OH259160   1.385   0.901  16.355  0.2933 -0.6073 -0.1280
12582TIP3    H159161   1.320   0.969  16.370 -0.2081 -1.1291  0.0724
12582TIP3    H259162   1.469   0.946  16.364 -0.0242 -0.2035  0.9495
12583TIP3   OH259163   3.475   2.019   1.976  0.2581 -0.0300 -0.2323
12583TIP3    H159164   3.390   1.991   1.942  0.9971 -2.4155 -0.2993
12583TIP3    H259165   3.455   2.057   2.062 -0.9876  0.6908 -0.8206
12584TIP3   OH259166   1.774   1.660   3.491  0.1529  0.3426  0.8807
12584TIP3    H159167   1.856   1.672   3.443 -1.3239 -0.8329 -2.1764
12584TIP3    H259168   1.729   1.744   3.481  0.4047  0.5421  1.3973
12585TIP3   OH259169   6.373   1.652   5.433  0.0498 -0.0425 -0.1898
12585TIP3    H159170   6.310   1.655   5.505  0.0495  1.4027 -0.2122
12585TIP3    H259171   6.452   1.693   5.468 -0.2424  1.5176 -1.2527
12586TIP3   OH259172   2.770   2.525  13.344  0.2456 -0.2965 -0.1031
12586TIP3    H159173   2.832   2.544  13.415  0.4287  0.6639 -0.5045
12586TIP3    H259174   2.773   2.602  13.288 -0.4103 -0.7560 -0.7953
12587TIP3   OH259175   1.360   5.047  10.704  0.0297  0.7127  0.4102
12587TIP3    H159176   1.273   5.075  10.676  0.4089  1.8376  0.3127
12587TIP3    H259177   1.345   4.962  10.747 -1.0669  0.7648  0.1624
12588TIP3   OH259178   3.040   1.334  13.981  0.2839 -0.3221  0.2122
12588TIP3    H159179   2.971   1.286  13.936  0.5697 -0.5706  0.0260
12588TIP3    H259180   3.106   1.267  14.001  0.4981 -0.0799  0.3256
12589TIP3   OH259181   5.843   2.128   1.951 -0.3427  0.0267  0.1495
12589TIP3    H159182   5.763   2.099   1.908 -0.5617  1.7492 -0.6808
12589TIP3    H259183   5.813   2.180   2.025  0.0211 -0.3303  0.5496
12590TIP3   OH259184   1.697   1.424   1.162  0.2730  0.3134 -0.0034
12590TIP3    H159185   1.609   1.451   1.134  0.1748  0.4698  0.4490
12590TIP3    H259186   1.689   1.330   1.178  0.7136 -0.0876 -1.9631
12591TIP3   OH259187   3.962   5.139   2.695  0.6721 -0.0850 -0.7053
12591TIP3    H159188   3.869   5.118   2.694  0.4725  0.4013  1.8355
12591TIP3    H259189   4.005   5.059   2.665 -0.4417 -1.3185  0.8645
12592TIP3   OH259190   4.670   3.339   5.650  0.5593  0.0274 -0.1222
12592TIP3    H159191   4.672   3.245   5.634 -0.0655  0.0656 -0.4375
12592TIP3    H259192   4.761   3.362   5.668  0.7486 -0.5982 -0.2534
12593TIP3   OH259193   2.590   2.763   0.597 -0.7283  0.1408  0.2581
12593TIP3    H159194   2.682   2.783   0.581 -1.2141  1.7894 -0.7781
12593TIP3    H259195   2.548   2.777   0.512 -1.6648 -2.5829  0.1849
12594TIP3   OH259196   3.428   3.433  10.365  0.2398  0.3929  0.1057
12594TIP3    H159197   3.408   3.527  10.374  1.0254  0.6418 -0.6125
12594TIP3    H259198   3.465   3.425  10.277  0.2664 -0.5874  0.1955
12595TIP3   OH259199   2.458   4.930   3.696 -0.0339  0.3218 -0.1943
12595TIP3    H159200   2.540   4.900   3.658  0.7547 -0.3440  1.9228
12595TIP3    H259201   2.483   5.005   3.750 -0.9154  0.4699  0.0177
12596TIP3   OH259202   0.785   3.988  12.910 -0.3111  0.0446  0.3592
12596TIP3    H159203   0.748   4.041  12.980  0.9613  1.0097  0.3319
12596TIP3    H259204   0.839   3.923  12.954  0.5238  0.6785  0.3074
12597TIP3   OH259205   6.649   6.296   6.400  0.5378  0.0690  0.4667
12597TIP3    H159206   6.731   6.293   6.448  0.7565  0.1056  0.1030
12597TIP3    H259207   6.594   6.356   6.449  1.5406  1.8745 -0.5328
12598TIP3   OH259208   3.345   4.295   5.404 -0.0646 -0.7757 -0.5753
12598TIP3    H159209   3.401   4.218   5.403  0.7707 -0.1804 -1.3097
12598TIP3    H259210   3.288   4.285   5.328 -0.5982 -1.1059 -0.1450
12599TIP3   OH259211   5.679   3.858   2.425  0.1050 -0.4572 -0.4165
12599TIP3    H159212   5.745   3.867   2.494  2.0115 -1.4025 -2.0233
12599TIP3    H259213   5.656   3.765   2.425 -0.3258 -0.3527 -0.6529
12600TIP3   OH259214   1.457   2.858  15.558  0.2284 -0.8276 -0.0205
12600TIP3    H159215   1.475   2.783  15.615  2.6328  0.3915  0.9506
12600TIP3    H259216   1.521   2.851  15.487 -1.0943 -0.9483 -1.2494
12601TIP3   OH259217   0.545   5.619  15.536 -0.0395  0.9380 -0.3956
12601TIP3    H159218   0.461   5.607  15.493  0.9292 -0.7609 -1.9376
12601TIP3    H259219   0.545   5.555  15.607  0.2933  0.2590 -0.9914
12602TIP3   OH259220   3.252   3.028   2.920  0.5165 -0.5624  0.0365
12602TIP3    H159221   3.316   3.097   2.904 -1.5081  1.5960  0.6209
12602TIP3    H259222   3.267   3.002   3.011  0.7923 -0.3159  0.0637
12603TIP3   OH259223   3.110   0.944   0.139 -0.2358  0.8531  0.0564
12603TIP3    H159224   3.035   0.895   0.106  0.1020  1.5472 -1.8820
12603TIP3    H259225   3.072   1.023   0.178 -0.5590  0.7821 -0.1131
12604TIP3   OH259226   1.566   5.664  11.030  0.4466  0.0700 -0.3011
12604TIP3    H159227   1.545   5.656  10.937  0.3123 -2.9803 -0.1026
12604TIP3    H259228   1.659   5.641  11.035 -0.4549 -4.1876  0.6301
12605TIP3   OH259229   4.363   4.985   2.292  0.1641 -0.5674 -0.1866
12605TIP3    H159230   4.324   5.028   2.216  1.1297 -2.3161 -1.7724
12605TIP3    H259231   4.458   4.994   2.278  0.3649 -0.2714  1.2326
12606TIP3   OH259232   3.289   4.787  12.781 -0.4047  0.3040 -0.8317
12606TIP3    H159233   3.384   4.777  12.788 -0.4593  0.7632  1.5610
12606TIP3    H259234   3.276   4.875  12.746  0.0213 -0.4026 -2.8455
12607TIP3   OH259235   2.529   4.423   1.217 -0.5239 -0.4064  0.1040
12607TIP3    H159236   2.437   4.421   1.192 -0.1962 -0.5425 -1.1779
12607TIP3    H259237   2.528   4.429   1.312 -1.8614  2.3051  0.0052
12608TIP3   OH259238   3.284   5.281   1.312  0.0683 -0.0321  0.3020
12608TIP3    H159239   3.193   5.249   1.310 -0.6787  1.9440 -0.8838
12608TIP3    H259240   3.317   5.265   1.224  1.2651 -1.6511  1.0011
12609TIP3   OH259241   1.144   6.495   3.737  0.2820 -0.1305  0.1430
12609TIP3    H159242   1.161   6.406   3.708  2.1081  0.0390  0.5910
12609TIP3    H259243   1.095   6.485   3.818  0.5805 -0.7282  0.2512
12610TIP3   OH259244   2.357   5.804   2.902 -0.4908  0.7096 -0.4162
12610TIP3    H159245   2.348   5.726   2.847 -0.3230  0.7242 -0.4651
12610TIP3    H259246   2.385   5.873   2.841  1.9812  0.2025  0.0437
12611TIP3   OH259247   0.930   3.332  16.358 -0.1999  0.1682  0.0495
12611TIP3    H159248   0.948   3.272  16.286 -2.2125  1.7443 -1.8754
12611TIP3    H259249   0.846   3.303  16.394  0.1776  0.1750  0.9897
12612TIP3   OH259250   6.706   6.687  16.580  0.0097  0.0913  0.1254
12612TIP3    H159251   6.703   6.688  16.676  0.1154 -0.1061  0.1303
12612TIP3    H259252   6.622   6.724  16.554 -0.1560 -0.1593  0.2935
12613TIP3   OH259253   2.369   1.545  15.705 -0.0215  0.4198 -0.1501
12613TIP3    H159254   2.321   1.500  15.774  0.0411  1.4804  0.6048
12613TIP3    H259255   2.429   1.479  15.670 -0.6762 -0.3726  0.2059
12614TIP3   OH259256   2.678   1.460   4.328 -0.1796 -0.1904 -0.3928
12614TIP3    H159257   2.606   1.404   4.300  1.9444 -2.6436 -1.4107
12614TIP3    H259258   2.710   1.421   4.409  0.0365  0.8563  0.0497
12615TIP3   OH259259   6.022   4.201   3.008 -0.0807  0.5708  0.0411
12615TIP3    H159260   6.074   4.144   3.064 -1.5560 -0.3411  0.5373
12615TIP3    H259261   5.985   4.266   3.068  0.2077  1.0159 -0.2565
12616TIP3   OH259262   2.517   6.171  12.460  0.5756 -0.1176 -0.1317
12616TIP3    H159263   2.490   6.082  12.484  1.1687 -0.4828 -0.7794
12616TIP3    H259264   2.548   6.210  12.542 -1.4446  0.1624  0.5446
12617TIP3   OH259265   0.893   3.848   4.558 -0.1278  0.1127  0.2908
12617TIP3    H159266   0.890   3.861   4.464  0.0403  0.5566  0.3414
12617TIP3    H259267   0.846   3.923   4.595 -3.0117 -1.6561  0.4793
12618TIP3   OH259268   0.871   1.913  16.412  0.1812  0.6310 -0.2693
12618TIP3    H159269   0.881   1.969  16.335 -0.3552  0.4623 -0.4602
12618TIP3    H259270   0.785   1.872  16.402  0.3974  0.0834  0.0763
12619TIP3   OH259271   1.823   5.646   1.562  0.0407  0.2158 -0.2494
12619TIP3    H159272   1.823   5.565   1.614  0.6303 -0.6380 -1.5231
12619TIP3    H259273   1.786   5.620   1.477 -1.0770  1.6136 -0.2313
12620TIP3   OH259274   4.614   5.618   2.300  0.3421 -0.1484  0.1171
12620TIP3    H159275   4.660   5.535   2.299  0.8380  0.1281 -1.0202
12620TIP3    H259276   4.535   5.601   2.352  1.3863 -0.7947  1.5335
12621TIP3   OH259277   0.831   5.829  14.358 -0.4186 -0.2625 -0.3810
12621TIP3    H159278   0.752   5.882  14.372 -1.0113 -0.8464 -1.3845
12621TIP3    H259279   0.879   5.875  14.289 -0.0229 -0.0713  0.0164
12622TIP3   OH259280   0.205   1.297   4.761 -0.1251  0.3768 -0.0135
12622TIP3    H159281   0.186   1.313   4.669  0.6765 -3.7271 -1.1000
12622TIP3    H259282   0.121   1.272   4.799 -0.4410  1.9959  0.4278
12623TIP3   OH259283   6.195   4.719   5.236 -0.5061  0.3250 -0.1641
12623TIP3    H159284   6.180   4.749   5.325  0.4675 -0.5570  0.3190
12623TIP3    H259285   6.289   4.730   5.222 -0.3467 -1.1116 -0.4452
12624TIP3   OH259286   3.935   2.713   4.167  0.0264 -0.0605 -0.2484
12624TIP3    H159287   3.939   2.671   4.081  2.2608  1.2840 -0.8749
12624TIP3    H259288   3.970   2.801   4.153  1.0193 -0.0045  2.1603
12625TIP3   OH259289   2.267   4.136   1.198  0.5251 -0.5871 -0.1046
12625TIP3    H159290   2.214   4.075   1.250  0.3358  0.9752  1.6609
12625TIP3    H259291   2.208   4.210   1.182  1.4571  0.1693 -0.1275
12626TIP3   OH259292   1.271   0.145  13.684  0.1991  0.1032  0.1111
12626TIP3    H159293   1.213   0.076  13.651  0.0404  1.4842 -2.7515
12626TIP3    H259294   1.343   0.148  13.621  2.9876 -0.8593  3.0076
12627TIP3   OH259295   0.989   5.186  12.609  0.0866 -0.4690  0.3195
12627TIP3    H159296   0.984   5.091  12.616 -1.4325 -0.4595 -0.2501
12627TIP3    H259297   0.980   5.218  12.699  0.0195 -0.8379  0.4446
12628TIP3   OH259298   5.133   5.364   0.549 -0.0993  0.1642 -0.1524
12628TIP3    H159299   5.148   5.359   0.644  0.9063  0.6097 -0.2727
12628TIP3    H259300   5.104   5.276   0.525 -1.9385  0.4449  0.7988
12629TIP3   OH259301   4.038   2.966   4.070  0.5101  0.4921 -0.5423
12629TIP3    H159302   4.062   3.029   4.001 -0.5450  1.0948 -0.3707
12629TIP3    H259303   3.988   3.017   4.133 -0.6353 -0.5812 -0.5544
12630TIP3   OH259304   2.042   5.643  12.174  0.4080 -0.4982  0.6556
12630TIP3    H159305   1.993   5.716  12.210 -1.1322 -0.7153 -0.8765
12630TIP3    H259306   2.097   5.682  12.105  2.4772 -0.2615  2.3253
12631TIP3   OH259307   5.163   0.395   4.903  0.3778 -0.1778 -0.0432
12631TIP3    H159308   5.071   0.373   4.885  0.4243  1.0121 -2.0588
12631TIP3    H259309   5.176   0.371   4.994 -1.4943 -1.8470 -0.1416
12632TIP3   OH259310   0.376   5.823  11.242 -0.2027 -0.3540 -0.2656
12632TIP3    H159311   0.396   5.731  11.222 -1.7361 -0.6366 -0.5882
12632TIP3    H259312   0.397   5.832  11.335  2.0125 -0.4257 -0.7066
12633TIP3   OH259313   1.111   3.130  11.318  0.1072 -0.5268 -0.2586
12633TIP3    H159314   1.180   3.078  11.275  0.5486  0.1951 -0.4486
12633TIP3    H259315   1.100   3.206  11.261  0.3105  0.1751  0.6134
12634TIP3   OH259316   0.646   1.481   3.629 -0.0393 -0.2927 -0.1607
12634TIP3    H159317   0.562   1.443   3.654  0.0300 -0.6199 -0.4317
12634TIP3    H259318   0.709   1.410   3.637  0.0673 -0.2779 -0.8026
12635TIP3   OH259319   6.587   4.228   0.022 -0.1535  0.3966 -0.1010
12635TIP3    H159320   6.510   4.176   0.044 -0.2504  0.1849 -0.9090
12635TIP3    H259321   6.598   4.287   0.096 -0.9940  0.3108  0.1049
12636TIP3   OH259322   2.478   5.512   5.044 -0.2740 -0.0788  0.6384
12636TIP3    H159323   2.539   5.478   4.979 -0.2993 -1.7872  1.4580
12636TIP3    H259324   2.530   5.574   5.095  0.2120 -0.0193  0.0784
12637TIP3   OH259325   2.616   2.357  11.726 -0.1596  0.2414 -0.6719
12637TIP3    H159326   2.537   2.308  11.747  0.9393 -0.7462  1.4694
12637TIP3    H259327   2.665   2.300  11.665  1.2624 -1.6658  2.0426
12638TIP3   OH259328   5.285   3.165  14.608 -0.2654  0.4652  0.1992
12638TIP3    H159329   5.326   3.249  14.587  1.8026 -0.2673  1.0033
12638TIP3    H259330   5.270   3.168  14.702 -1.7176  0.5420 -0.0195
12639TIP3   OH259331   3.132   0.525  15.226 -0.2559  0.1256 -0.6521
12639TIP3    H159332   3.183   0.497  15.302 -0.9898 -0.1733 -0.2567
12639TIP3    H259333   3.143   0.620  15.223  2.4127 -0.1429 -2.1153
12640TIP3   OH259334   1.127   1.645  16.006  0.0252 -0.0735  0.4447
12640TIP3    H159335   1.119   1.646  15.911 -0.3483 -1.6880  0.4373
12640TIP3    H259336   1.106   1.735  16.033 -0.5304  0.2274 -0.9295
12641TIP3   OH259337   0.983   3.187  10.741 -0.0717  0.1569 -0.4915
12641TIP3    H159338   1.036   3.192  10.662 -0.6387  0.5902 -0.8582
12641TIP3    H259339   0.912   3.250  10.726  0.3143  0.9221  0.7503
12642TIP3   OH259340   1.514   4.315  14.569 -0.1795  0.6306 -0.1915
12642TIP3    H159341   1.597   4.362  14.577  0.6786 -0.7571 -0.5079
12642TIP3    H259342   1.513   4.282  14.479  0.2567 -1.6689  0.5806
12643TIP3   OH259343   1.250   5.554   1.698  0.1279 -0.3343  0.3392
12643TIP3    H159344   1.174   5.612   1.700 -0.7007 -1.1981 -2.1599
12643TIP3    H259345   1.318   5.605   1.656  0.3946 -0.1383  1.0033
12644TIP3   OH259346   2.388   6.025  15.941 -0.1942 -0.6183 -0.4411
12644TIP3    H159347   2.413   6.056  15.854 -1.4425  0.9583 -0.2893
12644TIP3    H259348   2.455   6.061  15.999 -0.0589 -0.5957 -0.6111
12645TIP3   OH259349   2.620   3.828  14.727  0.3803  0.9472 -0.3709
12645TIP3    H159350   2.607   3.748  14.777 -1.2259 -0.0011 -2.1786
12645TIP3    H259351   2.544   3.882  14.749  0.9782  1.6077  0.1195
12646TIP3   OH259352   0.633   3.602  14.810  0.0106 -0.4241 -0.4366
12646TIP3    H159353   0.689   3.676  14.786 -1.3401  0.5046 -0.8730
12646TIP3    H259354   0.544   3.636  14.801 -0.6335 -1.7875  0.4199
12647TIP3   OH259355   1.072   1.274   2.770  0.0839 -0.2051  0.8408
12647TIP3    H159356   1.104   1.328   2.842  2.3732  0.6379 -0.6961
12647TIP3    H259357   0.978   1.294   2.765  0.3827  1.7215  1.9351
12648TIP3   OH259358   4.909   1.838  12.017 -0.0291 -0.0769 -0.0658
12648TIP3    H159359   4.953   1.868  11.937 -1.3899  1.3515 -0.3436
12648TIP3    H259360   4.945   1.752  12.034 -1.1485 -1.3853 -3.4321
12649TIP3   OH259361   4.656   1.480  12.790 -0.3502  0.3536 -0.8081
12649TIP3    H159362   4.596   1.428  12.844  0.1555  0.9343  0.3545
12649TIP3    H259363   4.656   1.566  12.831 -1.0808  1.2628 -2.6462
12650TIP3   OH259364   1.956   1.849   6.733 -0.4135 -0.0936  0.3868
12650TIP3    H159365   2.000   1.922   6.689  1.0125 -1.1247  0.0381
12650TIP3    H259366   1.863   1.865   6.718 -0.0377  0.2536 -1.9704
12651TIP3   OH259367   0.472   5.097   0.402 -0.2074  0.2004  0.4124
12651TIP3    H159368   0.486   5.006   0.379  1.6540  0.5776 -0.1369
12651TIP3    H259369   0.383   5.116   0.375 -0.1852 -1.1053 -0.6545
12652TIP3   OH259370   5.838   1.801   1.752 -0.3491  0.2321  0.3072
12652TIP3    H159371   5.768   1.759   1.703  1.2955 -1.2638 -0.9102
12652TIP3    H259372   5.889   1.848   1.686  0.1519  0.7631  1.0481
12653TIP3   OH259373   3.506   3.234   0.672 -0.4615 -0.2130 -0.0829
12653TIP3    H159374   3.495   3.294   0.746 -1.1020 -0.1441 -0.2223
12653TIP3    H259375   3.553   3.159   0.709 -1.3579 -0.4761  0.5670
12654TIP3   OH259376   2.781   3.394  12.582  0.3489  0.3531 -0.1782
12654TIP3    H159377   2.873   3.379  12.557  0.6497 -0.5167  1.2992
12654TIP3    H259378   2.731   3.337  12.523  0.8446  0.1018 -0.3637
12655TIP3   OH259379   3.758   4.832  16.025  0.4910 -0.2386  0.2765
12655TIP3    H159380   3.808   4.796  16.098 -0.0132 -1.3863  0.0958
12655TIP3    H259381   3.811   4.904  15.991  0.4059  0.7963  2.2123
12656TIP3   OH259382   5.062   5.958  15.775 -0.3447 -0.6611 -0.4384
12656TIP3    H159383   5.003   5.889  15.745  0.1568 -0.5741 -1.6670
12656TIP3    H259384   5.054   6.027  15.709  2.4444 -1.3781 -1.6786
12657TIP3   OH259385   4.698   5.309  15.171  0.1641 -0.0964 -0.2321
12657TIP3    H159386   4.717   5.311  15.078 -0.8916 -0.6733 -0.4893
12657TIP3    H259387   4.640   5.384  15.186  1.9129  1.1889  0.3786
12658TIP3   OH259388   2.488   3.935  16.031  0.3102  0.0812 -0.1640
12658TIP3    H159389   2.518   3.849  16.002 -0.0012 -0.0259 -0.1765
12658TIP3    H259390   2.559   3.995  16.008  0.7468 -0.2497  0.3116
12659TIP3   OH259391   1.910   1.258  11.230 -0.3276 -0.7917  0.4781
12659TIP3    H159392   1.821   1.222  11.228 -1.1919  1.2124  0.9491
12659TIP3    H259393   1.901   1.345  11.268  1.3971  0.6257 -2.0135
12660TIP3   OH259394   6.700   2.806   0.634 -0.2985 -0.5279 -0.0694
12660TIP3    H159395   6.664   2.718   0.629  0.5756 -0.8849 -0.3720
12660TIP3    H259396   6.727   2.827   0.545  0.8820 -0.5798  0.2500
12661TIP3   OH259397   0.727   0.305  11.089  0.0549  0.1541 -0.2410
12661TIP3    H159398   0.671   0.249  11.034  0.5463 -1.6991  1.0466
12661TIP3    H259399   0.667   0.344  11.152 -0.0969 -0.1007 -0.2255
12662TIP3   OH259400   3.101   2.921   2.447 -0.3404  0.0251  0.4499
12662TIP3    H159401   3.024   2.875   2.414  0.3494  0.6609 -2.2215
12662TIP3    H259402   3.143   2.858   2.506 -1.9468 -0.9560  0.6119
12663TIP3   OH259403   2.877   5.543   2.585  0.0558 -0.2240 -0.2432
12663TIP3    H159404   2.785   5.523   2.606 -0.4910  1.6731 -0.5799
12663TIP3    H259405   2.911   5.582   2.666  0.1830  0.2141 -0.5056
12664TIP3   OH259406   0.945   6.181  14.434 -0.5690  0.2085 -0.0168
12664TIP3    H159407   0.948   6.267  14.391  2.1868 -0.3260 -1.0866
12664TIP3    H259408   0.918   6.201  14.524  1.5997  2.5207  0.2579
12665TIP3   OH259409   1.697   0.455  16.931 -0.2684  0.1160  0.0824
12665TIP3    H159410   1.780   0.449  16.979  0.0993 -0.9270 -0.6516
12665TIP3    H259411   1.717   0.419  16.845 -1.8364 -1.5519  0.3646
12666TIP3   OH259412   0.198   2.800  16.548  0.8167 -0.6138 -0.0354
12666TIP3    H159413   0.198   2.856  16.470 -0.4753 -1.0227 -0.3494
12666TIP3    H259414   0.286   2.809  16.584  1.1623  0.2611 -1.0554
12667TIP3   OH259415   5.471   5.201   6.410 -0.2592 -0.4883 -0.2045
12667TIP3    H159416   5.505   5.245   6.488  1.5971 -1.5743 -0.3377
12667TIP3    H259417   5.393   5.154   6.441 -1.6344  1.8627  0.1741
12668TIP3   OH259418   2.549   3.936  12.921  0.5387  0.6505  0.2645
12668TIP3    H159419   2.608   3.987  12.976  0.8630  0.3657  0.1781
12668TIP3    H259420   2.524   3.995  12.850  0.7420  0.7566  0.2842
12669TIP3   OH259421   3.591   0.307   5.226 -0.2860  0.0238 -0.5948
12669TIP3    H159422   3.678   0.282   5.255  0.4081  1.8047 -1.0022
12669TIP3    H259423   3.559   0.367   5.295 -0.3590  0.9192 -1.3811
12670TIP3   OH259424   5.803   1.844  16.205 -0.0109 -0.5389  0.0035
12670TIP3    H159425   5.832   1.932  16.184  1.6435 -1.4491 -1.7733
12670TIP3    H259426   5.763   1.811  16.124 -0.3885 -1.5182  0.5625
12671TIP3   OH259427   2.690   3.909  11.510 -0.5706 -0.2338 -0.1475
12671TIP3    H159428   2.692   3.813  11.510 -0.1030 -0.3156 -2.6497
12671TIP3    H259429   2.609   3.931  11.464 -0.3909  0.5586 -0.1008
12672TIP3   OH259430   2.544   0.267   2.149  0.1506  0.1767 -0.1382
12672TIP3    H159431   2.596   0.293   2.225 -1.1544 -0.6025  1.0651
12672TIP3    H259432   2.594   0.299   2.074 -0.0431  3.7517  1.0771
12673TIP3   OH259433   3.087   3.933  11.413 -0.0758 -0.4203  0.6157
12673TIP3    H159434   3.152   3.998  11.439  0.1369  0.7555 -2.4730
12673TIP3    H259435   3.008   3.984  11.394 -0.1544 -1.1306 -1.0836
12674TIP3   OH259436   2.441   5.638  16.918  0.2954 -0.8974  0.1882
12674TIP3    H159437   2.525   5.620  16.876  0.1622 -0.1803 -0.3915
12674TIP3    H259438   2.414   5.723  16.884 -0.6288 -1.0766  0.4313
12675TIP3   OH259439   4.623   1.364  14.648  0.2279 -0.0644  0.0924
12675TIP3    H159440   4.712   1.396  14.659  0.1269  0.5523 -0.7383
12675TIP3    H259441   4.575   1.439  14.614 -0.3041 -0.7536 -0.7203
12676TIP3   OH259442   4.575   1.809   3.668 -0.1058  0.3508  0.3877
12676TIP3    H159443   4.491   1.793   3.712  0.1874 -1.1521  0.4639
12676TIP3    H259444   4.602   1.723   3.637  1.8822  0.6294  1.1941
12677TIP3   OH259445   6.360   2.724  12.553  0.2212  0.1712 -0.6213
12677TIP3    H159446   6.265   2.722  12.557  0.1874  1.4431 -0.2574
12677TIP3    H259447   6.386   2.633  12.539 -0.9811 -0.4083  0.6460
12678TIP3   OH259448   4.147   6.597   0.249  0.2288 -0.1467  1.1886
12678TIP3    H159449   4.150   6.648   0.330 -0.6508 -0.7998  1.6442
12678TIP3    H259450   4.054   6.580   0.235  0.2943  0.5241 -0.3300
12679TIP3   OH259451   1.745   3.615  12.383 -0.2146 -0.1352  0.3497
12679TIP3    H159452   1.833   3.579  12.376  0.5927  1.8976 -0.9996
12679TIP3    H259453   1.720   3.601  12.475  1.7144 -0.3291  0.8768
12680TIP3   OH259454   3.944   0.883  13.374 -0.1735  0.5324 -0.6220
12680TIP3    H159455   3.990   0.883  13.458  0.0780 -2.2550 -0.6887
12680TIP3    H259456   3.856   0.914  13.395  0.6976  2.7813  0.0629
12681TIP3   OH259457   5.837   5.268  17.057 -0.7506 -0.2473  0.1178
12681TIP3    H159458   5.749   5.265  17.019 -1.2354  0.9879  1.0346
12681TIP3    H259459   5.851   5.361  17.075  0.7252 -0.4388  0.0588
12682TIP3   OH259460   4.828   1.498  14.769 -0.0398  0.0653  0.3119
12682TIP3    H159461   4.837   1.425  14.831 -2.4470 -1.1175 -0.6033
12682TIP3    H259462   4.913   1.502  14.726  0.2801 -2.0502  0.5907
12683TIP3   OH259463   5.874   4.254  13.745 -0.7381 -0.5965  0.6104
12683TIP3    H159464   5.809   4.184  13.751 -1.1457 -0.1915  0.9856
12683TIP3    H259465   5.829   4.331  13.778 -0.3766 -0.0980 -0.0387
12684TIP3   OH259466   4.116   3.925   4.105 -0.0239 -0.1672 -0.3084
12684TIP3    H159467   4.069   3.898   4.184  1.5080  1.7091  1.3979
12684TIP3    H259468   4.050   3.969   4.051 -0.8180 -0.1001  0.6860
12685TIP3   OH259469   1.816   2.230  15.840 -0.1085  0.3529 -0.4587
12685TIP3    H159470   1.879   2.302  15.839  0.3097  0.0018 -0.0319
12685TIP3    H259471   1.851   2.168  15.905 -0.3800 -0.2992 -0.9179
12686TIP3   OH259472   1.641   5.067   3.314 -0.3586 -0.1271 -0.4387
12686TIP3    H159473   1.613   5.019   3.392  1.1291  0.7782  0.6945
12686TIP3    H259474   1.606   5.015   3.241  2.2399 -3.7825  0.6262
12687TIP3   OH259475   1.267   4.348   2.424  0.3726 -0.4506 -0.1921
12687TIP3    H159476   1.200   4.295   2.466  1.6579 -1.2645  0.9096
12687TIP3    H259477   1.316   4.387   2.496  0.1771  1.3520 -0.9725
12688TIP3   OH259478   2.489   3.874   0.827  0.4556  0.2009  0.0528
12688TIP3    H159479   2.426   3.860   0.757 -0.7316 -3.6594  1.5865
12688TIP3    H259480   2.442   3.848   0.907  3.0893 -0.0074  1.6664
12689TIP3   OH259481   5.634   1.623   3.034  0.1364  0.0994  0.7235
12689TIP3    H159482   5.567   1.625   3.103 -0.2376 -0.9350  0.4181
12689TIP3    H259483   5.713   1.658   3.075 -0.4585  0.8330  1.2483
12690TIP3   OH259484   2.715   3.443   3.840 -0.1850  0.0615  0.3803
12690TIP3    H159485   2.748   3.505   3.775 -0.4211 -0.6367 -0.4343
12690TIP3    H259486   2.782   3.374   3.843 -1.0753 -0.8940 -0.5964
12691TIP3   OH259487   5.490   4.707  14.429  0.1257 -0.4693  0.1288
12691TIP3    H159488   5.446   4.718  14.513 -0.0306  1.5265 -0.1805
12691TIP3    H259489   5.582   4.728  14.447  0.1404 -0.2926 -0.1597
12692TIP3   OH259490   3.150   0.804  15.213  0.3372 -0.1370 -0.8550
12692TIP3    H159491   3.220   0.839  15.268  0.0225  0.8822 -1.0795
12692TIP3    H259492   3.117   0.881  15.165 -2.7279 -0.0012  1.1940
12693TIP3   OH259493   2.173   2.588  16.150 -0.1857  0.6507  0.3711
12693TIP3    H159494   2.089   2.622  16.120  0.3174  1.1675 -0.4757
12693TIP3    H259495   2.189   2.510  16.096 -0.1499  0.5155  0.5758
12694TIP3   OH259496   1.112   6.152   4.617  0.2395  0.2641 -0.1714
12694TIP3    H159497   1.033   6.143   4.562 -0.4917 -0.3322  0.9373
12694TIP3    H259498   1.080   6.194   4.697  0.7890 -1.1404  0.8171
12695TIP3   OH259499   2.444   5.620   3.853 -0.1374  0.5040 -0.4710
12695TIP3    H159500   2.438   5.712   3.880 -1.1382 -0.0622  1.4048
12695TIP3    H259501   2.522   5.587   3.897  2.4374  1.2493 -4.0211
12696TIP3   OH259502   0.049   4.600  11.413 -0.2408 -0.0752 -0.1757
12696TIP3    H159503   0.009   4.641  11.489 -1.0811  1.1181 -1.2133
12696TIP3    H259504  -0.025   4.568  11.361  0.2341  0.1657 -1.0304
12697TIP3   OH259505   2.216   5.490  15.951 -0.6875  0.1791 -0.1072
12697TIP3    H159506   2.283   5.546  15.912 -0.8968  0.7760  0.3720
12697TIP3    H259507   2.234   5.402  15.916  0.3277  0.3365  0.0022
12698TIP3   OH259508   2.084   5.432  12.344 -0.5881 -1.2946  0.0207
12698TIP3    H159509   2.176   5.405  12.342 -0.1320 -0.4029  3.4130
12698TIP3    H259510   2.082   5.513  12.293  0.8681 -0.5150  1.1291
12699TIP3   OH259511   2.871   1.696   1.475 -0.3993 -0.2854 -0.4357
12699TIP3    H159512   2.821   1.661   1.549  1.1539  1.2841  1.4640
12699TIP3    H259513   2.815   1.681   1.399 -1.6996 -2.7447  0.8993
12700TIP3   OH259514   3.960   3.961   4.548 -0.0315  0.0512 -0.0566
12700TIP3    H159515   3.939   4.045   4.507  0.0208  1.6940  2.9328
12700TIP3    H259516   3.876   3.931   4.585  0.4478  0.2954  1.2988
12701TIP3   OH259517   4.412   6.646  14.979  0.2006 -0.0695  0.4582
12701TIP3    H159518   4.433   6.670  15.070 -0.3768  0.1316  0.5398
12701TIP3    H259519   4.497   6.621  14.942  0.3422 -0.8398  1.2558
12702TIP3   OH259520   4.997   1.357  15.793  0.9137  0.1890 -0.1485
12702TIP3    H159521   5.008   1.401  15.878  1.2660 -0.0004 -0.0975
12702TIP3    H259522   4.923   1.298  15.807 -0.1035  1.3439 -0.4549
12703TIP3   OH259523   0.426   5.093  15.967  0.2597  0.3498  0.0493
12703TIP3    H159524   0.453   5.004  15.947  1.6215  0.4730  1.1512
12703TIP3    H259525   0.508   5.143  15.969 -0.3224  1.3161  0.8520
12704TIP3   OH259526   3.279   3.490   1.760 -0.1098 -0.3324 -0.2853
12704TIP3    H159527   3.259   3.397   1.750 -1.2591 -0.2231  0.7406
12704TIP3    H259528   3.285   3.523   1.671  0.3557 -1.3871 -0.6659
12705TIP3   OH259529   6.363   4.831  12.184 -0.0949 -0.0031 -0.0935
12705TIP3    H159530   6.359   4.737  12.199  0.8220  0.1684  1.3924
12705TIP3    H259531   6.280   4.852  12.142 -0.2614 -1.4857 -0.5534
12706TIP3   OH259532   2.455   5.306   3.928  0.0290  0.3413  0.0005
12706TIP3    H159533   2.438   5.214   3.908  1.7671  0.0123 -0.1333
12706TIP3    H259534   2.501   5.339   3.851  0.7791  0.9022  0.6764
12707TIP3   OH259535   0.905   6.157   5.204  0.1655 -0.2946 -0.0674
12707TIP3    H159536   0.844   6.230   5.194 -1.4063 -1.2925  1.7758
12707TIP3    H259537   0.864   6.084   5.158 -1.2800 -1.5852  2.9829
12708TIP3   OH259538   1.893   4.181   3.248 -0.3084 -0.0250  0.0374
12708TIP3    H159539   1.824   4.246   3.233  0.3829  0.8980  0.7024
12708TIP3    H259540   1.926   4.161   3.160 -1.6155 -0.7229 -0.3181
12709TIP3   OH259541   4.946   3.336   3.227 -0.1574 -0.6793  0.6966
12709TIP3    H159542   4.860   3.324   3.267  0.3920 -2.0814  1.5640
12709TIP3    H259543   5.006   3.348   3.302  0.7415 -2.2888  0.2908
12710TIP3   OH259544   0.444   3.899   1.638 -0.2299 -0.3918 -0.1581
12710TIP3    H159545   0.481   3.968   1.584  1.1766 -1.1256 -0.1808
12710TIP3    H259546   0.360   3.877   1.597  1.1295 -1.4635 -2.5396
12711TIP3   OH259547   4.823   1.376  11.871  0.5459 -0.1758  0.1555
12711TIP3    H159548   4.792   1.467  11.863 -2.2103 -1.2086 -2.4345
12711TIP3    H259549   4.848   1.351  11.782  2.8900 -1.5360  1.0971
12712TIP3   OH259550   1.570   2.506  14.227 -0.3040 -0.6724  0.4466
12712TIP3    H159551   1.657   2.471  14.247 -0.1128  0.5703  2.0430
12712TIP3    H259552   1.587   2.596  14.200 -1.0696 -0.5622  0.3137
12713TIP3   OH259553   2.769   5.556  12.625  0.3576  0.0319  1.0288
12713TIP3    H159554   2.802   5.646  12.635  0.0022  0.1976  0.7519
12713TIP3    H259555   2.757   5.546  12.531  3.3316 -1.3840  0.6980
12714TIP3   OH259556   6.062   4.249  14.881  0.0191 -0.2841  0.4505
12714TIP3    H159557   6.101   4.195  14.949 -1.1187  0.5066  1.7982
12714TIP3    H259558   6.088   4.208  14.799  1.1393 -1.4714  1.3695
12715TIP3   OH259559   5.063   1.003   0.534 -0.0902  0.1928 -0.1701
12715TIP3    H159560   5.104   0.933   0.483 -1.1759 -0.1308 -0.6311
12715TIP3    H259561   5.081   1.083   0.485  2.4122  0.4962  1.1063
12716TIP3   OH259562   3.930   0.522   5.267  0.0608 -0.0214  0.8108
12716TIP3    H159563   3.979   0.442   5.284 -0.1433 -0.1238  0.9188
12716TIP3    H259564   3.995   0.584   5.234  0.5082  0.2351  2.1147
12717TIP3   OH259565   3.412   2.815   1.727  0.2151 -0.2392 -0.8080
12717TIP3    H159566   3.493   2.768   1.747 -0.5802 -1.2134  0.3224
12717TIP3    H259567   3.431   2.864   1.647  1.3618 -1.8381 -1.5617
12718TIP3   OH259568   5.012   0.618  12.095 -0.3594 -0.2058  0.2258
12718TIP3    H159569   5.041   0.555  12.161  0.2435 -0.6174 -0.4205
12718TIP3    H259570   5.087   0.676  12.082 -0.5808  0.0588  0.1262
12719TIP3   OH259571   1.813   2.943   5.172  0.2061  0.1712  0.2242
12719TIP3    H159572   1.809   2.847   5.168  1.2230 -0.0198  2.4251
12719TIP3    H259573   1.907   2.963   5.172  0.0076  1.1429  0.2477
12720TIP3   OH259574   3.861   0.121   5.023 -0.4041 -0.3432  0.5410
12720TIP3    H159575   3.894   0.201   4.984 -0.7927 -0.6964 -0.5691
12720TIP3    H259576   3.895   0.121   5.113 -0.2825  0.9715  0.5062
12721TIP3   OH259577   6.069   5.309  11.512 -0.0574 -0.2215 -0.4009
12721TIP3    H159578   6.115   5.317  11.428 -0.6114  0.3219 -0.6626
12721TIP3    H259579   5.986   5.267  11.490 -0.5465  0.6347 -0.2689
12722TIP3   OH259580   1.068   5.844   3.282 -0.3135 -0.3589 -0.1569
12722TIP3    H159581   1.086   5.884   3.368 -0.2711  0.3436 -0.4855
12722TIP3    H259582   1.129   5.887   3.222  0.0931 -1.2963 -0.4360
12723TIP3   OH259583   1.998   1.854   6.011 -0.2620  0.0279 -0.1435
12723TIP3    H159584   2.039   1.769   5.996  0.1234 -0.0828  1.3759
12723TIP3    H259585   1.912   1.833   6.046  0.3839  0.2327  1.6351
12724TIP3   OH259586   0.959   4.438  11.496  0.0494  0.1077  0.6198
12724TIP3    H159587   0.939   4.528  11.523  0.3150  0.6841 -0.9642
12724TIP3    H259588   0.991   4.447  11.406 -0.6992 -1.6570  0.1324
12725TIP3   OH259589   6.719   3.720  12.514 -0.1397  0.0026  0.4335
12725TIP3    H159590   6.696   3.770  12.593  1.0136 -0.3922  1.0296
12725TIP3    H259591   6.677   3.769  12.443 -1.1104  0.4276  1.2634
12726TIP3   OH259592   0.567   2.220   3.631 -0.3243  0.4484  0.0842
12726TIP3    H159593   0.642   2.244   3.576  0.5244 -0.0981  0.9824
12726TIP3    H259594   0.492   2.259   3.586  0.5343  1.3439 -0.6282
12727TIP3   OH259595   2.633   5.829   0.036  0.1026  0.1625  0.4504
12727TIP3    H159596   2.716   5.828   0.083  1.0519 -1.3699 -1.1529
12727TIP3    H259597   2.605   5.738   0.035 -0.1140  0.2100 -1.5159
12728TIP3   OH259598   5.630   4.724   1.111 -0.2397 -0.0045 -0.6948
12728TIP3    H159599   5.594   4.645   1.151  3.1121 -1.4856 -0.2302
12728TIP3    H259600   5.612   4.793   1.175 -0.5127 -1.0418  0.3864
12729TIP3   OH259601   5.655   5.056   2.215 -0.1138 -0.1032 -0.2111
12729TIP3    H159602   5.597   5.131   2.224 -1.5399 -1.0672 -1.1098
12729TIP3    H259603   5.726   5.087   2.159 -0.2662  0.7821  0.0652
12730TIP3   OH259604   3.624   4.785  11.135  0.2399  0.7729  0.0279
12730TIP3    H159605   3.687   4.856  11.124  2.9753 -1.4589  0.1771
12730TIP3    H259606   3.645   4.724  11.065 -1.2110 -0.4585  0.6157
12731TIP3   OH259607   6.088   3.732  16.124 -0.0492  0.1285 -0.0067
12731TIP3    H159608   6.041   3.689  16.195  0.0054  0.1727  0.0550
12731TIP3    H259609   6.146   3.795  16.167 -0.7812  0.9141 -0.1385
12732TIP3   OH259610   2.255   5.204   2.142 -0.2240  0.4040 -0.0864
12732TIP3    H159611   2.298   5.247   2.216  0.4646  0.3283 -0.4323
12732TIP3    H259612   2.178   5.162   2.180  0.3797 -0.0352  0.6784
12733TIP3   OH259613   2.841   5.807   0.217 -0.1382  0.1078  0.5237
12733TIP3    H159614   2.882   5.889   0.246 -0.5955  1.1841 -1.6997
12733TIP3    H259615   2.914   5.746   0.208  0.8435  1.4925 -1.6825
12734TIP3   OH259616   1.710   2.887  11.715 -0.4912  0.0082 -0.1386
12734TIP3    H159617   1.721   2.963  11.773  0.1529 -0.1566 -0.0376
12734TIP3    H259618   1.780   2.827  11.741 -1.3797 -0.9029  0.2047
12735TIP3   OH259619   1.620   2.101  14.994  0.1123 -0.2445 -0.2369
12735TIP3    H159620   1.602   2.039  15.065 -3.5166  0.3330 -0.4324
12735TIP3    H259621   1.672   2.052  14.931  2.2053 -1.2247  2.1142
12736TIP3   OH259622   2.149   1.349  14.961  0.1590  0.2476  0.5741
12736TIP3    H159623   2.166   1.283  14.893  1.1479  0.9993  0.0678
12736TIP3    H259624   2.099   1.302  15.028 -1.1382 -0.4318 -0.8092
12737TIP3   OH259625   1.082   2.811  15.990  0.2810 -0.2229 -1.1234
12737TIP3    H159626   1.043   2.760  15.920  0.2605 -2.3408  0.3203
12737TIP3    H259627   1.120   2.887  15.947 -0.8162 -0.7956 -3.2245
12738TIP3   OH259628   1.104   4.849   3.786  0.0832  0.0901  0.3441
12738TIP3    H159629   1.164   4.859   3.713  2.1417  2.0928  2.1369
12738TIP3    H259630   1.140   4.778   3.839 -0.2964 -0.0714  0.3934
12739TIP3   OH259631   5.648   2.000   2.152  0.0336  0.1201 -0.4092
12739TIP3    H159632   5.639   2.004   2.247  1.3908  0.9598 -0.2881
12739TIP3    H259633   5.604   2.079   2.120 -0.2761 -0.0765 -0.4763
12740TIP3   OH259634   5.908   1.875  12.606 -0.7176 -0.7184 -0.4951
12740TIP3    H159635   5.927   1.928  12.684 -0.8482 -1.4586  0.0405
12740TIP3    H259636   5.871   1.938  12.544  2.5507  0.6592 -1.2691
12741TIP3   OH259637   1.906   6.472  16.754  0.2569 -0.5267 -0.1079
12741TIP3    H159638   1.958   6.548  16.728  1.0244 -0.5390  1.2937
12741TIP3    H259639   1.895   6.482  16.849 -0.0851 -1.8818  0.0112
12742TIP3   OH259640   4.268   1.384   3.039 -0.0387  0.2232  0.8234
12742TIP3    H159641   4.357   1.349   3.044  0.2347  0.2161 -2.2490
12742TIP3    H259642   4.275   1.473   3.072  1.5041  0.7531 -0.8038
12743TIP3   OH259643   2.314   2.435  14.926  0.1813 -0.4349 -0.2396
12743TIP3    H159644   2.297   2.369  14.858  1.6507 -0.4489 -0.6273
12743TIP3    H259645   2.368   2.388  14.991  1.1969  0.3509 -0.4940
12744TIP3   OH259646   3.912   2.256   1.910  0.6808  0.1558 -1.1843
12744TIP3    H159647   3.930   2.185   1.848 -0.4698 -2.0588  0.8552
12744TIP3    H259648   3.817   2.255   1.920  0.8193  0.5474  0.4709
12745TIP3   OH259649   4.161   2.903  16.616  0.8064 -0.1784 -0.0380
12745TIP3    H159650   4.152   2.886  16.710 -1.5100 -1.6305 -0.4341
12745TIP3    H259651   4.167   2.816  16.577  4.0838  0.4063 -1.1641
12746TIP3   OH259652   3.693   1.930   6.393 -0.4935  0.1372 -0.0920
12746TIP3    H159653   3.733   1.965   6.313 -2.1644 -1.5993 -1.7996
12746TIP3    H259654   3.711   1.836   6.389 -3.2906 -0.4876 -0.1616
12747TIP3   OH259655   2.398   0.279  13.416  0.0309  0.4394 -0.1133
12747TIP3    H159656   2.468   0.343  13.426 -0.8229  1.6800 -1.7359
12747TIP3    H259657   2.444   0.198  13.392  1.0879  0.4680  1.6273
12748TIP3   OH259658   4.366   6.065   1.297  0.1110  0.0082  0.2602
12748TIP3    H159659   4.332   5.999   1.358  1.7363 -1.8097 -0.6864
12748TIP3    H259660   4.445   6.025   1.260 -0.7570  1.0389 -3.0170
12749TIP3   OH259661   0.770   3.660   5.550  0.2319 -0.2390 -0.0951
12749TIP3    H159662   0.818   3.651   5.632 -1.6659 -0.1719  1.1058
12749TIP3    H259663   0.756   3.754   5.541 -0.0149 -0.2825 -0.1875
12750TIP3   OH259664   0.650   5.897  15.562  0.0774  0.1510 -0.2344
12750TIP3    H159665   0.612   5.810  15.571 -2.3924  1.2090  0.8468
12750TIP3    H259666   0.697   5.911  15.644 -0.1965  0.0927 -0.0623
12751TIP3   OH259667   4.438   4.478   1.326 -0.0054 -0.8538 -0.7805
12751TIP3    H159668   4.468   4.389   1.345 -0.1897 -0.6679  0.5077
12751TIP3    H259669   4.496   4.535   1.376 -0.4174 -0.2975 -0.9155
12752TIP3   OH259670   1.327   6.340   1.489 -0.4138  0.0830 -0.4357
12752TIP3    H159671   1.376   6.401   1.544  0.7871 -0.2530 -1.1014
12752TIP3    H259672   1.346   6.254   1.527 -2.1022  0.0805  0.5032
12753TIP3   OH259673   3.736   4.413   1.002  0.0446 -0.1395 -0.0726
12753TIP3    H159674   3.644   4.390   1.001 -0.0896  0.3790  0.2469
12753TIP3    H259675   3.739   4.502   1.037  0.4803  0.6227 -1.8976
12754TIP3   OH259676   0.449   5.191   3.406 -0.5126 -0.9470  0.2264
12754TIP3    H159677   0.495   5.110   3.426  1.0145 -0.4182 -0.9382
12754TIP3    H259678   0.439   5.191   3.311 -0.1097  0.3987  0.1511
12755TIP3   OH259679   5.666   0.805   5.367 -0.2048 -0.1565 -0.2337
12755TIP3    H159680   5.620   0.883   5.397 -2.2766 -1.6306  0.6710
12755TIP3    H259681   5.709   0.770   5.445  1.1056  0.2681 -0.7252
12756TIP3   OH259682   4.714   6.712   2.197 -0.0794  0.1648  0.0401
12756TIP3    H159683   4.791   6.731   2.144 -0.6480 -2.0337 -1.6971
12756TIP3    H259684   4.744   6.722   2.287  1.6559  1.3096 -0.6069
12757TIP3   OH259685   0.033   4.922   2.150  0.0499 -0.5254 -0.2965
12757TIP3    H159686   0.009   4.940   2.241 -0.1968 -0.0683 -0.4481
12757TIP3    H259687  -0.019   4.844   2.127  0.6154 -1.0473  0.1528
12758TIP3   OH259688   3.565   4.386  14.289  0.4665  0.9254 -0.5976
12758TIP3    H159689   3.576   4.415  14.198 -0.9517  0.4114 -0.9708
12758TIP3    H259690   3.568   4.290  14.283  1.3615  0.9068  0.0574
12759TIP3   OH259691   3.036   5.379  14.390  0.1784 -0.1475  0.2830
12759TIP3    H159692   3.031   5.443  14.319 -4.2497  0.9108  1.2653
12759TIP3    H259693   3.092   5.421  14.456  0.1190  1.1789 -0.4738
12760TIP3   OH259694   5.667   2.088  12.587 -0.4416  0.4357 -0.5866
12760TIP3    H159695   5.643   2.063  12.498 -1.7379  0.1909 -0.1921
12760TIP3    H259696   5.623   2.023  12.643  0.1961  0.6942  0.2488
12761TIP3   OH259697   6.599   2.988   1.592 -0.0639  1.1274 -0.2822
12761TIP3    H159698   6.679   3.031   1.563 -0.4095  2.0242  0.0888
12761TIP3    H259699   6.586   3.017   1.682  1.0075 -1.6628  0.8960
12762TIP3   OH259700   0.468   0.534  16.871  0.7722  0.0708  0.0248
12762TIP3    H159701   0.387   0.582  16.852  0.5927 -0.2977 -0.1483
12762TIP3    H259702   0.536   0.601  16.870  0.3831  0.5001  0.8671
12763TIP3   OH259703   4.448   5.942  13.597 -0.1493  0.2555 -0.4332
12763TIP3    H159704   4.482   5.856  13.621 -2.5255 -1.0050 -1.2901
12763TIP3    H259705   4.452   5.943  13.501 -0.8182  0.7935 -0.4594
12764TIP3   OH259706   3.460   4.171   5.133 -0.2104  0.1639  0.1676
12764TIP3    H159707   3.425   4.260   5.136 -0.0706  0.2809 -1.0697
12764TIP3    H259708   3.487   4.153   5.223 -1.0950  1.0173  0.6233
12765TIP3   OH259709   0.380   2.294  12.918  0.3173 -0.7547  0.1208
12765TIP3    H159710   0.422   2.356  12.859  0.3992  0.8034  1.7563
12765TIP3    H259711   0.433   2.296  12.997 -0.9870 -1.1909  1.0394
12766TIP3   OH259712   4.004   4.682  11.179 -0.1113 -0.0212 -0.6612
12766TIP3    H159713   4.019   4.590  11.200  0.5099  0.3309  0.5138
12766TIP3    H259714   3.995   4.726  11.264  0.7428  1.1797 -1.1493
12767TIP3   OH259715   3.363   1.603  14.273 -0.4365 -0.1533 -0.6075
12767TIP3    H159716   3.347   1.613  14.367 -0.6309  1.8927 -0.8053
12767TIP3    H259717   3.322   1.519  14.250  0.1102 -0.9674  1.2128
12768TIP3   OH259718   2.862   2.729  12.944  0.5719 -0.6228  0.4177
12768TIP3    H159719   2.852   2.639  12.914  0.2548 -0.5928  0.4339
12768TIP3    H259720   2.778   2.771  12.923  0.3300 -0.6081  1.3828
12769TIP3   OH259721   0.997   5.513   3.479  0.1507 -0.1669 -0.2189
12769TIP3    H159722   1.005   5.454   3.554  2.6370  0.0174 -0.2631
12769TIP3    H259723   1.071   5.490   3.422 -0.1684  1.4413 -1.3406
12770TIP3   OH259724   2.754   3.551   3.253 -0.2935  0.2085  0.1262
12770TIP3    H159725   2.749   3.456   3.260 -2.5552 -0.0544 -2.8384
12770TIP3    H259726   2.848   3.570   3.252  0.2215 -1.9917  0.5869
12771TIP3   OH259727   3.867   3.374  15.326 -0.2493 -0.1461 -0.7201
12771TIP3    H159728   3.799   3.434  15.356 -2.6411 -3.6647  1.7208
12771TIP3    H259729   3.841   3.350  15.237 -1.6586 -0.6073 -0.2113
12772TIP3   OH259730   2.192   6.100  12.691  0.8868  0.3352  0.0514
12772TIP3    H159731   2.114   6.081  12.743  0.2969 -0.7425 -1.1740
12772TIP3    H259732   2.194   6.196  12.686 -2.6790  0.4869 -3.1298
12773TIP3   OH259733   3.603   0.298  12.222 -0.3320 -0.1124 -0.4713
12773TIP3    H159734   3.671   0.256  12.275 -0.0973  1.6606  0.7069
12773TIP3    H259735   3.546   0.226  12.196 -0.1893 -1.1420  1.8269
12774TIP3   OH259736   0.415   2.927  15.340 -0.1946 -0.0344 -0.0471
12774TIP3    H159737   0.350   2.954  15.275 -0.8850 -1.2400  0.1053
12774TIP3    H259738   0.433   3.006  15.391 -0.3404  0.7017 -1.1034
12775TIP3   OH259739   3.267   6.566   4.531  0.5402  0.2373  0.3867
12775TIP3    H159740   3.302   6.478   4.533 -0.3942 -0.3934 -3.2660
12775TIP3    H259741   3.311   6.608   4.457 -1.0963  1.8483  0.2475
12776TIP3   OH259742   2.791   1.953   5.268 -0.2598  0.1812 -0.4938
12776TIP3    H159743   2.710   2.006   5.268  1.1211  2.5892 -3.1432
12776TIP3    H259744   2.838   1.982   5.346 -1.9686 -1.5092  1.2939
12777TIP3   OH259745   3.385   2.898   5.702  0.3120 -0.6018 -0.4736
12777TIP3    H159746   3.389   2.951   5.782  0.9931 -1.9311  0.3982
12777TIP3    H259747   3.372   2.962   5.632 -0.4225  0.5863  0.6975
12778TIP3   OH259748   6.614   0.646  11.390 -0.0377 -0.0863  0.3712
12778TIP3    H159749   6.634   0.597  11.311 -0.1096  1.5380 -0.6973
12778TIP3    H259750   6.554   0.590  11.439  0.9564 -1.6380 -0.1246
12779TIP3   OH259751   5.972   3.197   1.235 -0.8504 -0.2376 -0.1351
12779TIP3    H159752   5.877   3.203   1.247 -0.6349  2.2450  0.9984
12779TIP3    H259753   5.992   3.260   1.165  0.0243 -0.0502  0.2589
12780TIP3   OH259754   4.333   1.780  11.981 -0.2592  0.0134  0.2621
12780TIP3    H159755   4.328   1.758  11.888 -1.3789  1.4070 -0.0415
12780TIP3    H259756   4.281   1.713  12.025  0.5997 -0.8843 -0.0424
12781TIP3   OH259757   2.320   5.327  12.978 -0.4899  0.3558 -0.3680
12781TIP3    H159758   2.234   5.336  13.018 -0.6512  1.1728 -0.8816
12781TIP3    H259759   2.372   5.398  13.015  0.2697 -0.7044  0.6724
12782TIP3   OH259760   6.113   0.005  11.905  0.0964  0.9512  0.3790
12782TIP3    H159761   6.197   0.048  11.890  0.5036  0.0174 -0.1032
12782TIP3    H259762   6.128  -0.086  11.880 -0.3374  0.1937  2.6998
12783TIP3   OH259763   0.085   4.551   2.869 -0.3176 -0.4731  0.4434
12783TIP3    H159764   0.169   4.556   2.915  0.7710 -1.2127 -1.3345
12783TIP3    H259765   0.074   4.459   2.848 -0.2887 -0.1016 -1.4895
12784TIP3   OH259766   0.405   3.712  16.928  0.4631 -0.3179  0.0540
12784TIP3    H159767   0.440   3.758  16.851 -1.0951 -0.4498 -0.7710
12784TIP3    H259768   0.327   3.762  16.952  0.4976 -0.7421  1.0785
12785TIP3   OH259769   6.025   1.837  11.419 -0.4584  0.1123 -0.0261
12785TIP3    H159770   6.051   1.922  11.454  1.8747 -0.5092 -0.1393
12785TIP3    H259771   5.948   1.857  11.365  1.5520  2.6650 -2.2577
12786TIP3   OH259772   2.221   0.998  14.031  0.0912  0.0021 -0.9475
12786TIP3    H159773   2.209   0.909  14.064 -1.6336 -0.0098 -1.4834
12786TIP3    H259774   2.285   1.037  14.090  0.0765 -1.2533 -0.0498
12787TIP3   OH259775   3.243   6.464  12.927  0.5780  0.2937 -0.1807
12787TIP3    H159776   3.228   6.411  12.848 -0.7556 -0.1438  0.3328
12787TIP3    H259777   3.229   6.554  12.898  1.0364  0.2181 -0.6539
12788TIP3   OH259778   0.667   5.984   0.138  0.0655  0.6035 -0.0361
12788TIP3    H159779   0.751   6.015   0.106  0.1640 -1.6184 -2.2711
12788TIP3    H259780   0.605   6.054   0.116  0.9714  1.2790 -0.4756
12789TIP3   OH259781   2.070   2.711  12.635 -0.0600  0.2883 -0.3076
12789TIP3    H159782   1.995   2.711  12.696  1.1760 -2.0206  1.3800
12789TIP3    H259783   2.050   2.641  12.573  1.5632 -1.9068  1.4882
12790TIP3   OH259784   0.868   3.304   0.700 -0.0139 -0.4679 -0.1959
12790TIP3    H159785   0.788   3.270   0.742  0.3553 -0.6892  0.3432
12790TIP3    H259786   0.898   3.232   0.645  0.4335 -0.8065  0.4783
12791TIP3   OH259787   1.326   2.054   4.896 -0.4435 -0.3747 -0.1290
12791TIP3    H159788   1.383   2.097   4.832 -0.2098  0.3571  0.5613
12791TIP3    H259789   1.342   1.960   4.882  0.9615 -0.1895  0.0649
12792TIP3   OH259790   2.194   6.677  12.800  0.5011  0.0490  0.4215
12792TIP3    H159791   2.102   6.702  12.801  0.0442 -1.4692  2.2167
12792TIP3    H259792   2.235   6.730  12.868  1.3977  1.9609 -1.4902
12793TIP3   OH259793   3.597   0.031  17.031 -0.1914  0.0161 -0.7498
12793TIP3    H159794   3.605  -0.049  16.978 -0.6367 -0.1728 -0.5354
12793TIP3    H259795   3.548   0.092  16.977 -2.3651 -0.8428  0.1585
12794TIP3   OH259796   6.178   0.320  12.440  0.3714 -0.2040  0.4907
12794TIP3    H159797   6.214   0.407  12.460 -1.9448  1.3102 -1.3916
12794TIP3    H259798   6.222   0.294  12.359 -0.9021  0.5485 -0.4801
12795TIP3   OH259799   2.817   4.189   4.955  0.0584  0.3131  0.0832
12795TIP3    H159800   2.772   4.131   4.894 -0.3408 -1.3272  1.8505
12795TIP3    H259801   2.751   4.210   5.021  1.6278 -1.8317  2.5219
12796TIP3   OH259802   3.840   2.869  14.099 -0.4274 -0.4906  0.6927
12796TIP3    H159803   3.902   2.940  14.117 -2.5100  1.4700  0.5896
12796TIP3    H259804   3.844   2.857  14.004  0.1443 -0.7194  0.7438
12797TIP3   OH259805   0.068   0.058   0.574  0.1825  0.4455 -0.4651
12797TIP3    H159806   0.139   0.115   0.605  0.0171  0.9956 -1.0495
12797TIP3    H259807   0.067   0.073   0.479  1.4064 -2.0035 -0.9296
12798TIP3   OH259808   3.722   6.403   1.291 -0.0413  0.3445 -0.1540
12798TIP3    H159809   3.695   6.320   1.330  2.6320 -0.9790 -0.8571
12798TIP3    H259810   3.816   6.393   1.278 -0.2097  1.9282 -3.9026
12799TIP3   OH259811   4.042   1.816   6.450 -0.5411 -0.3602 -0.2286
12799TIP3    H159812   4.040   1.720   6.456 -0.7383 -0.3873 -0.6255
12799TIP3    H259813   4.008   1.847   6.534 -0.2130 -0.6349  0.0058
12800TIP3   OH259814   1.436   6.312   3.161 -0.1616 -0.2356  0.6216
12800TIP3    H159815   1.477   6.392   3.194  1.5143 -1.0839  0.7333
12800TIP3    H259816   1.391   6.275   3.236  1.7705 -1.0130  1.4739
12801TIP3   OH259817   6.056   2.928  15.119  0.4123 -0.0700  0.0531
12801TIP3    H159818   6.142   2.946  15.079  0.5567 -0.5155  0.1667
12801TIP3    H259819   6.018   3.015  15.131  0.8758  0.1378  0.0617
12802TIP3   OH259820   6.518   1.739  13.907 -0.4369  0.0249  0.0889
12802TIP3    H159821   6.546   1.653  13.938  1.1639  1.1815  2.0236
12802TIP3    H259822   6.563   1.751  13.823  1.4514  0.0186  1.0597
12803TIP3   OH259823   5.287   4.998  16.878  0.0102 -0.0371 -0.3230
12803TIP3    H159824   5.332   4.926  16.921 -0.5360 -0.7578 -0.9423
12803TIP3    H259825   5.229   4.956  16.814  0.2144  0.9676 -1.2039
12804TIP3   OH259826   0.180   1.427  13.242  0.4184 -0.4786  0.1939
12804TIP3    H159827   0.155   1.411  13.151 -0.9788 -0.0373  0.4738
12804TIP3    H259828   0.136   1.509  13.265 -1.7365 -2.0447  2.1309
12805TIP3   OH259829   5.951   5.488   2.541 -0.4642  0.3214 -0.2887
12805TIP3    H159830   5.982   5.451   2.459  0.9471  0.1122  0.2992
12805TIP3    H259831   6.030   5.491   2.596 -1.3657  0.4999  1.0259
12806TIP3   OH259832   2.182   5.647   4.911 -0.1892 -0.3075  0.0136
12806TIP3    H159833   2.160   5.564   4.953  1.6182 -0.8849 -0.1183
12806TIP3    H259834   2.272   5.664   4.938 -0.7594  2.0348  0.6919
12807TIP3   OH259835   1.605   2.658   4.224 -0.2406 -0.1984 -0.1831
12807TIP3    H159836   1.678   2.600   4.202  0.9818  1.3912 -0.5544
12807TIP3    H259837   1.637   2.709   4.299 -0.7864  0.8365 -0.6395
12808TIP3   OH259838   0.892   0.024  14.722  0.8214  0.3467  0.5127
12808TIP3    H159839   0.926  -0.065  14.710 -3.3148 -1.2191 -1.4038
12808TIP3    H259840   0.917   0.071  14.643  0.8118  0.0465  0.3304
12809TIP3   OH259841   3.401   6.320   4.534 -0.2651  0.3785  0.6196
12809TIP3    H159842   3.452   6.313   4.454 -0.2962  0.1968  0.6147
12809TIP3    H259843   3.353   6.237   4.539  0.0787  0.2009  1.0609
12810TIP3   OH259844   0.931   4.260   1.491 -0.7780 -0.1253  0.4536
12810TIP3    H159845   1.023   4.236   1.476 -1.6384 -1.8342 -3.5264
12810TIP3    H259846   0.933   4.355   1.505  1.6267 -0.2356  1.2809
12811TIP3   OH259847   1.717   5.420  14.508  0.7665 -0.2490  0.5194
12811TIP3    H159848   1.694   5.335  14.546  1.3500 -0.0783  1.2806
12811TIP3    H259849   1.812   5.414  14.494  0.6913  0.0074 -0.1261
12812TIP3   OH259850   1.609   0.874  11.093  0.4281  0.2532 -0.3962
12812TIP3    H159851   1.698   0.839  11.089  0.1082 -0.5228 -0.7702
12812TIP3    H259852   1.568   0.845  11.012 -1.1500 -2.0465  1.1345
12813TIP3   OH259853   5.750   5.244   5.247 -0.6250 -0.0257 -0.4671
12813TIP3    H159854   5.841   5.225   5.226 -1.2105 -3.0331 -0.7347
12813TIP3    H259855   5.742   5.225   5.341 -0.5534  2.3647  0.0829
12814TIP3   OH259856   6.589   4.814   5.928 -0.1656 -0.7760 -0.0200
12814TIP3    H159857   6.605   4.728   5.967  2.4854  0.2164  1.3119
12814TIP3    H259858   6.668   4.864   5.947 -1.4579  1.8561 -1.1067
12815TIP3   OH259859   6.581   5.376   3.677  0.1038  0.0422 -0.6453
12815TIP3    H159860   6.515   5.446   3.680 -1.7725 -1.6455 -0.0216
12815TIP3    H259861   6.663   5.419   3.699 -1.0006  2.0271 -0.1751
12816TIP3   OH259862   4.059   3.613   5.441  0.1434 -0.1837 -0.2952
12816TIP3    H159863   4.103   3.528   5.436  1.2540  0.1827  1.9685
12816TIP3    H259864   4.000   3.614   5.366  0.9605 -2.4530 -1.0490
12817TIP3   OH259865   6.540   0.030   5.800 -0.3363 -0.0661  0.1093
12817TIP3    H159866   6.530  -0.032   5.872  0.1116  1.5519  1.6532
12817TIP3    H259867   6.462   0.086   5.806 -0.2079  0.1925 -0.5473
12818TIP3   OH259868   2.874   3.762  12.397 -0.0911 -0.4397 -0.2088
12818TIP3    H159869   2.899   3.670  12.408  0.5283 -0.5264 -1.9907
12818TIP3    H259870   2.899   3.804  12.479 -0.9351 -1.9554  0.8805
12819TIP3   OH259871   4.462   5.492  17.085  0.3112  0.0910 -0.5522
12819TIP3    H159872   4.395   5.447  17.034 -0.2685  1.3046 -0.9037
12819TIP3    H259873   4.484   5.570  17.033  2.9760 -0.9161 -1.0976
12820TIP3   OH259874   3.670   1.179   2.850 -0.3775 -0.1470  0.7814
12820TIP3    H159875   3.576   1.194   2.853 -0.7035 -1.4090 -1.0754
12820TIP3    H259876   3.689   1.169   2.757  1.4248 -0.8905  1.1922
12821TIP3   OH259877   5.987   0.477   0.274  0.1220 -0.3608 -0.3954
12821TIP3    H159878   6.057   0.446   0.217  1.1091 -0.1689  0.6793
12821TIP3    H259879   5.954   0.399   0.316 -0.9565 -0.5722 -1.5599
12822TIP3   OH259880   5.862   2.770  15.233  0.2490 -0.3169  0.9720
12822TIP3    H159881   5.842   2.831  15.303 -2.2450  0.5376 -0.3497
12822TIP3    H259882   5.937   2.808  15.187  1.0048 -0.1690  2.2997
12823TIP3   OH259883   3.566   4.254  17.079 -0.5945  0.0545 -0.0314
12823TIP3    H159884   3.520   4.229  17.159 -0.5133 -0.7274 -0.2226
12823TIP3    H259885   3.653   4.281  17.109 -1.3891  2.2771  0.4188
12824TIP3   OH259886   3.419   2.103   0.007 -0.1411  0.1688  0.5017
12824TIP3    H159887   3.474   2.159   0.061  1.8715 -0.2733 -0.9849
12824TIP3    H259888   3.389   2.160  -0.064 -1.2110  0.2683  1.0113
12825TIP3   OH259889   5.788   2.395  10.585 -0.1644 -0.2821  1.2379
12825TIP3    H159890   5.713   2.441  10.546  0.8886  0.3439 -0.1091
12825TIP3    H259891   5.865   2.436  10.545  0.8681 -1.8690  1.5286
12826TIP3   OH259892   6.200   0.555   1.351 -0.1139 -0.2758  0.6032
12826TIP3    H159893   6.179   0.641   1.316  1.6080 -0.2233 -0.4311
12826TIP3    H259894   6.291   0.563   1.382  0.4151 -1.9346 -0.3719
12827TIP3   OH259895   4.963   3.080  16.299  0.0312 -0.7180  0.5148
12827TIP3    H159896   4.973   3.119  16.386  0.7840  0.8600 -0.2324
12827TIP3    H259897   4.916   3.145  16.249  1.3871 -0.7014 -0.8085
12828TIP3   OH259898   1.198   3.096  13.325  0.0340  0.1316 -0.8365
12828TIP3    H159899   1.188   3.065  13.415 -0.6553 -0.1688 -1.0058
12828TIP3    H259900   1.214   3.190  13.334  0.9030 -0.0480 -0.3668
12829TIP3   OH259901   1.911   5.183  16.232 -0.1430 -0.0149  0.0495
12829TIP3    H159902   1.973   5.111  16.246  0.7172  0.7639  0.2872
12829TIP3    H259903   1.939   5.224  16.151 -0.2219  0.4779  0.2706
12830TIP3   OH259904   3.965   4.990   5.966 -0.2491  0.1691 -0.4169
12830TIP3    H159905   3.884   4.965   5.921 -1.3873  0.1740  1.5259
12830TIP3    H259906   4.034   4.947   5.915 -1.7230 -2.6025 -0.3093
12831TIP3   OH259907   5.726   2.516   1.893 -0.6773  0.1776  0.4849
12831TIP3    H159908   5.761   2.439   1.937  1.9323  0.3414 -1.0674
12831TIP3    H259909   5.684   2.481   1.814 -2.3937  0.1614  1.3472
12832TIP3   OH259910   5.643   6.496  11.429  0.1207 -0.7729 -0.6947
12832TIP3    H159911   5.721   6.460  11.386 -0.0390 -0.4282 -1.2796
12832TIP3    H259912   5.598   6.546  11.360 -1.4924 -2.2889 -0.8099
12833TIP3   OH259913   0.734   5.109  11.514  0.5106  0.2154 -0.3578
12833TIP3    H159914   0.674   5.062  11.456  0.0528  1.4049 -0.8806
12833TIP3    H259915   0.684   5.186  11.542  1.7498  1.1642 -0.7129
12834TIP3   OH259916   5.686   5.332   1.096 -0.5111  0.4940  0.0936
12834TIP3    H159917   5.643   5.396   1.152  1.1962 -0.3230  2.4837
12834TIP3    H259918   5.774   5.368   1.082 -1.2619  1.3741 -3.3871
12835TIP3   OH259919   5.793   0.135  14.159  0.3632  0.2843  0.1596
12835TIP3    H159920   5.753   0.208  14.206  2.3655  0.2606  2.0664
12835TIP3    H259921   5.790   0.062  14.221  0.9072 -0.4530 -0.6602
12836TIP3   OH259922   6.372   5.867   2.345  0.0663 -0.2784 -0.7245
12836TIP3    H159923   6.456   5.862   2.391 -0.3975  1.4662  0.4171
12836TIP3    H259924   6.394   5.892   2.256  0.7576  0.3810 -0.3796
12837TIP3   OH259925   4.980   2.555   1.176 -0.2129 -0.5097 -0.1554
12837TIP3    H159926   5.005   2.560   1.268  1.3038 -0.0150 -0.5750
12837TIP3    H259927   5.008   2.468   1.148 -1.0720 -0.8278 -0.0471
12838TIP3   OH259928   2.097   1.626   3.007  0.0950  0.5182  0.2833
12838TIP3    H159929   2.013   1.581   3.002 -0.0567  0.8106  0.1966
12838TIP3    H259930   2.134   1.617   2.919 -0.2744  1.2131  0.0497
12839TIP3   OH259931   0.101   2.264   1.134 -0.3289 -0.3698  0.1697
12839TIP3    H159932   0.130   2.352   1.112 -2.6108  0.5433  0.4799
12839TIP3    H259933   0.147   2.244   1.216  0.7322  0.2328 -0.2575
12840TIP3   OH259934   3.861   6.789  13.449 -0.2826  0.0870  0.3516
12840TIP3    H159935   3.944   6.746  13.471  0.2997  1.1702  0.3140
12840TIP3    H259936   3.800   6.759  13.516  0.4316  0.1682  1.0522
12841TIP3   OH259937   6.395   3.396   5.849  0.6851 -0.2693 -0.1936
12841TIP3    H159938   6.402   3.492   5.848  1.3205 -0.1914  2.5961
12841TIP3    H259939   6.477   3.366   5.888  0.6586 -2.0114 -1.3796
12842TIP3   OH259940   3.403   4.841   3.348 -0.0899 -0.2743 -0.3224
12842TIP3    H159941   3.393   4.918   3.292 -2.0997 -0.5330 -0.4116
12842TIP3    H259942   3.476   4.863   3.406  0.8702  0.7272 -1.8426
12843TIP3   OH259943   6.613   1.876   3.638  0.0509 -0.5450 -0.3091
12843TIP3    H159944   6.618   1.823   3.559 -0.5561 -1.0645 -0.0064
12843TIP3    H259945   6.551   1.830   3.695 -0.0494  0.1830  0.1939
12844TIP3   OH259946   4.975   0.742   1.306  0.0467  0.8423  0.3339
12844TIP3    H159947   4.904   0.691   1.266 -0.7581  1.0469  1.4403
12844TIP3    H259948   5.046   0.679   1.317 -0.2276  0.4467 -0.1141
12845TIP3   OH259949   3.612   1.259  17.038  0.0924  0.6942  0.0625
12845TIP3    H159950   3.687   1.219  17.082  0.4436  2.7092  1.4163
12845TIP3    H259951   3.620   1.231  16.947  0.9681 -1.2801  0.6932
12846TIP3   OH259952   2.441   5.584   2.445  0.6666  0.7008 -1.1258
12846TIP3    H159953   2.421   5.640   2.370  2.1564  1.5336 -0.9303
12846TIP3    H259954   2.356   5.547   2.470 -0.4465  3.0865 -1.0872
12847TIP3   OH259955   2.228   4.376  15.664  0.4548  0.4764  0.1244
12847TIP3    H159956   2.171   4.319  15.612 -0.0424 -0.1476  1.3158
12847TIP3    H259957   2.309   4.381  15.614 -1.1043  2.6687 -2.4277
12848TIP3   OH259958   2.889   1.142   0.739 -0.1055 -0.1960 -0.4130
12848TIP3    H159959   2.940   1.158   0.660 -1.0700  2.0103 -0.6455
12848TIP3    H259960   2.876   1.228   0.778 -1.5360 -0.9715  0.9656
12849TIP3   OH259961   3.770   3.043  12.488  0.2091 -0.0033 -0.1526
12849TIP3    H159962   3.735   3.028  12.575 -0.4667 -2.1591 -0.7509
12849TIP3    H259963   3.840   2.979  12.478  1.1868  1.1080 -0.7255
12850TIP3   OH259964   3.598   5.894  15.930  0.3023  0.4007 -0.0753
12850TIP3    H159965   3.609   5.910  15.837  0.1439 -0.7167 -0.2988
12850TIP3    H259966   3.677   5.845  15.956  0.9520  1.7726  0.6616
12851TIP3   OH259967   6.693   4.991  11.117  0.5665 -0.5454 -0.1567
12851TIP3    H159968   6.624   5.033  11.066 -0.1776 -0.8637  0.5617
12851TIP3    H259969   6.690   4.899  11.091  0.1886 -0.7070  0.4538
12852TIP3   OH259970   4.395   0.895   4.955 -0.2796  0.7048  0.6072
12852TIP3    H159971   4.388   0.825   4.891  2.7448 -0.1491  1.0421
12852TIP3    H259972   4.314   0.945   4.946 -1.5407 -1.5054 -1.2828
12853TIP3   OH259973   5.704   6.221   6.183 -0.5265  0.6003  0.0741
12853TIP3    H159974   5.706   6.301   6.130 -1.8530  0.2684 -0.5206
12853TIP3    H259975   5.630   6.234   6.243  0.6375  0.7477  1.5287
12854TIP3   OH259976   5.185   0.581  16.616  0.1376 -0.0518 -0.3385
12854TIP3    H159977   5.273   0.613  16.633 -0.4390  0.0141  3.2987
12854TIP3    H259978   5.135   0.659  16.591  0.4629  0.5221  0.7460
12855TIP3   OH259979   5.268   5.903  12.566 -0.2689 -0.3210 -0.9951
12855TIP3    H159980   5.363   5.913  12.559  0.0174  0.1016  2.2153
12855TIP3    H259981   5.234   5.991  12.551  0.2520  0.4336  1.6598
12856TIP3   OH259982   3.596   0.046   6.015  0.0590  0.2954  0.7821
12856TIP3    H159983   3.527  -0.019   6.004  0.0429  0.5306 -0.6239
12856TIP3    H259984   3.558   0.110   6.076 -0.0038 -0.8632  2.0040
12857TIP3   OH259985   4.619   6.542   1.947 -0.7148  0.2276  0.2972
12857TIP3    H159986   4.692   6.510   1.895 -1.0903 -1.0677  0.5204
12857TIP3    H259987   4.656   6.614   1.999  0.3581 -0.2948  0.2881
12858TIP3   OH259988   4.972   4.482   3.846  0.4713  0.1842 -0.0015
12858TIP3    H159989   5.008   4.425   3.778  0.7653  0.5991 -0.1966
12858TIP3    H259990   4.914   4.542   3.799  2.3287  1.8902 -0.2282
12859TIP3   OH259991   0.528   4.409   6.401 -0.1554  0.4650  0.8802
12859TIP3    H159992   0.572   4.460   6.469  2.4271 -0.7502  0.2263
12859TIP3    H259993   0.580   4.330   6.392 -1.6307 -0.3777 -1.0587
12860TIP3   OH259994   1.060   3.389   2.850  0.3511 -0.3776 -0.1419
12860TIP3    H159995   1.103   3.328   2.790 -3.2608 -1.4063 -1.9884
12860TIP3    H259996   1.007   3.445   2.793  1.1300  2.5177  1.7654
12861TIP3   OH259997   5.488   3.159   3.455  0.4237 -0.2588 -0.1361
12861TIP3    H159998   5.519   3.211   3.529  1.3027 -0.7383 -0.1511
12861TIP3    H259999   5.486   3.221   3.382 -0.8840  0.3260  0.3587
12862TIP3   OH260000   6.703   5.957  13.003 -0.0335  0.2049 -0.2873
12862TIP3    H160001   6.635   5.998  13.056  0.0452  0.3555 -0.3013
12862TIP3    H260002   6.773   6.023  12.999 -0.5621  0.7165 -1.6752
12863TIP3   OH260003   0.959   3.207  12.716 -0.5901  0.2521  0.0342
12863TIP3    H160004   1.000   3.244  12.794  1.0914  0.2980 -0.8122
12863TIP3    H260005   0.930   3.284  12.666 -1.6292  0.2241  0.5910
12864TIP3   OH260006   2.210   4.786   2.946  0.1971 -0.5131  0.6165
12864TIP3    H160007   2.209   4.690   2.944 -0.0914 -0.5079  0.5878
12864TIP3    H260008   2.259   4.807   3.025  1.5497 -0.6839 -0.1296
12865TIP3   OH260009   0.815   6.110   5.473  0.0882 -0.4542  0.1894
12865TIP3    H160010   0.814   6.134   5.381  0.1316 -0.7331  0.1133
12865TIP3    H260011   0.767   6.027   5.477  0.8365 -0.8910  0.2837
12866TIP3   OH260012   6.768   4.725   0.115 -0.1192 -0.1803  0.7319
12866TIP3    H160013   6.764   4.647   0.060 -2.3065  0.5281 -0.2315
12866TIP3    H260014   6.751   4.692   0.204 -2.4815 -0.7347  0.1571
12867TIP3   OH260015   0.360   5.132   1.191  0.5892 -0.4071 -0.1734
12867TIP3    H160016   0.420   5.161   1.260  1.2000 -0.7734 -0.5415
12867TIP3    H260017   0.381   5.039   1.179 -1.1844 -0.9968  0.8468
12868TIP3   OH260018   1.024   0.092  10.963  0.7117  0.2904 -0.8730
12868TIP3    H160019   0.987   0.076  11.050  0.3601 -0.2228 -1.1072
12868TIP3    H260020   0.965   0.156  10.924  1.0728  0.7888 -0.6045
12869TIP3   OH260021   2.816   5.066  11.850 -0.1680  0.1259  0.4967
12869TIP3    H160022   2.838   5.061  11.943  1.0162 -1.6519  0.1757
12869TIP3    H260023   2.727   5.031  11.844 -0.5075  0.8806  1.0150
12870TIP3   OH260024   3.242   5.312  15.962  0.6511  0.0400  0.1565
12870TIP3    H160025   3.259   5.378  16.030  0.7644  0.2426 -0.0697
12870TIP3    H260026   3.148   5.319  15.946  0.1820 -1.5275  1.8736
12871TIP3   OH260027   6.238   1.496   2.847 -0.1483 -0.1011 -0.2645
12871TIP3    H160028   6.157   1.513   2.798  0.2902 -2.1723 -1.8677
12871TIP3    H260029   6.211   1.494   2.939 -1.7387  0.1341 -0.7018
12872TIP3   OH260030   6.052   3.878   0.736 -0.3200 -0.8093 -0.3852
12872TIP3    H160031   6.106   3.839   0.667 -0.5116  0.8457 -1.5052
12872TIP3    H260032   6.110   3.879   0.813  1.0269  0.2427 -1.3628
12873TIP3   OH260033   0.970   2.016   3.053 -0.6809 -0.1674  0.1878
12873TIP3    H160034   0.978   2.109   3.031  0.3298 -0.4772 -0.8606
12873TIP3    H260035   1.060   1.985   3.059 -1.0146 -1.1629  0.1781
12874TIP3   OH260036   5.758   1.266   5.269 -0.4221  0.1028  0.0404
12874TIP3    H160037   5.741   1.299   5.357  0.2206  1.2968 -0.2527
12874TIP3    H260038   5.697   1.314   5.213  0.4014  0.7137 -0.3726
12875TIP3   OH260039   3.714   3.264  15.597 -0.2704 -0.3012 -0.2380
12875TIP3    H160040   3.735   3.250  15.504  0.8787 -0.2725  0.0015
12875TIP3    H260041   3.675   3.351  15.600 -0.5414 -0.4001 -0.7233
12876TIP3   OH260042   5.298   6.701  14.576  0.0970 -0.1398 -0.1553
12876TIP3    H160043   5.378   6.649  14.581  0.2228  0.1708  1.9805
12876TIP3    H260044   5.277   6.723  14.667 -2.6401 -0.5351 -0.5991
12877TIP3   OH260045   1.878   2.553   3.451 -0.7982  0.4849  0.2839
12877TIP3    H160046   1.869   2.647   3.460 -0.9201  0.3966  1.1907
12877TIP3    H260047   1.948   2.541   3.386 -1.3766  1.1850 -0.4845
12878TIP3   OH260048   0.039   6.013   2.281  0.1190  0.6723  0.6478
12878TIP3    H160049   0.127   6.043   2.260  0.9116 -0.6921  1.8360
12878TIP3    H260050   0.039   6.005   2.377 -1.0786  0.0123  0.6049
12879TIP3   OH260051   4.927   3.814  11.091 -0.4064  0.4709 -0.2564
12879TIP3    H160052   4.900   3.872  11.020 -0.5518 -0.5631 -1.0786
12879TIP3    H260053   4.919   3.726  11.054 -1.0912 -0.1350  1.2626
12880TIP3   OH260054   5.755   4.365  12.402 -1.0645 -0.1831  0.1341
12880TIP3    H160055   5.814   4.436  12.377 -1.5712  0.4091  0.5716
12880TIP3    H260056   5.671   4.409  12.416 -1.5298 -0.9622 -0.1636
12881TIP3   OH260057   0.522   0.911   1.204  0.0810 -0.7310 -0.4222
12881TIP3    H160058   0.568   0.832   1.176 -0.8248 -1.5976  0.4185
12881TIP3    H260059   0.556   0.927   1.293 -0.6565 -0.9305 -0.0985
12882TIP3   OH260060   5.303   2.555  13.321 -0.8242  0.0801 -0.3578
12882TIP3    H160061   5.277   2.617  13.253 -1.0443  0.1061 -0.2500
12882TIP3    H260062   5.258   2.474  13.299  0.9464 -0.6343 -1.5938
12883TIP3   OH260063   4.500   2.730   2.878 -0.4953  0.8243 -0.0767
12883TIP3    H160064   4.449   2.735   2.959  0.3942 -2.7102  0.8729
12883TIP3    H260065   4.443   2.682   2.818  1.2319 -2.5934  0.7857
12884TIP3   OH260066   2.560   0.138   4.548 -0.0095  0.1302  0.1711
12884TIP3    H160067   2.590   0.051   4.576 -1.8011 -0.2026  1.2127
12884TIP3    H260068   2.504   0.120   4.472 -2.6207 -0.0168  2.0018
12885TIP3   OH260069   4.613   2.865  14.742 -0.0973 -0.2213 -0.2645
12885TIP3    H160070   4.524   2.884  14.771  0.4764  0.1922  1.3562
12885TIP3    H260071   4.667   2.929  14.787  1.0407 -0.5373 -1.1311
12886TIP3   OH260072   0.487   0.423  11.774 -0.0132 -0.0254 -0.6727
12886TIP3    H160073   0.481   0.332  11.804  2.2395  0.2590  0.9507
12886TIP3    H260074   0.402   0.460  11.795 -0.8864 -1.6650 -1.1111
12887TIP3   OH260075   3.991   5.364  12.505 -0.5658  0.3162 -0.6505
12887TIP3    H160076   3.923   5.350  12.440  0.0946  0.7987 -1.4601
12887TIP3    H260077   4.021   5.453  12.490  0.5881 -0.0582 -0.6340
12888TIP3   OH260078   6.115   2.343  12.731 -0.4454 -0.5570 -0.0932
12888TIP3    H160079   6.145   2.372  12.817 -0.5777  1.2302 -0.6112
12888TIP3    H260080   6.056   2.270  12.749  1.4266 -1.8428  1.1573
12889TIP3   OH260081   5.507   1.053   5.011  0.1553  0.3369 -0.1302
12889TIP3    H160082   5.589   1.090   4.980  0.0226  0.7446 -0.0042
12889TIP3    H260083   5.483   1.108   5.085  1.7321 -2.0492  2.3560
12890TIP3   OH260084   6.175   6.374   4.694  0.2382 -0.2406 -0.3051
12890TIP3    H160085   6.267   6.399   4.686  0.1356  0.0394 -0.6284
12890TIP3    H260086   6.177   6.285   4.730  0.5844  0.8883  2.8331
12891TIP3   OH260087   3.401   5.824  13.896  0.1166  0.3200 -0.5920
12891TIP3    H160088   3.372   5.882  13.966 -0.2049  0.6773 -1.0104
12891TIP3    H260089   3.320   5.803  13.849  0.1685 -0.7938 -0.2091
12892TIP3   OH260090   3.869   5.530  11.673 -0.1795  0.9277 -0.0704
12892TIP3    H160091   3.928   5.568  11.607  0.6012  1.8187  1.0979
12892TIP3    H260092   3.781   5.554  11.644  0.0769  0.4108 -1.3303
12893TIP3   OH260093   6.355   1.083  11.415 -0.1727 -0.3483  0.1601
12893TIP3    H160094   6.289   1.051  11.477 -0.2890 -0.7742 -0.1836
12893TIP3    H260095   6.437   1.043  11.443 -0.2168 -0.5035  0.0671
12894TIP3   OH260096   3.976   4.055   5.831  0.4713 -0.1516 -0.2971
12894TIP3    H160097   4.028   4.118   5.781  0.8244 -0.3412 -0.1754
12894TIP3    H260098   3.929   4.004   5.765  0.1591  0.2566 -0.3942
12895TIP3   OH260099   3.744   5.305  12.393 -0.5554  0.2333 -0.3973
12895TIP3    H160100   3.693   5.235  12.354 -1.5278  1.0537 -0.6255
12895TIP3    H260101   3.723   5.301  12.486 -1.2252  0.6992 -0.5180
12896TIP3   OH260102   2.159   5.625  13.397  0.0599  0.3258 -0.0986
12896TIP3    H160103   2.143   5.554  13.458 -0.6383 -0.6398 -1.3553
12896TIP3    H260104   2.087   5.619  13.334 -0.3666  2.5162  0.0782
12897TIP3   OH260105   5.028   2.255  10.991 -0.1549 -0.2071 -0.3200
12897TIP3    H160106   4.973   2.198  10.937  0.0080 -0.0520 -0.6552
12897TIP3    H260107   5.043   2.205  11.071  0.5437 -0.9237 -0.8834
12898TIP3   OH260108   2.231   2.847   5.488  0.1585  0.3970 -1.0022
12898TIP3    H160109   2.308   2.885   5.446  0.8485  1.2191  0.9349
12898TIP3    H260110   2.260   2.761   5.518  0.3349  0.7011 -0.2844
12899TIP3   OH260111   0.709   5.041  17.076 -0.4820 -0.4965  0.5413
12899TIP3    H160112   0.632   5.072  17.123 -1.6185 -0.8878 -0.9997
12899TIP3    H260113   0.777   5.105  17.098 -1.8010  1.0550  0.2860
12900TIP3   OH260114   2.149   2.982   3.344  0.2202 -0.1952  0.2359
12900TIP3    H160115   2.178   3.072   3.358  1.6425 -0.6462  0.2730
12900TIP3    H260116   2.209   2.947   3.278 -0.2817 -1.1437  0.2559
12901TIP3   OH260117   1.038   2.503  12.430  0.6363  0.3784  0.2395
12901TIP3    H160118   1.112   2.449  12.401 -0.2214  0.5053 -2.3747
12901TIP3    H260119   0.977   2.440  12.470  1.2121 -0.0357  0.4794
12902TIP3   OH260120   3.819   0.102  11.876  0.0044 -0.2733  0.0603
12902TIP3    H160121   3.788   0.191  11.889 -0.4506 -0.2668 -0.9184
12902TIP3    H260122   3.758   0.065  11.811  0.5765 -1.0745 -0.0365
12903TIP3   OH260123   4.528   6.142   5.289  0.4759 -0.2948 -0.0003
12903TIP3    H160124   4.465   6.176   5.225  1.7257 -0.1913 -1.2234
12903TIP3    H260125   4.572   6.219   5.323  2.0519 -0.5055 -1.4388
12904TIP3   OH260126   3.305   3.972  11.660  0.2593  0.3686 -0.2344
12904TIP3    H160127   3.303   4.028  11.737  0.5745  0.1855 -0.0901
12904TIP3    H260128   3.269   3.888  11.691  1.9670 -0.2507  0.1716
12905TIP3   OH260129   1.574   1.467   0.373 -0.0234 -0.4110 -0.6324
12905TIP3    H160130   1.570   1.475   0.278  1.4010  1.9281 -0.5681
12905TIP3    H260131   1.483   1.478   0.401 -0.0353  3.0115 -1.5779
12906TIP3   OH260132   5.751   4.593   3.490 -0.0498  0.4340 -0.3200
12906TIP3    H160133   5.783   4.587   3.580  1.0412  0.8469 -0.6626
12906TIP3    H260134   5.713   4.507   3.473  0.7102 -0.0178  0.1850
12907TIP3   OH260135   2.181   5.120  12.409 -0.6294 -0.1343 -0.2250
12907TIP3    H160136   2.095   5.120  12.449 -0.2925  0.1428  0.5240
12907TIP3    H260137   2.242   5.133  12.482 -0.1064  2.7071 -1.0030
12908TIP3   OH260138   0.418   2.479  12.083 -0.0805  0.3595  0.0283
12908TIP3    H160139   0.441   2.500  11.992 -0.0867 -1.1217 -0.3424
12908TIP3    H260140   0.501   2.485  12.130  0.0303  0.5590 -0.1870
12909TIP3   OH260141   1.500   1.336  15.682 -0.2611  0.2552  0.5125
12909TIP3    H160142   1.420   1.303  15.721  0.4337 -1.6433  0.4457
12909TIP3    H260143   1.528   1.267  15.622  1.0094  1.2118 -0.0522
12910TIP3   OH260144   1.031   4.338  15.096  0.0218 -0.3880 -0.1111
12910TIP3    H160145   0.959   4.386  15.138 -0.6103 -0.3787 -1.1627
12910TIP3    H260146   1.062   4.397  15.027  0.5984 -0.6677 -0.0971
12911TIP3   OH260147   4.552   4.539   4.029 -0.0372  0.1247 -0.0095
12911TIP3    H160148   4.525   4.476   3.963 -0.6416  0.5885 -0.2108
12911TIP3    H260149   4.507   4.511   4.109  0.1960 -0.0685  0.0542
12912TIP3   OH260150   4.345   4.941   4.098  0.4055 -0.2894  0.1199
12912TIP3    H160151   4.422   4.955   4.042  1.1991  0.2471  1.3194
12912TIP3    H260152   4.366   4.863   4.149 -0.4071 -0.8960 -0.4339
12913TIP3   OH260153   1.197   2.243  16.670  0.5934  0.4401 -0.4602
12913TIP3    H160154   1.135   2.179  16.637  0.1738  0.2425  0.6819
12913TIP3    H260155   1.277   2.193  16.689 -0.6318 -0.4355  3.2400
12914TIP3   OH260156   1.444   2.496  12.223  0.3223  0.4981  0.0331
12914TIP3    H160157   1.368   2.546  12.194 -1.4682 -0.6126  2.4121
12914TIP3    H260158   1.494   2.480  12.143 -0.9311  2.8637 -1.3518
12915TIP3   OH260159   1.763   4.889  10.911  0.0400 -0.7620  0.7864
12915TIP3    H160160   1.821   4.945  10.962  0.6795 -2.3456  1.8646
12915TIP3    H260161   1.731   4.946  10.840  2.5895  0.2627  0.3665
12916TIP3   OH260162   0.334   0.705   2.201  0.0053 -0.1470  0.5189
12916TIP3    H160163   0.321   0.642   2.130 -2.2836  1.2622 -0.4397
12916TIP3    H260164   0.387   0.774   2.160 -0.4354  0.1729  0.4814
12917TIP3   OH260165   1.035   4.049   0.205  0.0302  0.7654 -0.3811
12917TIP3    H160166   1.085   3.975   0.173  0.2803  0.0807  1.4611
12917TIP3    H260167   1.098   4.101   0.256 -0.7870  0.5961  0.8578
12918TIP3   OH260168   5.277   2.043  15.249 -0.1809  0.7606  0.5745
12918TIP3    H160169   5.254   2.019  15.159  1.8484  2.2156 -0.4214
12918TIP3    H260170   5.251   1.968  15.302  0.1181 -0.8525 -1.4580
12919TIP3   OH260171   0.044   0.832  13.987  0.3184 -0.0991 -0.1406
12919TIP3    H160172   0.032   0.927  13.991 -0.7895 -0.2729  1.3567
12919TIP3    H260173  -0.043   0.796  14.003  0.5473 -1.3849 -1.5949
12920TIP3   OH260174   6.109   1.760  16.651 -0.0927 -0.3664 -0.3137
12920TIP3    H160175   6.057   1.829  16.610  0.2620 -0.2304 -0.5388
12920TIP3    H260176   6.044   1.698  16.684 -0.4256  0.2338  0.1758
12921TIP3   OH260177   3.307   3.148  12.897 -0.1238 -0.4909  0.4470
12921TIP3    H160178   3.317   3.109  12.810 -1.2808 -0.8129  0.4437
12921TIP3    H260179   3.234   3.210  12.887  0.6956  0.5716  0.8332
12922TIP3   OH260180   0.813   5.769  13.042 -0.8473 -0.3536 -0.2693
12922TIP3    H160181   0.740   5.739  12.988 -0.5625  1.6198 -1.8533
12922TIP3    H260182   0.892   5.741  12.996 -0.5635 -1.5944  0.9128
12923TIP3   OH260183   1.578   4.553  14.330  0.5663 -0.1459 -0.0981
12923TIP3    H160184   1.611   4.602  14.405  0.3229 -1.1221  0.6573
12923TIP3    H260185   1.613   4.600  14.254  1.2339  0.5603  0.6286
12924TIP3   OH260186   1.382   0.330  11.929  0.0141 -0.1640  0.1445
12924TIP3    H160187   1.398   0.238  11.946 -0.2466 -0.0018  1.3592
12924TIP3    H260188   1.287   0.338  11.925  0.0528 -0.1353 -1.1704
12925TIP3   OH260189   6.286   4.916   2.158 -0.5795 -0.4225  0.2814
12925TIP3    H160190   6.329   4.978   2.217 -0.6816 -1.7389  1.7937
12925TIP3    H260191   6.356   4.856   2.132 -0.3926  0.4911 -1.4852
12926TIP3   OH260192   4.696   6.115   1.686  0.2158  0.6870 -0.1259
12926TIP3    H160193   4.784   6.112   1.725  0.9444 -0.1427 -1.7260
12926TIP3    H260194   4.690   6.034   1.635 -1.5514  0.6779  0.0444
12927TIP3   OH260195   0.976   4.885   2.956 -0.7777  0.2272  0.0146
12927TIP3    H160196   1.011   4.972   2.971 -1.9349  0.6646  0.2973
12927TIP3    H260197   1.034   4.827   3.005 -1.2600  1.0755  1.6678
12928TIP3   OH260198   5.046   3.037   1.026 -0.0347  0.4250 -0.2555
12928TIP3    H160199   5.085   3.031   1.113 -4.0252 -0.6795  1.6454
12928TIP3    H260200   5.011   2.950   1.009 -1.6569  1.3164 -1.7677
12929TIP3   OH260201   0.204   5.611   4.969  0.0479 -0.7285 -0.0407
12929TIP3    H160202   0.273   5.560   4.926  1.1578 -0.8368  1.7502
12929TIP3    H260203   0.252   5.675   5.023 -1.2919  1.1337 -0.9318
12930TIP3   OH260204   1.098   3.686   0.571  0.2035 -0.4444 -0.1471
12930TIP3    H160205   1.086   3.624   0.643 -0.2026  1.0989  1.1675
12930TIP3    H260206   1.193   3.692   0.561  0.2529 -1.6049 -0.6298
12931TIP3   OH260207   0.461   3.504  11.700  0.0448 -0.1313 -0.3920
12931TIP3    H160208   0.470   3.521  11.794 -0.8871  0.2117 -0.3594
12931TIP3    H260209   0.367   3.495  11.686  0.2804 -2.1654 -0.9638
12932TIP3   OH260210   0.028   2.988  12.532  0.9823 -0.2252  0.0306
12932TIP3    H160211  -0.046   2.939  12.565  1.5494 -1.3362 -0.2941
12932TIP3    H260212   0.097   2.974  12.597  1.4509 -0.6802 -0.5587
12933TIP3   OH260213   3.519   5.067  14.996 -0.1102  0.2309 -0.1019
12933TIP3    H160214   3.434   5.038  14.962 -0.7303 -0.2046  1.6661
12933TIP3    H260215   3.497   5.113  15.077  1.3088  0.6600  0.0609
12934TIP3   OH260216   2.912   5.864  13.343  0.3630 -0.2158  0.3252
12934TIP3    H160217   3.002   5.834  13.348 -0.0669 -1.4075  1.2257
12934TIP3    H260218   2.869   5.801  13.285 -0.1191 -0.2328  0.6993
12935TIP3   OH260219   4.695   5.956  10.827  0.0837 -0.8180  0.0179
12935TIP3    H160220   4.761   5.887  10.837 -1.7897 -2.4974  1.5888
12935TIP3    H260221   4.743   6.037  10.838  2.1436 -1.8946 -0.5011
12936TIP3   OH260222   3.574   1.142   3.274  0.2375  0.1094 -0.6011
12936TIP3    H160223   3.554   1.236   3.276 -1.3299 -0.0748  3.6934
12936TIP3    H260224   3.609   1.123   3.361  1.3481 -3.1951 -1.6206
12937TIP3   OH260225   2.500   4.659   5.562  0.1607 -0.7460 -0.1204
12937TIP3    H160226   2.585   4.659   5.605  0.0478 -1.9368  0.1333
12937TIP3    H260227   2.461   4.743   5.587  1.3814 -0.0204 -0.5304
12938TIP3   OH260228   3.252   4.844  16.330 -0.3103 -0.1426 -0.6364
12938TIP3    H160229   3.294   4.903  16.393 -0.8084 -0.6619  0.2096
12938TIP3    H260230   3.201   4.784  16.385  0.0471 -1.2435 -1.4918
12939TIP3   OH260231   0.293   4.634   3.400 -0.2765  0.5576  0.2696
12939TIP3    H160232   0.254   4.638   3.312  1.7717  1.1461 -0.6714
12939TIP3    H260233   0.387   4.631   3.384  0.1194 -0.3206  2.4535
12940TIP3   OH260234   1.776   0.210  15.350 -0.0878  0.0867  0.1650
12940TIP3    H160235   1.695   0.165  15.328  0.4571 -1.7737  1.6693
12940TIP3    H260236   1.813   0.158  15.422  2.9245  0.2523 -1.1181
12941TIP3   OH260237   1.943   6.777  12.803 -0.0182 -0.1482  0.4053
12941TIP3    H160238   1.969   6.869  12.806  0.4600 -0.2779  0.3802
12941TIP3    H260239   1.848   6.779  12.804 -0.0193  0.3650 -0.1796
12942TIP3   OH260240   3.660   0.634   5.138  0.4168  0.5090  0.1225
12942TIP3    H160241   3.627   0.687   5.210 -1.9888 -2.2562  1.2442
12942TIP3    H260242   3.716   0.569   5.180 -2.7745 -2.5726  0.0852
12943TIP3   OH260243   0.590   4.185   4.185 -0.4702  0.3089 -0.6361
12943TIP3    H160244   0.576   4.278   4.166 -0.3265  0.3217 -0.6769
12943TIP3    H260245   0.616   4.147   4.101 -2.9699 -0.2563 -1.2347
12944TIP3   OH260246   6.760   3.010  12.959 -0.2437 -0.4481 -0.1086
12944TIP3    H160247   6.670   3.036  12.976 -0.3618  1.7522 -3.2311
12944TIP3    H260248   6.804   3.016  13.044 -2.1261  2.4227  0.7924
12945TIP3   OH260249   1.964   1.641  12.890 -0.4490  0.3511  0.3575
12945TIP3    H160250   2.039   1.643  12.949 -0.2005  0.6000  0.0438
12945TIP3    H260251   1.890   1.617  12.945 -0.3235  1.1177  0.8852
12946TIP3   OH260252   2.784   5.468   0.256 -0.0514  0.1592 -0.0003
12946TIP3    H160253   2.716   5.423   0.308  1.0407 -1.8305 -0.1763
12946TIP3    H260254   2.845   5.501   0.322  0.4701 -0.9120  0.0771
12947TIP3   OH260255   0.694   2.017   9.425 -0.4112 -0.4175 -0.3698
12947TIP3    H160256   0.629   2.064   9.372 -3.1510 -2.2933  1.0564
12947TIP3    H260257   0.739   2.085   9.474 -1.2468  0.9841 -1.4628
12948TIP3   OH260258   5.939   2.382   1.162 -0.0311 -0.1834  0.4435
12948TIP3    H160259   6.015   2.424   1.123  1.2772 -0.4618  2.5741
12948TIP3    H260260   5.916   2.312   1.100  0.8089  0.5210 -0.7026
12949TIP3   OH260261   5.180   3.892   2.239  0.0462  0.2340  0.0586
12949TIP3    H160262   5.194   3.807   2.198  1.7648  0.6945 -0.3929
12949TIP3    H260263   5.267   3.933   2.240 -0.4712  1.3858  1.6087
12950TIP3   OH260264   3.360   1.802  14.814  1.0076 -0.5526 -0.3374
12950TIP3    H160265   3.366   1.848  14.731 -1.1517 -0.6794 -0.6294
12950TIP3    H260266   3.374   1.869  14.880  2.3112 -0.3691 -0.7713
12951TIP3   OH260267   5.531   3.861  14.176 -0.5937  0.0887 -0.4852
12951TIP3    H160268   5.485   3.799  14.232 -0.3337 -1.4483 -1.9026
12951TIP3    H260269   5.465   3.889  14.112 -0.5384  0.8301 -0.2340
12952TIP3   OH260270   2.433   6.244   0.043 -0.2222 -0.4360 -0.3949
12952TIP3    H160271   2.493   6.309   0.080  1.0226 -0.7954 -1.6747
12952TIP3    H260272   2.445   6.167   0.097 -0.9299  0.0526  0.4892
12953TIP3   OH260273   6.595   3.553  15.772  0.3902 -0.4431 -0.1755
12953TIP3    H160274   6.608   3.633  15.723 -0.2406  0.2342  0.7199
12953TIP3    H260275   6.552   3.493  15.711 -1.1023  0.6491 -0.2336
12954TIP3   OH260276   0.939   5.673  14.565  0.3635  0.7011 -0.1096
12954TIP3    H160277   0.975   5.733  14.500  0.4885  2.8407  1.8146
12954TIP3    H260278   1.010   5.660  14.628 -0.5365  0.7579  0.9424
12955TIP3   OH260279   0.345   1.193  11.056 -0.2640  0.1403 -0.0341
12955TIP3    H160280   0.406   1.127  11.089 -1.2599 -1.1281 -0.6074
12955TIP3    H260281   0.280   1.202  11.125  0.2826  1.1014  0.3601
12956TIP3   OH260282   0.501   3.780  11.118  0.6098 -0.0000  0.4159
12956TIP3    H160283   0.526   3.816  11.033  0.4701 -0.8811 -0.0079
12956TIP3    H260284   0.408   3.761  11.110  0.9224 -1.6138  0.1774
12957TIP3   OH260285   0.416   0.542  13.326 -0.0965  0.8047 -0.3431
12957TIP3    H160286   0.383   0.626  13.294  1.2498  0.6984 -2.1442
12957TIP3    H260287   0.353   0.516  13.393 -0.2008  3.5553  0.7738
12958TIP3   OH260288   6.760   3.407  15.387  0.2628 -0.5599  0.2049
12958TIP3    H160289   6.820   3.413  15.312  1.6158 -2.2156  1.0955
12958TIP3    H260290   6.756   3.314  15.407 -1.7852 -0.3742  0.8801
12959TIP3   OH260291   2.530   0.033   1.891  0.5008 -0.7216  0.2802
12959TIP3    H160292   2.536   0.108   1.950  0.2633 -1.0026  0.6713
12959TIP3    H260293   2.497   0.069   1.809 -1.9601 -0.7229  1.1765
12960TIP3   OH260294   5.556   1.838   4.682 -0.1032  0.1132 -0.4115
12960TIP3    H160295   5.469   1.806   4.707  0.2545 -0.3404  0.2825
12960TIP3    H260296   5.550   1.852   4.588 -1.3069  1.2910 -0.1798
12961TIP3   OH260297   3.546   0.597   1.093 -1.3273 -0.6428  0.2424
12961TIP3    H160298   3.502   0.527   1.141 -2.8923  0.6159  0.7224
12961TIP3    H260299   3.631   0.607   1.138 -1.8950 -0.9229  1.4173
12962TIP3   OH260300   1.539   2.885  16.922  0.1691  0.8168 -0.2668
12962TIP3    H160301   1.613   2.827  16.940 -0.9172 -0.7296 -0.5629
12962TIP3    H260302   1.495   2.895  17.006  1.2159  2.5667  0.1371
12963TIP3   OH260303   0.982   4.024  10.928 -0.0737 -0.0421 -0.1319
12963TIP3    H160304   0.927   4.096  10.897 -0.4352 -0.6176 -0.8639
12963TIP3    H260305   1.070   4.047  10.899 -0.3041 -0.2485 -1.0237
12964TIP3   OH260306   6.208   0.878  11.516  0.0778 -0.6276  0.0987
12964TIP3    H160307   6.268   0.822  11.566  2.8976  0.7541 -1.5145
12964TIP3    H260308   6.182   0.946  11.578 -2.1687 -2.7081  1.6209
12965TIP3   OH260309   0.167   5.104  13.509 -0.9089  0.2495 -0.2769
12965TIP3    H160310   0.207   5.179  13.552 -1.6356  0.8794 -0.6669
12965TIP3    H260311   0.222   5.087  13.433 -0.5351  0.1530  0.0139
12966TIP3   OH260312   6.762   1.706  15.258  1.1942  0.0065  0.0783
12966TIP3    H160313   6.820   1.763  15.207 -0.0101 -0.6230 -2.1336
12966TIP3    H260314   6.766   1.621  15.213  0.1148 -0.6077  1.0864
12967TIP3   OH260315   1.262   2.901   0.389 -0.1151  0.4102 -0.4895
12967TIP3    H160316   1.313   2.849   0.327 -1.4979  0.9566 -2.1685
12967TIP3    H260317   1.195   2.841   0.422 -0.2771  0.4882 -0.6673
12968TIP3   OH260318   1.249   6.185  16.209 -0.0622 -0.2207  0.4675
12968TIP3    H160319   1.198   6.130  16.268  1.5101 -0.5346  1.6041
12968TIP3    H260320   1.261   6.267  16.256 -1.8299  0.9425 -0.9484
12969TIP3   OH260321   6.571   0.695  12.966  0.0801  0.1529 -0.3416
12969TIP3    H160322   6.494   0.703  13.022  0.7550  1.1951  0.4646
12969TIP3    H260323   6.644   0.727  13.019  0.8302  0.6490 -1.6225
12970TIP3   OH260324   4.659   5.212   1.090 -0.8591  0.7277 -0.7721
12970TIP3    H160325   4.585   5.240   1.144 -0.3558 -0.9140  0.8610
12970TIP3    H260326   4.619   5.158   1.021 -1.1708 -1.0819  0.7410
12971TIP3   OH260327   5.518   0.689   3.029 -0.0109  0.3414  0.3198
12971TIP3    H160328   5.494   0.761   2.971 -0.6372 -1.2061 -1.4099
12971TIP3    H260329   5.593   0.648   2.987  0.7560  0.3389  1.6300
12972TIP3   OH260330   5.762   3.935  17.205 -0.1765  0.2100  0.3940
12972TIP3    H160331   5.678   3.915  17.163  0.7496 -0.1329 -1.4172
12972TIP3    H260332   5.814   3.855  17.192  1.3095  1.3343 -0.9284
12973TIP3   OH260333   5.738   6.048   4.903  0.2045 -0.3119 -0.2964
12973TIP3    H160334   5.726   6.093   4.987 -2.0623 -2.3766  0.6108
12973TIP3    H260335   5.817   5.995   4.916 -1.5068 -2.6128  1.6186
12974TIP3   OH260336   6.411   0.948  16.306  0.2042 -0.2833  0.4557
12974TIP3    H160337   6.366   0.980  16.228  0.0752  1.2567  1.1215
12974TIP3    H260338   6.347   0.894  16.351  0.1301 -0.8021 -0.2516
12975TIP3   OH260339   3.475   3.742  12.271  0.5556 -0.5352  0.1917
12975TIP3    H160340   3.451   3.817  12.326  0.5494 -1.4085  1.4056
12975TIP3    H260341   3.438   3.763  12.185 -0.4323  0.3360  0.8094
12976TIP3   OH260342   5.118   0.352   0.230 -0.4155 -0.0557  1.1277
12976TIP3    H160343   5.160   0.288   0.172  1.1969  1.3519  0.6840
12976TIP3    H260344   5.026   0.352   0.202 -0.1443 -1.1053  0.1560
12977TIP3   OH260345   4.619   4.925   4.771  0.5711  0.0917  0.1267
12977TIP3    H160346   4.531   4.959   4.756  1.1200  1.3922 -0.3132
12977TIP3    H260347   4.606   4.843   4.818 -0.8741  0.2153 -0.0325
12978TIP3   OH260348   3.043   6.364  12.409 -0.3796  0.3045 -0.1917
12978TIP3    H160349   3.068   6.448  12.446  1.0071  0.1460 -0.6942
12978TIP3    H260350   3.080   6.365  12.321  2.1103 -1.8772  0.6938
12979TIP3   OH260351   6.544   3.724  13.854 -0.0108 -0.2148  0.2448
12979TIP3    H160352   6.499   3.697  13.774 -1.6998 -0.4392  1.2443
12979TIP3    H260353   6.637   3.712  13.833 -0.4005 -0.3601 -1.6401
12980TIP3   OH260354   6.210   6.312  15.181  0.2371 -0.3716 -0.9159
12980TIP3    H160355   6.172   6.400  15.183 -0.4600 -0.6377  1.8504
12980TIP3    H260356   6.298   6.323  15.218  0.3058 -0.7669 -0.9577
12981TIP3   OH260357   4.526   3.224  13.724 -0.1988  0.1320 -1.1796
12981TIP3    H160358   4.453   3.281  13.701 -1.2517 -0.5782  0.2500
12981TIP3    H260359   4.521   3.152  13.661 -0.4153  0.3550 -1.4167
12982TIP3   OH260360   2.280   0.941   0.037  0.3097  0.4834 -0.1023
12982TIP3    H160361   2.244   1.000   0.102  1.6802 -0.2013  1.3266
12982TIP3    H260362   2.288   0.857   0.082  3.4976  0.5588 -0.3584
12983TIP3   OH260363   0.165   4.839  15.661 -0.0810 -0.1629  0.5758
12983TIP3    H160364   0.135   4.860  15.572  0.0517 -0.0905  0.5478
12983TIP3    H260365   0.123   4.755  15.681 -2.1636  1.0046  1.4286
12984TIP3   OH260366   5.148   0.656  12.440  0.2930  0.4180 -0.5182
12984TIP3    H160367   5.162   0.619  12.527  0.6428 -0.5909 -0.9780
12984TIP3    H260368   5.237   0.667  12.405  0.1949  1.7451 -0.3876
12985TIP3   OH260369   6.705   0.543   2.971 -0.2026  0.8926 -0.3185
12985TIP3    H160370   6.696   0.448   2.968  1.0713  0.7737 -1.4255
12985TIP3    H260371   6.711   0.569   2.879 -1.5328  2.1768 -0.0730
12986TIP3   OH260372   4.677   2.455   1.349 -0.6376 -0.5374 -0.5819
12986TIP3    H160373   4.679   2.375   1.296 -3.2170 -0.5661 -0.7246
12986TIP3    H260374   4.709   2.523   1.290  0.7949 -1.2869 -0.7194
12987TIP3   OH260375   3.355   1.009   5.471  0.3142 -0.4938 -0.6480
12987TIP3    H160376   3.323   0.986   5.383  0.3561 -0.1426 -0.7550
12987TIP3    H260377   3.276   1.015   5.524  0.3575 -1.8146 -0.3926
12988TIP3   OH260378   2.170   0.885  15.210  0.0908  0.2798 -0.2533
12988TIP3    H160379   2.122   0.816  15.255 -0.0417  1.7438  2.0139
12988TIP3    H260380   2.262   0.861  15.220 -0.0044 -0.3387 -0.8260
12989TIP3   OH260381   1.323   4.623   5.809  0.4258  0.3138  0.0599
12989TIP3    H160382   1.391   4.671   5.857  0.7843  2.2872 -2.1928
12989TIP3    H260383   1.248   4.683   5.807 -0.5199 -0.8265  0.4157
12990TIP3   OH260384   0.983   2.896  15.001 -0.3830 -0.0756 -0.5706
12990TIP3    H160385   1.002   2.826  15.064  2.5574 -0.0524 -1.2827
12990TIP3    H260386   0.936   2.853  14.931 -1.1287 -0.7182  0.3032
12991TIP3   OH260387   2.294   5.493   3.114 -0.2245 -0.3713  0.4950
12991TIP3    H160388   2.234   5.530   3.049  0.2209  0.4362  0.5223
12991TIP3    H260389   2.287   5.552   3.189  0.8835 -0.0324  0.3520
12992TIP3   OH260390   5.881   1.342   2.566 -0.2451 -0.4326 -0.3182
12992TIP3    H160391   5.827   1.419   2.584 -0.1029  0.0275 -1.7867
12992TIP3    H260392   5.937   1.367   2.493 -0.2978 -1.9709 -0.9370
12993TIP3   OH260393   1.832   5.405  12.240  0.2542 -0.3997 -0.2081
12993TIP3    H160394   1.917   5.403  12.283  0.8554 -0.7553 -1.3868
12993TIP3    H260395   1.779   5.463  12.295  1.7560  1.1681 -0.3466
12994TIP3   OH260396   6.172   5.645   0.074  0.3531 -0.0636 -0.3621
12994TIP3    H160397   6.081   5.630   0.102  1.0363 -0.7750  1.6844
12994TIP3    H260398   6.191   5.573   0.014 -0.5335  0.3307 -1.1483
12995TIP3   OH260399   1.265   5.360   3.896 -0.4008 -0.1994  0.2882
12995TIP3    H160400   1.319   5.431   3.861  0.4411 -1.4640 -1.0723
12995TIP3    H260401   1.193   5.405   3.941  0.3444  1.5077 -0.1475
12996TIP3   OH260402   5.149   0.820   4.218  0.9439 -0.6668  0.4531
12996TIP3    H160403   5.076   0.871   4.183  1.2505 -1.4093 -1.3775
12996TIP3    H260404   5.109   0.739   4.250  0.9441 -1.0412 -0.4797
12997TIP3   OH260405   6.779   6.491  14.392  0.2461  0.3715 -0.2125
12997TIP3    H160406   6.838   6.523  14.460  1.6264 -1.1215 -0.6499
12997TIP3    H260407   6.700   6.466  14.439  1.1739 -0.6355  0.8738
12998TIP3   OH260408   2.175   6.262  11.322  0.4968  0.3966 -0.1941
12998TIP3    H160409   2.118   6.243  11.397  2.5424 -2.3018  0.8426
12998TIP3    H260410   2.255   6.297  11.361  0.4400  2.0192 -1.4412
12999TIP3   OH260411   3.466   0.248  13.544 -0.0983 -0.5299  0.4946
12999TIP3    H160412   3.488   0.268  13.635  0.7456  1.3096 -0.0772
12999TIP3    H260413   3.491   0.156  13.534  1.5342 -0.2559  1.6158
13000TIP3   OH260414   1.293   4.989  15.510  0.2634  0.6237  0.0245
13000TIP3    H160415   1.272   4.904  15.548  0.9354 -0.0479 -1.0524
13000TIP3    H260416   1.211   5.038  15.511 -0.2566 -0.2484  0.1533
13001TIP3   OH260417   1.018   3.028  14.767 -0.4322 -0.1491  0.0119
13001TIP3    H160418   1.011   2.998  14.857  1.6995  0.5789  0.4792
13001TIP3    H260419   1.007   3.123  14.772 -2.5421 -0.2894 -0.8435
13002TIP3   OH260420   6.178   1.350   5.633 -0.4040 -0.3725  0.5583
13002TIP3    H160421   6.238   1.331   5.705 -1.6389 -2.5259  1.1330
13002TIP3    H260422   6.219   1.312   5.556  1.3188  2.6579 -0.1713
13003TIP3   OH260423   4.756   0.318   5.226  0.2012 -0.5326  0.4997
13003TIP3    H160424   4.781   0.304   5.317  0.9642 -0.4303  0.3167
13003TIP3    H260425   4.731   0.411   5.222  1.1596 -0.2682  0.3959
13004TIP3   OH260426   4.891   2.050   0.370 -0.4218  0.7878 -0.0769
13004TIP3    H160427   4.893   2.145   0.365  0.6477  0.8574  1.1542
13004TIP3    H260428   4.969   2.027   0.420 -0.8851 -0.7099 -0.0016
13005TIP3   OH260429   1.645   0.989  16.375  0.1463  0.0420 -0.0838
13005TIP3    H160430   1.704   0.914  16.367  2.2865  1.7261 -1.0041
13005TIP3    H260431   1.699   1.059  16.410 -2.0972  0.9021  1.9890
13006TIP3   OH260432   1.756   3.985   4.212  0.3689  0.0025 -0.1031
13006TIP3    H160433   1.760   4.041   4.289  2.3633 -1.3258  0.8406
13006TIP3    H260434   1.707   3.908   4.241  2.0719 -1.0009  0.2536
13007TIP3   OH260435   5.658   0.344  11.495 -0.7002  0.5420  0.3980
13007TIP3    H160436   5.738   0.350  11.444 -1.9697  1.4821 -1.5899
13007TIP3    H260437   5.664   0.259  11.539  0.2588 -0.5384 -1.6803
13008TIP3   OH260438   0.085   4.543   5.970  0.7274 -0.0910  0.3107
13008TIP3    H160439   0.051   4.465   6.014 -0.2852  0.4154  0.4540
13008TIP3    H260440   0.135   4.589   6.038  1.2747 -0.5784  0.2401
13009TIP3   OH260441   1.609   5.823   2.339  0.4994 -0.0956 -0.5222
13009TIP3    H160442   1.628   5.762   2.411  0.5560  1.3344  0.7187
13009TIP3    H260443   1.693   5.865   2.321  0.6965 -1.0653 -2.0845
13010TIP3   OH260444   5.885   1.562   1.477  0.2434  0.0311  0.2789
13010TIP3    H160445   5.968   1.546   1.521  1.2300 -0.4666 -1.6650
13010TIP3    H260446   5.891   1.652   1.447  1.0751 -0.6519 -1.7681
13011TIP3   OH260447   2.777   2.823   1.358 -0.1702 -0.8357  0.0803
13011TIP3    H160448   2.834   2.781   1.294  0.1721  1.0942 -0.9664
13011TIP3    H260449   2.836   2.853   1.428 -0.0971 -0.2509 -0.2225
13012TIP3   OH260450   0.779   2.711   2.007  0.3405  0.2707  0.2079
13012TIP3    H160451   0.777   2.625   1.964 -0.8380  0.6625 -0.6059
13012TIP3    H260452   0.771   2.773   1.934 -0.7934  0.9937  0.9224
13013TIP3   OH260453   2.178   5.542  14.712 -0.0008 -0.0371 -0.6377
13013TIP3    H160454   2.149   5.466  14.662 -0.5230  0.7147 -1.4917
13013TIP3    H260455   2.268   5.558  14.682 -0.6134  0.9453 -2.0031
13014TIP3   OH260456   3.129   5.529   1.083  0.2067  0.6247 -0.5348
13014TIP3    H160457   3.148   5.536   0.989  0.1484  0.5863 -0.5499
13014TIP3    H260458   3.213   5.548   1.126  0.5575 -0.6324 -0.6302
13015TIP3   OH260459   6.641   5.638   5.935 -0.0664  0.0839 -0.0909
13015TIP3    H160460   6.698   5.715   5.932 -0.3858  0.3182 -0.1972
13015TIP3    H260461   6.576   5.653   5.866 -0.3609 -0.0976  0.1426
13016TIP3   OH260462   6.033   5.763  12.355 -0.5264  0.2899 -0.5167
13016TIP3    H160463   6.010   5.683  12.307  0.3933 -0.3779  0.1336
13016TIP3    H260464   6.088   5.812  12.294  0.2579 -0.3454 -0.3472
13017TIP3   OH260465   0.611   6.295  16.601 -0.5288  0.2198  0.3205
13017TIP3    H160466   0.671   6.242  16.654 -1.7228 -0.6134  0.9098
13017TIP3    H260467   0.657   6.377  16.587  2.2257 -1.5931 -2.2752
13018TIP3   OH260468   4.446   1.157  13.793 -0.1741  0.0625  0.6804
13018TIP3    H160469   4.364   1.110  13.801  0.0391 -0.3163  0.6451
13018TIP3    H260470   4.486   1.124  13.713  0.8185 -1.0245  1.5956
13019TIP3   OH260471   0.783   6.393   0.736  0.4746  0.0459 -0.5176
13019TIP3    H160472   0.808   6.484   0.751  0.2435 -0.0184  0.3145
13019TIP3    H260473   0.796   6.380   0.642 -0.4283  1.2137 -0.8345
13020TIP3   OH260474   2.140   0.805   5.242  0.2196  0.2314 -0.3803
13020TIP3    H160475   2.057   0.844   5.272  0.4674 -0.7226  1.7210
13020TIP3    H260476   2.193   0.880   5.216 -0.9867  0.9155 -0.9896
13021TIP3   OH260477   2.350   4.672  16.601  0.0520 -0.2024  0.4663
13021TIP3    H160478   2.432   4.624  16.612  0.9705  1.1746 -0.0493
13021TIP3    H260479   2.355   4.708  16.513 -0.5789  0.8402  0.8316
13022TIP3   OH260480   6.293   4.732  16.133 -0.3470  0.6409  0.1332
13022TIP3    H160481   6.330   4.650  16.164  1.7319  0.6635 -2.0199
13022TIP3    H260482   6.326   4.798  16.194 -0.5882  0.1210  0.8418
13023TIP3   OH260483   2.795   6.115   3.536  0.0294  0.4378  0.0848
13023TIP3    H160484   2.834   6.170   3.604 -0.3530 -0.2704  0.8924
13023TIP3    H260485   2.736   6.174   3.489 -0.0740  0.8240  0.6791
13024TIP3   OH260486   4.778   4.562   0.208 -0.0867  0.6948 -0.3014
13024TIP3    H160487   4.782   4.538   0.116 -0.8320  1.3053 -0.5017
13024TIP3    H260488   4.708   4.507   0.244 -2.3854  2.9612 -0.9407
13025TIP3   OH260489   1.658   5.084  11.391  0.0416 -0.0828 -0.0675
13025TIP3    H160490   1.587   5.092  11.454  0.2552 -0.3450  0.2143
13025TIP3    H260491   1.715   5.016  11.428 -0.5876 -1.3246 -1.2471
13026TIP3   OH260492   2.783   6.471  15.081  0.2118 -0.4555  0.2919
13026TIP3    H160493   2.815   6.398  15.134 -0.3110 -1.5440 -0.8358
13026TIP3    H260494   2.840   6.472  15.004  0.7686  0.9034  0.6924
13027TIP3   OH260495   4.035   5.376   6.325 -0.0547  0.2643  0.0643
13027TIP3    H160496   4.086   5.376   6.244 -1.2654  0.6095 -0.7196
13027TIP3    H260497   3.984   5.457   6.322 -0.2525  0.1924  1.0887
13028TIP3   OH260498   4.762   0.567  10.993 -0.0275 -0.3665 -0.3841
13028TIP3    H160499   4.772   0.473  11.009 -0.0119 -0.2673  0.1843
13028TIP3    H260500   4.706   0.572  10.915  1.1230 -0.8687 -1.2735
13029TIP3   OH260501   0.916   1.887   1.508 -0.3699  0.0375  0.2111
13029TIP3    H160502   0.971   1.941   1.451  1.0796  0.8944  2.2823
13029TIP3    H260503   0.949   1.798   1.495 -1.4987 -0.1389 -1.8111
13030TIP3   OH260504   2.331   4.233   0.231 -0.0145  0.5643  0.4616
13030TIP3    H160505   2.258   4.242   0.292  0.1431 -2.1038  1.1995
13030TIP3    H260506   2.291   4.231   0.145 -0.6700  0.5840  0.7619
13031TIP3   OH260507   0.216   3.374  11.575  0.6188 -0.2395  0.8237
13031TIP3    H160508   0.134   3.334  11.545  0.2429  0.2651  1.1675
13031TIP3    H260509   0.258   3.306  11.628  1.0528 -0.9621 -0.4064
13032TIP3   OH260510   6.662   3.288  16.153 -0.3080 -0.2562  0.5397
13032TIP3    H160511   6.654   3.374  16.110  0.0124  0.1342  1.2429
13032TIP3    H260512   6.583   3.280  16.205 -1.0311 -1.0376 -0.6282
13033TIP3   OH260513   5.158   2.907  13.328 -0.3551 -0.3494  0.2551
13033TIP3    H160514   5.173   2.895  13.235  2.1602  0.8573  0.4276
13033TIP3    H260515   5.213   2.841  13.370 -2.4501 -1.7654  0.9482
13034TIP3   OH260516   6.007   1.491   2.040  0.2108 -0.1033 -0.6267
13034TIP3    H160517   6.028   1.399   2.021 -1.4687 -0.9812  1.3359
13034TIP3    H260518   6.088   1.538   2.022  1.4833 -2.1448 -0.5930
13035TIP3   OH260519   2.752   1.286  11.251  0.0766 -0.3527  0.2066
13035TIP3    H160520   2.719   1.200  11.226 -0.7117 -0.1183  0.4004
13035TIP3    H260521   2.673   1.338  11.268  0.5258  0.5955 -0.5186
13036TIP3   OH260522   6.184   5.787   3.952  0.0557 -0.1932  0.4609
13036TIP3    H160523   6.089   5.796   3.957 -0.0972 -0.0464 -1.6600
13036TIP3    H260524   6.204   5.704   3.995 -0.8885  0.2354  1.7961
13037TIP3   OH260525   5.529   3.337   5.162  0.1602 -0.0423  0.6329
13037TIP3    H160526   5.534   3.285   5.242 -3.3138 -1.9185 -0.1646
13037TIP3    H260527   5.484   3.417   5.188 -1.3383 -0.8302  0.5542
13038TIP3   OH260528   5.997   6.210   4.060 -0.4318 -0.2707  0.0261
13038TIP3    H160529   5.996   6.285   4.000  0.3857 -0.0719  0.2566
13038TIP3    H260530   6.008   6.249   4.147  0.3985 -0.6782  0.1082
13039TIP3   OH260531   5.362   4.711  12.016  0.4430  0.0890  0.8206
13039TIP3    H160532   5.393   4.621  12.024 -0.1509 -0.2473 -0.4595
13039TIP3    H260533   5.268   4.704  12.004  0.0540  1.0167  2.8102
13040TIP3   OH260534   6.261   1.523  15.735  0.2143  0.2620  0.7069
13040TIP3    H160535   6.241   1.612  15.765  0.7432  0.0372  1.7405
13040TIP3    H260536   6.355   1.523  15.719  0.1465 -0.0000  0.2754
13041TIP3   OH260537   3.300   0.518  16.064  0.4095  0.1073 -0.4090
13041TIP3    H160538   3.371   0.502  16.002 -0.0201  1.0264 -1.1707
13041TIP3    H260539   3.344   0.553  16.142  0.7874  0.8449 -0.9448
13042TIP3   OH260540   4.133   1.805  12.589 -0.4776  0.4173  0.5463
13042TIP3    H160541   4.143   1.820  12.495 -1.2866 -0.2562  0.3360
13042TIP3    H260542   4.183   1.874  12.630  0.0521  0.6029 -0.3879
13043TIP3   OH260543   1.369   5.224  12.844 -0.3320  1.0494 -0.1944
13043TIP3    H160544   1.344   5.142  12.801  1.8021  0.2014  0.0460
13043TIP3    H260545   1.310   5.232  12.919 -0.2731 -0.5364  0.0506
13044TIP3   OH260546   1.110   5.695  14.849  0.3451 -0.7924 -0.3538
13044TIP3    H160547   1.054   5.685  14.925  1.3695  0.2941  0.5842
13044TIP3    H260548   1.192   5.652  14.874  1.3161  1.0969 -0.0967
13045TIP3   OH260549   5.173   2.083   1.193 -0.4735 -0.7341  0.0232
13045TIP3    H160550   5.209   2.035   1.119  0.5160 -0.2692  0.1874
13045TIP3    H260551   5.101   2.028   1.224  1.1293 -2.5613  0.7181
13046TIP3   OH260552   6.612   1.851  11.128  0.0765  0.4161 -0.2237
13046TIP3    H160553   6.559   1.812  11.059  0.0982 -2.5549  1.2749
13046TIP3    H260554   6.547   1.883  11.192  0.0785  2.1451 -1.0320
13047TIP3   OH260555   3.387   2.647   0.696 -0.4511 -0.9581 -0.2725
13047TIP3    H160556   3.483   2.640   0.690 -0.5055 -0.7419 -1.8012
13047TIP3    H260557   3.355   2.588   0.628 -1.3694 -0.1413 -0.5618
13048TIP3   OH260558   5.241   5.887  17.079  0.1652  0.0486 -0.0049
13048TIP3    H160559   5.146   5.878  17.089 -0.0009 -2.8573 -2.6509
13048TIP3    H260560   5.252   5.947  17.005  0.2586 -0.7232 -0.6436
13049TIP3   OH260561   4.702   3.737   2.414  0.0257 -0.3593 -0.4790
13049TIP3    H160562   4.723   3.697   2.329  2.2289 -3.4972  1.3390
13049TIP3    H260563   4.760   3.813   2.419  0.2997 -0.4779 -1.5362
13050TIP3   OH260564   2.853   1.558  15.727  0.2886  0.7166  0.2915
13050TIP3    H160565   2.825   1.547  15.636 -0.7899 -0.1316  0.7119
13050TIP3    H260566   2.938   1.601  15.721  0.2548  0.6140 -1.1213
13051TIP3   OH260567   1.914   0.468  11.017  0.0567  0.4241  0.2139
13051TIP3    H160568   1.882   0.498  11.103 -0.1707 -0.6559  0.5270
13051TIP3    H260569   1.959   0.543  10.980 -1.4831  1.5226  0.4607
13052TIP3   OH260570   4.728   2.308   2.221 -0.4023 -0.0524 -0.1441
13052TIP3    H160571   4.684   2.392   2.235  0.0147 -0.2083  2.5377
13052TIP3    H260572   4.662   2.243   2.243 -1.2237 -0.6054 -3.6480
13053TIP3   OH260573   4.282   5.477   0.776 -0.2726  0.4879  0.3147
13053TIP3    H160574   4.369   5.508   0.751  0.1347 -0.5179  0.4312
13053TIP3    H260575   4.226   5.501   0.702  0.4444 -0.3465 -0.5179
13054TIP3   OH260576   2.574   4.184  11.556  0.0421 -0.0847  0.1515
13054TIP3    H160577   2.605   4.124  11.488 -1.1444 -0.1316 -0.3751
13054TIP3    H260578   2.610   4.269  11.532  1.5546 -0.5231  0.7801
13055TIP3   OH260579   3.085   6.022   3.620  0.5821 -0.2320 -0.3992
13055TIP3    H160580   3.042   5.971   3.689  0.1951  0.9889  0.2902
13055TIP3    H260581   3.133   5.957   3.569  1.2104 -1.1387  1.2643
13056TIP3   OH260582   2.900   5.118   0.557  0.6998 -0.6701  0.4151
13056TIP3    H160583   2.895   5.045   0.496 -0.6325 -0.7901  0.6602
13056TIP3    H260584   2.975   5.169   0.525  0.0509 -0.7286 -1.3354
13057TIP3   OH260585   3.423   0.020   1.088  0.9400  0.3230  0.4035
13057TIP3    H160586   3.337   0.052   1.116  0.7890  2.5705 -2.1833
13057TIP3    H260587   3.433  -0.064   1.132 -1.4515  1.1544  2.7768
13058TIP3   OH260588   0.578   5.103  15.137  0.5648 -0.2659  0.0845
13058TIP3    H160589   0.631   5.081  15.061  0.1173 -0.5811 -0.1473
13058TIP3    H260590   0.636   5.091  15.212  0.5324 -1.6517 -0.0822
13059TIP3   OH260591   1.682   3.190  15.142 -0.0237  0.1458  0.2193
13059TIP3    H160592   1.647   3.255  15.203 -1.1797  0.2821 -0.5557
13059TIP3    H260593   1.755   3.151  15.188  1.5009  2.8228  0.2696
13060TIP3   OH260594   1.590   5.823   1.951 -0.1061  0.4254  0.3320
13060TIP3    H160595   1.681   5.823   1.923 -0.7769  2.2426 -2.1524
13060TIP3    H260596   1.577   5.910   1.989 -0.6339 -0.0954  1.3875
13061TIP3   OH260597   1.851   2.235   0.321 -0.1626 -0.1103 -0.6004
13061TIP3    H160598   1.774   2.187   0.352 -0.0950 -0.4081 -0.8860
13061TIP3    H260599   1.875   2.292   0.394 -0.5406 -0.1512 -0.4384
13062TIP3   OH260600   0.314   4.530   3.004 -0.0499 -0.3013  0.9717
13062TIP3    H160601   0.353   4.447   2.977  0.6621  0.2463  0.2902
13062TIP3    H260602   0.376   4.567   3.067  0.6647  0.6499 -0.2409
13063TIP3   OH260603   3.139   5.237  16.549 -0.2446 -0.4578 -0.5110
13063TIP3    H160604   3.178   5.155  16.520  0.6313 -0.4934  0.7138
13063TIP3    H260605   3.136   5.230  16.644 -0.8379  0.6294 -0.4374
13064TIP3   OH260606   0.395   0.140   2.415 -0.2386  0.5379  0.0629
13064TIP3    H160607   0.471   0.172   2.464  0.3249  0.3044 -0.6250
13064TIP3    H260608   0.322   0.194   2.444  0.3850  1.3982  0.0638
13065TIP3   OH260609   4.468   3.112   5.570  0.5194  0.4856 -0.1967
13065TIP3    H160610   4.428   3.055   5.636 -1.2626 -0.6072 -2.0848
13065TIP3    H260611   4.423   3.195   5.580 -0.4443  0.0298 -0.6430
13066TIP3   OH260612   2.683   1.695  16.181  0.0394  0.2428 -0.0851
13066TIP3    H160613   2.770   1.691  16.141 -0.2854  0.1406 -0.8026
13066TIP3    H260614   2.661   1.603  16.197  0.8656  0.3479  1.9223
13067TIP3   OH260615   6.476   1.801   3.963 -0.4329 -0.4818 -0.2269
13067TIP3    H160616   6.517   1.881   3.996 -0.2364 -0.5469 -0.3091
13067TIP3    H260617   6.388   1.828   3.937 -0.2570 -0.2196 -0.5595
13068TIP3   OH260618   1.590   1.959  15.221  0.8358 -0.2823 -0.1671
13068TIP3    H160619   1.538   1.946  15.301  1.2064 -0.3285  0.0719
13068TIP3    H260620   1.592   1.873  15.179  1.2170 -0.4236  0.1330
13069TIP3   OH260621   4.344   4.983   5.201  0.1339 -0.0671 -0.7986
13069TIP3    H160622   4.424   5.034   5.213 -0.3466  0.3071  1.1428
13069TIP3    H260623   4.288   5.040   5.148 -0.4295  1.5836  1.3931
13070TIP3   OH260624   4.978   1.995  16.294  0.1693 -0.3759  0.4271
13070TIP3    H160625   4.935   1.980  16.209 -0.9226  3.5380  0.0614
13070TIP3    H260626   4.907   1.985  16.358 -0.5185  2.2205  0.1969
13071TIP3   OH260627   4.193   3.183   1.883 -0.4066  0.2865  0.3637
13071TIP3    H160628   4.260   3.115   1.882  0.0833  0.7130  1.6244
13071TIP3    H260629   4.178   3.200   1.976 -0.2918  2.1166  0.0842
13072TIP3   OH260630   2.468   3.872   4.028 -0.1455 -0.1119  0.1871
13072TIP3    H160631   2.549   3.824   4.008 -1.1861 -0.7687 -3.1190
13072TIP3    H260632   2.493   3.964   4.021  0.4875 -0.2932 -0.0481
13073TIP3   OH260633   2.475   4.255   2.930  0.4203  0.1505  0.0743
13073TIP3    H160634   2.500   4.311   3.003 -0.9094  0.1307  0.5803
13073TIP3    H260635   2.498   4.167   2.957  0.4881  0.2137  0.2180
13074TIP3   OH260636   5.180   5.158  14.252  0.0126 -0.0752  0.7946
13074TIP3    H160637   5.089   5.161  14.281  0.5613  1.6916  2.5616
13074TIP3    H260638   5.187   5.228  14.187 -0.5243 -2.1882 -1.7351
13075TIP3   OH260639   5.327   6.034  14.196 -0.1832 -0.1425 -0.1125
13075TIP3    H160640   5.315   5.939  14.197  1.5560 -0.3938 -0.6304
13075TIP3    H260641   5.267   6.064  14.127 -0.0985 -0.9600 -0.5553
13076TIP3   OH260642   2.341   4.983  15.178 -0.2875  0.0353 -0.3099
13076TIP3    H160643   2.249   4.977  15.155 -0.2570  0.4230 -0.5517
13076TIP3    H260644   2.378   4.898  15.155 -0.7422 -0.4015  0.5153
13077TIP3   OH260645   1.008   5.023  13.117  0.3868  0.2677  0.6894
13077TIP3    H160646   0.948   4.970  13.063  1.2041 -0.3439  0.3647
13077TIP3    H260647   0.978   5.008  13.206  0.6877 -0.8797  0.6155
13078TIP3   OH260648   2.911   3.435   4.978 -0.0714  1.6654 -0.1428
13078TIP3    H160649   2.918   3.418   5.072 -1.9220  0.6050 -0.1588
13078TIP3    H260650   2.867   3.520   4.972 -1.1957  1.0985 -0.0370
13079TIP3   OH260651   1.710   1.279  13.870 -0.2095 -0.3466  0.3341
13079TIP3    H160652   1.624   1.319  13.882  0.4918  1.2271  0.3726
13079TIP3    H260653   1.766   1.325  13.932  1.3455  0.9007 -1.8648
13080TIP3   OH260654   4.023   5.363  13.623 -0.3644 -0.3847 -0.1722
13080TIP3    H160655   4.088   5.382  13.556 -0.9848 -2.2225 -1.3636
13080TIP3    H260656   4.012   5.445  13.670  1.6272  0.3908 -0.9638
13081TIP3   OH260657   5.481   5.812  17.162  0.1375 -0.1917 -0.0237
13081TIP3    H160658   5.481   5.789  17.069  1.7854 -0.9559  0.1278
13081TIP3    H260659   5.392   5.845  17.178 -0.9562 -2.2536 -1.3251
13082TIP3   OH260660   6.238   1.995  16.466 -0.4993  0.0052  0.2922
13082TIP3    H160661   6.331   2.013  16.450 -0.5222  1.5610  1.6441
13082TIP3    H260662   6.202   1.979  16.379  0.7977  0.6425 -0.3946
13083TIP3   OH260663   1.857   3.598  11.304  0.1393  0.1409 -0.7713
13083TIP3    H160664   1.890   3.688  11.308 -0.8133  0.4678  0.4551
13083TIP3    H260665   1.935   3.544  11.291  0.8487  1.0724 -0.5058
13084TIP3   OH260666   1.202   0.986   4.522 -0.1799 -0.3470  0.0039
13084TIP3    H160667   1.159   1.013   4.603 -0.6836 -1.4875  0.1269
13084TIP3    H260668   1.217   1.068   4.475 -0.3319  0.2830  1.0174
13085TIP3   OH260669   5.413   1.857   2.825 -0.4292  0.1717  0.2893
13085TIP3    H160670   5.318   1.862   2.814 -0.4176 -1.3858 -0.9081
13085TIP3    H260671   5.437   1.772   2.787  1.3753  0.2611  1.1095
13086TIP3   OH260672   2.757   5.549   0.883  0.2610  0.1311  0.5388
13086TIP3    H160673   2.683   5.488   0.881  0.3512 -0.0042  1.2039
13086TIP3    H260674   2.738   5.613   0.815 -0.9732  0.6918  1.3811
13087TIP3   OH260675   6.173   5.111  13.478  0.5817  0.4379 -0.3227
13087TIP3    H160676   6.102   5.105  13.414 -0.3377  1.5739  0.5551
13087TIP3    H260677   6.129   5.117  13.562  1.6847  2.1460  0.1701
13088TIP3   OH260678   1.218   2.911   1.589  0.3406 -0.6648  0.1716
13088TIP3    H160679   1.192   2.823   1.616 -2.3295  0.1404  0.5257
13088TIP3    H260680   1.266   2.945   1.665  2.4052 -2.1347 -0.3928
13089TIP3   OH260681   0.360   4.669  15.033 -0.1277 -0.2481  0.0208
13089TIP3    H160682   0.384   4.721  15.110 -0.5664  0.2529 -0.1745
13089TIP3    H260683   0.393   4.719  14.959 -1.3198  0.2045 -0.2237
13090TIP3   OH260684   0.480   3.232   4.854  0.5969 -0.6340 -0.0202
13090TIP3    H160685   0.569   3.227   4.890  0.2288 -1.5946  0.8305
13090TIP3    H260686   0.425   3.255   4.929  0.1449  0.2070 -0.5918
13091TIP3   OH260687   1.107   3.444   0.705  0.1635 -0.9297  0.0005
13091TIP3    H160688   1.119   3.390   0.782  0.2253 -0.7581  0.1123
13091TIP3    H260689   1.020   3.422   0.673  0.2246 -1.1602 -0.0071
13092TIP3   OH260690   3.457   2.609  15.088 -0.7936  0.1276  0.5587
13092TIP3    H160691   3.463   2.685  15.145 -0.8820 -0.3029  1.1587
13092TIP3    H260692   3.443   2.535  15.148  1.3299 -0.6676  0.1808
13093TIP3   OH260693   1.259   1.123  15.407  0.0232  0.0405 -0.3787
13093TIP3    H160694   1.253   1.161  15.495 -1.9655  0.5855 -0.7083
13093TIP3    H260695   1.209   1.041  15.413  0.9737 -0.5884 -0.6996
13094TIP3   OH260696   3.439   0.862  15.151  0.3283  0.1301  0.7208
13094TIP3    H160697   3.482   0.920  15.213 -0.0595 -0.1075  1.2226
13094TIP3    H260698   3.437   0.777  15.196 -1.3013  0.2985  1.0297
13095TIP3   OH260699   4.932   6.092   4.616  0.1907  0.0638 -0.3917
13095TIP3    H160700   5.010   6.046   4.584  0.8252  0.5507  0.4037
13095TIP3    H260701   4.897   6.035   4.685  0.4985  0.3684  0.0221
13096TIP3   OH260702   4.006   2.169   4.399  0.3257 -0.0060 -0.2985
13096TIP3    H160703   4.001   2.250   4.450  1.6260 -0.0800 -0.0228
13096TIP3    H260704   4.099   2.156   4.384  0.1841 -1.7493  0.1363
13097TIP3   OH260705   4.555   6.400   0.496 -0.0741 -0.4546  0.1230
13097TIP3    H160706   4.604   6.317   0.494 -1.0194 -1.0299  0.2805
13097TIP3    H260707   4.484   6.387   0.433 -1.9696 -0.9112  2.2300
13098TIP3   OH260708   0.864   3.084  11.685 -0.3458  0.6847  0.4646
13098TIP3    H160709   0.863   3.175  11.715  2.1118  0.6629  0.7635
13098TIP3    H260710   0.951   3.072  11.647  0.1231 -2.0693  2.1515
13099TIP3   OH260711   0.430   1.492  11.800  0.1899 -0.0453  0.1274
13099TIP3    H160712   0.448   1.400  11.782 -2.6591 -0.8524  0.9019
13099TIP3    H260713   0.439   1.536  11.715  1.2315 -1.0808 -0.3183
13100TIP3   OH260714   4.349   0.874  14.071  0.7458  0.5649 -0.5851
13100TIP3    H160715   4.389   0.948  14.117  2.2943  0.6333 -1.9729
13100TIP3    H260716   4.370   0.888  13.979  1.8996 -2.0842 -0.8083
13101TIP3   OH260717   3.950   1.551   3.087 -0.0951  0.2805  0.4003
13101TIP3    H160718   3.901   1.503   3.020 -1.5727  0.6440  1.1817
13101TIP3    H260719   3.959   1.488   3.159  2.7585 -0.6065 -0.6161
13102TIP3   OH260720   4.114   4.927   2.613 -0.1047  0.2157  0.4998
13102TIP3    H160721   4.113   4.967   2.526 -0.0402  2.1157  1.3338
13102TIP3    H260722   4.176   4.854   2.605 -0.9589 -0.3760 -1.3294
13103TIP3   OH260723   5.031   5.902   1.670 -0.1699  0.1493 -0.1566
13103TIP3    H160724   5.035   5.972   1.606 -0.7959 -0.9511 -1.4622
13103TIP3    H260725   4.989   5.829   1.624  1.1594 -1.3590  0.8705
13104TIP3   OH260726   6.575   3.458   1.954 -0.1486 -0.1230 -0.0475
13104TIP3    H160727   6.567   3.366   1.928  0.4084 -0.2919  0.3707
13104TIP3    H260728   6.484   3.490   1.955 -0.4102 -0.8610  0.5002
13105TIP3   OH260729   3.387   1.087  14.403 -0.3792 -0.3776 -0.0686
13105TIP3    H160730   3.443   1.134  14.342  0.2463 -0.6077  0.3279
13105TIP3    H260731   3.427   1.100  14.488 -1.4011  0.1667  0.3493
13106TIP3   OH260732   0.887   4.527  14.009  0.3675  0.0996 -0.6356
13106TIP3    H160733   0.799   4.494  13.991  0.2777  0.7646 -1.4508
13106TIP3    H260734   0.873   4.612  14.051  0.5672 -1.3524  2.7479
13107TIP3   OH260735   2.342   1.569  16.205  0.2519  0.0648  0.1002
13107TIP3    H160736   2.295   1.588  16.124  1.4221  0.0846 -0.5947
13107TIP3    H260737   2.382   1.483  16.190  0.5169  0.0895  0.6390
13108TIP3   OH260738   4.166   6.431   1.807 -0.2300 -0.0932 -0.0843
13108TIP3    H160739   4.253   6.456   1.776  0.0027  0.5879  1.0482
13108TIP3    H260740   4.168   6.335   1.812  0.3280 -0.1011 -0.4218
13109TIP3   OH260741   3.801   6.043  13.573  0.6276 -0.2515 -0.5534
13109TIP3    H160742   3.841   6.021  13.657  1.2996  1.3328 -0.4246
13109TIP3    H260743   3.861   6.009  13.507  0.8891 -0.1373 -0.3753
13110TIP3   OH260744   3.526   6.539   0.295  0.6596 -0.0948 -0.6573
13110TIP3    H160745   3.542   6.481   0.369  0.2724  1.4772  0.7075
13110TIP3    H260746   3.574   6.619   0.316  0.3379  0.4852 -1.9974
13111TIP3   OH260747   2.549   6.626  11.929 -0.4074  0.3745 -0.1569
13111TIP3    H160748   2.487   6.631  12.002 -1.4028  1.6339 -1.0291
13111TIP3    H260749   2.493   6.615  11.852  0.6340 -1.1565 -0.7305
13112TIP3   OH260750   0.875   2.731  14.788  0.0813  0.5639 -0.0952
13112TIP3    H160751   0.954   2.678  14.806  0.7174  1.2726 -0.7268
13112TIP3    H260752   0.871   2.735  14.692 -0.3259  1.1134 -0.0578
13113TIP3   OH260753   2.291   1.628   5.718 -0.0206  0.7460 -0.2164
13113TIP3    H160754   2.283   1.706   5.773  0.3961  0.8935 -0.3597
13113TIP3    H260755   2.250   1.559   5.770  1.7306  0.5362  0.9965
13114TIP3   OH260756   1.249   0.482   5.223  0.5655 -0.2246  0.2395
13114TIP3    H160757   1.172   0.505   5.172  0.5451  1.2145  0.8582
13114TIP3    H260758   1.299   0.422   5.168 -0.3803 -0.1820 -0.6713
13115TIP3   OH260759   3.269   1.058   6.444 -0.1437 -0.0062 -0.5652
13115TIP3    H160760   3.238   1.069   6.534 -0.3908  1.0795 -0.7698
13115TIP3    H260761   3.364   1.051   6.452 -0.1006  0.8483 -0.2748
13116TIP3   OH260762   6.428   2.238   2.155  0.3015  0.6852 -0.3754
13116TIP3    H160763   6.469   2.183   2.222 -2.6640  0.1163  1.1310
13116TIP3    H260764   6.439   2.189   2.074 -0.5876 -1.2337  0.6124
13117TIP3   OH260765   4.000   4.476   0.901 -0.0434  0.2503  0.7164
13117TIP3    H160766   3.957   4.482   0.987 -0.1135 -0.9013  0.7773
13117TIP3    H260767   3.929   4.491   0.839 -0.2613 -0.2383  0.8424
13118TIP3   OH260768   1.668   1.924  14.319  0.0154  0.5930 -0.3762
13118TIP3    H160769   1.620   1.994  14.363 -0.2851  0.0931  0.1135
13118TIP3    H260770   1.685   1.957  14.231 -1.2356  0.7745 -0.5703
13119TIP3   OH260771   1.022   0.533   4.288 -0.6522 -0.0973  0.0281
13119TIP3    H160772   1.016   0.629   4.287 -0.4036 -0.0821 -0.1068
13119TIP3    H260773   0.999   0.508   4.198 -1.0030 -0.1822  0.1409
13120TIP3   OH260774   5.256   2.147   4.418  0.0876 -0.3823  0.4817
13120TIP3    H160775   5.233   2.120   4.329  1.5339  3.6295 -1.3235
13120TIP3    H260776   5.346   2.115   4.429  0.2988  0.0529  0.0534
13121TIP3   OH260777   2.480   4.102   4.288 -0.2732 -0.0192  0.8721
13121TIP3    H160778   2.522   4.186   4.275  0.0819 -0.3328 -0.0542
13121TIP3    H260779   2.391   4.114   4.256  0.1328 -0.3301 -0.4361
13122TIP3   OH260780   2.216   6.529   4.353  0.1651  0.1464 -0.2592
13122TIP3    H160781   2.269   6.533   4.274  1.2597  0.8230  0.4802
13122TIP3    H260782   2.132   6.492   4.325 -0.1744  2.1287 -2.1122
13123TIP3   OH260783   6.616   1.954   0.094  0.1483 -0.1444  1.0010
13123TIP3    H160784   6.559   1.972   0.168  0.6937  0.0148  1.3858
13123TIP3    H260785   6.689   1.906   0.132 -0.1692 -1.1630  0.3646
13124TIP3   OH260786   5.747   2.040   1.244  0.2665 -0.0139 -0.4922
13124TIP3    H160787   5.795   2.071   1.168  0.8414  0.8883  0.2222
13124TIP3    H260788   5.730   2.118   1.296 -1.6130 -0.3555 -0.4907
13125TIP3   OH260789   5.848   1.060  13.809  0.0967 -0.0685  0.7133
13125TIP3    H160790   5.925   1.037  13.861 -1.8768 -0.3366  3.8093
13125TIP3    H260791   5.839   1.155  13.819  0.5627  0.1107 -0.4831
13126TIP3   OH260792   4.656   3.197   0.942  0.1811  0.0171  0.1905
13126TIP3    H160793   4.683   3.147   0.865  2.0721  1.9759 -0.5385
13126TIP3    H260794   4.566   3.224   0.922 -0.0391 -1.1059 -0.4284
13127TIP3   OH260795   4.556   6.027  16.551  0.2915  0.1072 -0.1165
13127TIP3    H160796   4.634   6.004  16.602  0.7039 -0.7149 -1.0846
13127TIP3    H260797   4.590   6.049  16.464 -0.7422 -4.1135 -1.8512
13128TIP3   OH260798   5.324   0.490  13.649 -0.0099  0.1333  0.4917
13128TIP3    H160799   5.293   0.553  13.714 -0.6378 -0.7562  1.0738
13128TIP3    H260800   5.405   0.455  13.686 -0.2008 -0.1404  0.6576
13129TIP3   OH260801   1.478   1.415  10.529 -0.3511  0.3699  0.1902
13129TIP3    H160802   1.565   1.455  10.526 -0.5929  0.8765 -0.5850
13129TIP3    H260803   1.420   1.482  10.493 -0.8100 -0.5640 -0.8800
13130TIP3   OH260804   5.298   2.082  17.070 -1.1120  0.3706  0.0189
13130TIP3    H160805   5.306   2.175  17.092 -2.6491  0.4385  0.4175
13130TIP3    H260806   5.313   2.078  16.976  0.2781  0.8201  0.1965
13131TIP3   OH260807   5.726   1.313   0.630  0.2491 -0.4215 -0.0162
13131TIP3    H160808   5.642   1.266   0.625  0.6955 -1.1054 -1.5283
13131TIP3    H260809   5.745   1.338   0.540  0.8098  1.3271  0.5552
13132TIP3   OH260810   0.825   5.867   5.175 -0.6825 -0.4147 -0.0046
13132TIP3    H160811   0.732   5.851   5.157 -0.9706 -0.0049  1.0701
13132TIP3    H260812   0.838   5.836   5.264 -0.5327  2.3341  1.0012
13133TIP3   OH260813   5.956   0.217  15.971 -0.2873  0.5106  0.4253
13133TIP3    H160814   6.017   0.145  15.988 -0.0538  0.9100  1.3236
13133TIP3    H260815   5.946   0.218  15.876  0.0733 -0.4081  0.3668
13134TIP3   OH260816   5.155   4.144  15.496  0.2773  0.0888  0.2347
13134TIP3    H160817   5.124   4.140  15.406  1.4111 -0.1751 -0.1607
13134TIP3    H260818   5.116   4.067  15.538  0.9981 -0.6734 -0.4563
13135TIP3   OH260819   5.545   4.491   5.015 -0.3177  0.5186  0.0426
13135TIP3    H160820   5.608   4.534   4.958 -0.0410 -0.4517 -0.4100
13135TIP3    H260821   5.551   4.398   4.992 -1.8050  0.3764  0.0866
13136TIP3   OH260822   0.277   6.194   4.881  0.5519  0.2974  0.5385
13136TIP3    H160823   0.339   6.166   4.812 -0.6604 -0.2929 -0.3466
13136TIP3    H260824   0.325   6.178   4.963  1.4220 -0.5643 -0.1021
13137TIP3   OH260825   2.407   0.894   0.957 -0.3418  0.2641  0.3511
13137TIP3    H160826   2.363   0.902   1.042 -0.0592  1.1967  0.4239
13137TIP3    H260827   2.465   0.970   0.953 -0.6892  0.4849 -0.8797
13138TIP3   OH260828   1.577   3.813   5.476  0.2884  0.1473  0.2699
13138TIP3    H160829   1.528   3.785   5.554 -1.7424 -2.0862 -1.6431
13138TIP3    H260830   1.650   3.751   5.471  0.7030  0.5987  0.6320
13139TIP3   OH260831   5.073   4.011  17.030 -0.3625  0.0027  0.0601
13139TIP3    H160832   5.141   4.062  17.075  0.9750 -0.0864 -1.7271
13139TIP3    H260833   5.083   3.922  17.063 -0.7650  0.3172  1.0535
13140TIP3   OH260834   1.789   3.633   4.177 -0.5554 -0.2142 -0.6207
13140TIP3    H160835   1.827   3.688   4.109 -1.4506 -1.0573 -1.8618
13140TIP3    H260836   1.698   3.664   4.185 -0.7277 -0.7368 -0.5004
13141TIP3   OH260837   1.081   0.194   5.828 -0.0986  0.3094 -0.3209
13141TIP3    H160838   1.008   0.255   5.838  1.9739  2.9892 -0.4010
13141TIP3    H260839   1.108   0.174   5.917  0.8140  1.7032 -0.2355
13142TIP3   OH260840   1.396   6.417  11.365  0.3214  0.3452 -0.6155
13142TIP3    H160841   1.367   6.468  11.440 -1.7964  0.5096 -1.4751
13142TIP3    H260842   1.319   6.365  11.340  1.9859 -2.3292 -0.5855
13143TIP3   OH260843   3.407   6.333  16.886 -0.0882 -0.1325  0.3272
13143TIP3    H160844   3.350   6.403  16.854 -0.3153 -1.2669 -1.9612
13143TIP3    H260845   3.349   6.257  16.894  0.5229 -0.5481  0.9388
13144TIP3   OH260846   5.362   1.320   6.213 -0.9083  0.6653 -0.2647
13144TIP3    H160847   5.342   1.231   6.243 -1.9092  1.1837  0.6781
13144TIP3    H260848   5.297   1.375   6.257  0.5326  2.0323  0.2338
13145TIP3   OH260849   4.061   1.916  16.456  0.3475  0.1058 -0.0198
13145TIP3    H160850   4.036   1.999  16.416  0.8416 -0.2235 -1.0464
13145TIP3    H260851   4.129   1.939  16.519  0.9220  0.4278 -0.7395
13146TIP3   OH260852   0.240   4.391   3.554  0.5937 -0.7039  0.2031
13146TIP3    H160853   0.263   4.462   3.494  0.2959 -0.6072  0.2040
13146TIP3    H260854   0.323   4.344   3.568  0.9541  0.0629  0.7612
13147TIP3   OH260855   4.972   5.683  12.906 -0.1106  0.2676 -0.0127
13147TIP3    H160856   5.001   5.764  12.948  0.4342  0.5093 -0.8261
13147TIP3    H260857   4.935   5.631  12.977 -0.1238  1.0752  0.5859
13148TIP3   OH260858   4.393   0.450   0.279 -0.2778 -0.1464  0.1025
13148TIP3    H160859   4.299   0.460   0.262 -0.3421 -1.2485 -0.2737
13148TIP3    H260860   4.407   0.355   0.281  0.4999 -0.0408  1.9998
13149TIP3   OH260861   5.628   3.244   1.840  0.3144 -0.5604  0.7399
13149TIP3    H160862   5.604   3.154   1.860  0.8271 -0.4928  1.7259
13149TIP3    H260863   5.554   3.296   1.872  0.2038 -0.5987  0.5482
13150TIP3   OH260864   2.535   0.970   0.438  0.3577 -0.0430 -0.3641
13150TIP3    H160865   2.614   0.988   0.489  0.2745 -1.1967  0.2183
13150TIP3    H260866   2.531   0.874   0.433 -0.1179  0.0289 -1.8071
13151TIP3   OH260867   4.880   1.967  15.208 -0.3512  0.4661 -0.4946
13151TIP3    H160868   4.894   2.061  15.197 -0.3246  0.4587 -0.5252
13151TIP3    H260869   4.901   1.950  15.300 -3.2479  1.0194  0.3797
13152TIP3   OH260870   3.990   5.814  14.597  0.1377  0.0896  0.2342
13152TIP3    H160871   3.973   5.728  14.636  1.9977  0.1259  1.2436
13152TIP3    H260872   4.036   5.862  14.665 -0.3775  1.7116 -0.5267
13153TIP3   OH260873   4.718   3.133  14.844  0.1621  0.1230 -0.2378
13153TIP3    H160874   4.783   3.203  14.833  0.4963  0.0275  0.9713
13153TIP3    H260875   4.634   3.175  14.825  0.5006  0.4641 -1.0031
13154TIP3   OH260876   4.102   1.332   5.265  0.2224  0.5011  0.1540
13154TIP3    H160877   4.143   1.390   5.329 -2.3290  1.1119  1.3567
13154TIP3    H260878   4.109   1.244   5.303 -0.3577  0.7247  0.7912
13155TIP3   OH260879   1.046   4.534  10.360  0.2909 -0.8166 -0.2301
13155TIP3    H160880   0.967   4.569  10.319 -0.7210  1.6758  3.3594
13155TIP3    H260881   1.104   4.609  10.370  1.3069 -1.7139  1.0081
13156TIP3   OH260882   1.706   4.218  13.603  0.3263  0.4907  0.1005
13156TIP3    H160883   1.792   4.177  13.601  0.3489  0.5034  0.6843
13156TIP3    H260884   1.686   4.237  13.511  0.3008 -0.8630 -0.2037
13157TIP3   OH260885   2.649   3.273  13.680  0.3900  0.5495 -0.6566
13157TIP3    H160886   2.621   3.183  13.663 -0.1481 -0.0952  2.8433
13157TIP3    H260887   2.575   3.327  13.651 -1.0666 -0.5117  0.9010
13158TIP3   OH260888   0.422   4.785   4.259  0.3574 -0.1298  0.4397
13158TIP3    H160889   0.331   4.789   4.230  0.5372 -0.1164 -0.1352
13158TIP3    H260890   0.417   4.791   4.355 -0.1313  2.3900  0.3373
13159TIP3   OH260891   0.636   6.553  12.918  0.0737  0.0270 -0.6314
13159TIP3    H160892   0.589   6.635  12.903  0.8092  0.3068 -1.5145
13159TIP3    H260893   0.602   6.521  13.001 -3.0094 -0.6931 -2.0313
13160TIP3   OH260894   4.133   0.696   1.953 -0.5279 -0.2606  0.2785
13160TIP3    H160895   4.213   0.724   1.998  0.2646  1.0036 -1.7991
13160TIP3    H260896   4.064   0.751   1.990 -0.2081 -0.3436  1.0325
13161TIP3   OH260897   3.134   0.485  11.853  0.1398  0.3113  0.5545
13161TIP3    H160898   3.073   0.441  11.794  0.8488 -0.0335  0.0605
13161TIP3    H260899   3.123   0.440  11.937 -0.4398  0.4043  0.5345
13162TIP3   OH260900   5.705   6.135   4.196 -0.3441  0.7755  0.2749
13162TIP3    H160901   5.665   6.093   4.120 -0.3264  3.3022 -1.2437
13162TIP3    H260902   5.796   6.151   4.169 -0.0968  0.9271  1.1768
13163TIP3   OH260903   3.262   5.374   6.263 -0.1401  0.2483  0.0945
13163TIP3    H160904   3.213   5.401   6.186 -0.1870 -0.1670 -0.0278
13163TIP3    H260905   3.201   5.382   6.335  0.4546  2.4761  0.4164
13164TIP3   OH260906   2.605   5.908   0.919 -0.6496 -0.0954  0.1176
13164TIP3    H160907   2.608   5.976   0.851 -2.2267  0.2692  0.3825
13164TIP3    H260908   2.672   5.936   0.982 -1.8202  1.7397  0.6527
13165TIP3   OH260909   1.146   4.694   6.215  0.5031 -0.3509 -0.2220
13165TIP3    H160910   1.228   4.684   6.263 -0.9716 -0.9239  2.3896
13165TIP3    H260911   1.161   4.767   6.155  3.1657 -1.0259 -0.5022
13166TIP3   OH260912   5.591   0.317   2.319 -0.0517 -0.2677  0.4889
13166TIP3    H160913   5.618   0.408   2.313 -0.9537  0.2908  3.4051
13166TIP3    H260914   5.671   0.269   2.339  0.1442  0.1487  0.7055
13167TIP3   OH260915   0.770   5.812  14.788  0.0742 -0.0822  0.0479
13167TIP3    H160916   0.674   5.805  14.794  0.0777 -0.6250 -0.4120
13167TIP3    H260917   0.799   5.723  14.767  0.4551  0.5225 -2.2884
13168TIP3   OH260918   6.134   6.664  14.835  0.3286 -0.0916  0.1062
13168TIP3    H160919   6.090   6.743  14.864  0.7936 -0.2400  1.2924
13168TIP3    H260920   6.091   6.593  14.883  0.3955 -0.4761 -0.3934
13169TIP3   OH260921   2.573   5.242   1.048 -0.2671 -0.2372 -0.7520
13169TIP3    H160922   2.566   5.280   0.960  1.5088  0.4809 -0.6184
13169TIP3    H260923   2.548   5.314   1.107 -1.8995 -0.8486 -0.6421
13170TIP3   OH260924   5.968   4.187  16.524  0.3619 -0.4744 -0.4276
13170TIP3    H160925   5.891   4.238  16.498  0.2564  0.0483  0.8163
13170TIP3    H260926   6.021   4.249  16.575  0.8346 -1.2585  0.0526
13171TIP3   OH260927   2.023   1.425  16.735 -0.1984  0.6722 -0.0659
13171TIP3    H160928   2.039   1.331  16.721 -1.6803  0.6438 -2.1643
13171TIP3    H260929   2.037   1.438  16.829 -2.4501 -2.2324  0.8528
13172TIP3   OH260930   5.787   1.216   2.127 -0.0666  0.2203 -0.4489
13172TIP3    H160931   5.818   1.125   2.133 -2.3140 -0.6001 -0.2951
13172TIP3    H260932   5.845   1.265   2.184  0.2821 -1.4016  0.6603
13173TIP3   OH260933   5.187   1.757  14.584  0.3388 -0.0463  0.5175
13173TIP3    H160934   5.281   1.742  14.595  0.2921 -0.8188 -0.0333
13173TIP3    H260935   5.169   1.727  14.495 -0.4041  0.2444  0.5694
13174TIP3   OH260936   2.060   1.632   1.142 -0.6420  0.5514 -0.8157
13174TIP3    H160937   1.980   1.604   1.187 -1.1460  0.9187 -1.4704
13174TIP3    H260938   2.122   1.650   1.213 -0.4408 -1.6940 -0.3229
13175TIP3   OH260939   6.132   4.045  15.029 -0.6786 -0.0066 -0.4153
13175TIP3    H160940   6.223   4.026  15.009 -0.6044  0.2370 -0.3175
13175TIP3    H260941   6.112   3.993  15.107 -1.0539 -1.1783 -1.2712
13176TIP3   OH260942   5.467   4.542  10.640 -0.2429  0.2467  0.1697
13176TIP3    H160943   5.528   4.603  10.599  0.5622 -0.0802  0.8312
13176TIP3    H260944   5.420   4.502  10.567 -1.7539  2.5641 -0.2539
13177TIP3   OH260945   6.659   0.159  12.666  0.1307  0.4885 -0.2375
13177TIP3    H160946   6.580   0.200  12.700 -0.7929 -0.8461 -0.6592
13177TIP3    H260947   6.661   0.073  12.708  0.6231 -0.0057 -1.2263
13178TIP3   OH260948   2.596   6.407   0.203 -0.0869  0.1355  0.1401
13178TIP3    H160949   2.635   6.320   0.201 -0.2432  0.0419 -2.7872
13178TIP3    H260950   2.563   6.416   0.293  0.1455 -2.6907  0.6047
13179TIP3   OH260951   5.411   4.125   4.157  0.1678  0.4422  0.0619
13179TIP3    H160952   5.324   4.110   4.120  0.6805  0.1939 -1.0705
13179TIP3    H260953   5.407   4.086   4.245 -0.0567 -1.9481 -0.9529
13180TIP3   OH260954   4.799   5.807   0.495  0.6233  0.3054 -0.2732
13180TIP3    H160955   4.854   5.738   0.459  0.7496  0.4141 -0.2871
13180TIP3    H260956   4.776   5.776   0.583  0.5222  0.1574 -0.3525
13181TIP3   OH260957   1.179   6.312   3.024 -0.2217 -0.0883 -0.2053
13181TIP3    H160958   1.244   6.379   3.042  1.5046 -1.7305 -0.0262
13181TIP3    H260959   1.097   6.348   3.058  0.7422  1.6780  0.3518
13182TIP3   OH260960   3.380   0.383  16.692  0.3888 -0.3607 -0.4534
13182TIP3    H160961   3.359   0.430  16.612  0.8543  0.2583 -0.2140
13182TIP3    H260962   3.323   0.421  16.758  1.2108  0.3299 -0.1195
13183TIP3   OH260963   5.581   3.793  16.142  0.2075  0.1940 -0.4064
13183TIP3    H160964   5.596   3.887  16.133  1.1933  0.1422  0.5400
13183TIP3    H260965   5.650   3.752  16.091  0.5020 -0.0153  0.1503
13184TIP3   OH260966   6.314   2.686  15.016 -0.3450 -0.1897 -0.5045
13184TIP3    H160967   6.265   2.604  15.021 -0.7259  0.1306  1.5921
13184TIP3    H260968   6.373   2.685  15.091  1.3233  0.4506 -1.7285
13185TIP3   OH260969   5.106   3.168  15.834  0.4705  0.2577  0.3793
13185TIP3    H160970   5.100   3.162  15.739  0.8036  2.1633  0.1961
13185TIP3    H260971   5.026   3.215  15.860  2.1926  3.3318  0.5586
13186TIP3   OH260972   1.081   6.012   0.066  0.1199 -0.0932  0.6714
13186TIP3    H160973   0.987   6.023   0.049  0.5521  1.5356 -0.9361
13186TIP3    H260974   1.093   5.917   0.070 -1.6000 -0.3427  1.0211
13187TIP3   OH260975   3.017   6.390  11.224 -0.2295 -0.8043 -0.5948
13187TIP3    H160976   2.993   6.315  11.170 -0.3403 -1.4370  0.3115
13187TIP3    H260977   2.934   6.431  11.247 -0.1126  1.6242 -3.7773
13188TIP3   OH260978   5.644   3.446  14.265  0.1727  0.1868  0.0794
13188TIP3    H160979   5.603   3.461  14.350  1.0902  1.1501  0.3809
13188TIP3    H260980   5.664   3.352  14.264  0.3628  0.2040  1.0356
13189TIP3   OH260981   4.512   5.873   0.599 -0.0293 -0.7185  0.7444
13189TIP3    H160982   4.456   5.934   0.648  1.0839 -0.2278  1.4602
13189TIP3    H260983   4.592   5.923   0.584  0.0625 -1.2618 -0.6270
13190TIP3   OH260984   5.993   0.911  12.902 -0.1570  0.3315 -0.1253
13190TIP3    H160985   5.936   0.978  12.864 -0.4104 -0.0137 -0.3628
13190TIP3    H260986   6.062   0.960  12.946 -2.1298  0.8601  2.6064
13191TIP3   OH260987   1.076   4.599   5.160  0.0883 -0.3316 -0.5166
13191TIP3    H160988   1.109   4.657   5.228  0.5157 -1.1595 -0.0058
13191TIP3    H260989   1.155   4.563   5.119 -0.1543 -1.5258  0.0253
13192TIP3   OH260990   6.570   1.185  15.628  0.5008 -0.9663  0.8707
13192TIP3    H160991   6.639   1.239  15.666  1.1634 -0.8291 -0.4535
13192TIP3    H260992   6.532   1.139  15.702  2.7192 -1.8464  1.5410
13193TIP3   OH260993   6.131   1.473  11.916 -0.5219  0.3108  0.0426
13193TIP3    H160994   6.216   1.502  11.881  0.4884 -3.7921 -1.4697
13193TIP3    H260995   6.154   1.411  11.985 -2.2975 -0.6472 -0.1968
13194TIP3   OH260996   4.012   3.369   3.016  0.1405  0.2525 -0.7608
13194TIP3    H160997   4.041   3.280   3.000  0.1173  0.3336 -1.2585
13194TIP3    H260998   3.950   3.362   3.089  1.7722  0.1405  0.6727
13195TIP3   OH260999   3.876   6.127  15.958 -0.2554 -0.1221  0.3753
13195TIP3    H161000   3.874   6.131  16.054 -0.4502  1.3367  0.3432
13195TIP3    H261001   3.808   6.189  15.931 -0.0633 -0.3703 -0.7122
13196TIP3   OH261002   1.011   3.466  11.492  0.3725 -0.2429 -0.1442
13196TIP3    H161003   0.983   3.415  11.568 -1.4037 -1.2515 -1.3747
13196TIP3    H261004   1.106   3.458  11.491  0.4993  0.2086  2.1979
13197TIP3   OH261005   3.847   4.606   1.809  0.4081  0.1506  0.5155
13197TIP3    H161006   3.832   4.692   1.771 -1.3009 -0.3288 -0.0159
13197TIP3    H261007   3.760   4.564   1.808  1.4158 -2.1067 -0.5648
13198TIP3   OH261008   6.221   1.491  10.665  0.2088 -0.2476 -0.1402
13198TIP3    H161009   6.183   1.529  10.744 -3.4403  0.8737 -2.1604
13198TIP3    H261010   6.146   1.454  10.619  2.0466 -0.3777 -3.3059
13199TIP3   OH261011   4.775   1.668  16.691 -0.5518  0.0174  0.3415
13199TIP3    H161012   4.768   1.629  16.604  2.9728  1.0871 -0.5992
13199TIP3    H261013   4.843   1.735  16.681  0.1888 -0.0022  3.9821
13200TIP3   OH261014   5.348   0.100   4.583 -0.2118 -0.5468  0.0621
13200TIP3    H161015   5.351   0.150   4.502 -1.2237 -0.2557  0.1950
13200TIP3    H261016   5.255   0.089   4.602 -0.0193  0.1034  1.6096
13201TIP3   OH261017   6.417   0.115  16.820  0.1346  0.0069  0.3945
13201TIP3    H161018   6.377   0.184  16.874  1.7994  0.9636  0.4736
13201TIP3    H261019   6.387   0.034  16.860  0.5023  0.6884  2.1456
13202TIP3   OH261020   1.899   5.127  12.784  0.5815  0.1048  0.3944
13202TIP3    H161021   1.805   5.112  12.789  0.7470 -0.6260  2.0437
13202TIP3    H261022   1.935   5.042  12.758  0.9482 -0.3122  2.1688
13203TIP3   OH261023   1.994   5.417  10.614  0.2728 -0.3167 -0.1917
13203TIP3    H161024   2.025   5.474  10.684 -1.9208 -0.3986  0.9144
13203TIP3    H261025   2.038   5.334  10.629  0.6353 -0.0158  0.4281
13204TIP3   OH261026   1.278   0.130   6.403 -0.1907  0.0006  0.1405
13204TIP3    H161027   1.367   0.161   6.417 -0.1773  0.6659 -1.2545
13204TIP3    H261028   1.284   0.035   6.408  0.6918  0.0205 -0.3634
13205TIP3   OH261029   1.839   4.902  17.162 -0.4461 -0.1093  0.0268
13205TIP3    H161030   1.779   4.965  17.202  0.0219  0.1351  0.3469
13205TIP3    H261031   1.920   4.910  17.212 -0.0683 -0.2820 -0.5425
13206TIP3   OH261032   3.142   4.672  12.034  0.4704 -0.3026  0.1025
13206TIP3    H161033   3.182   4.609  11.973 -0.6932  2.0332 -3.4146
13206TIP3    H261034   3.048   4.658  12.024  0.2273 -0.3346  2.0644
13207TIP3   OH261035   5.665   2.690  11.253 -0.4674  0.2715  0.3295
13207TIP3    H161036   5.664   2.724  11.342 -1.6542 -1.3672  0.9863
13207TIP3    H261037   5.698   2.601  11.262 -0.5112  0.1177 -0.8867
13208TIP3   OH261038   1.812   2.584  12.299 -0.0674 -0.2902  0.4694
13208TIP3    H161039   1.886   2.571  12.359 -0.9232 -0.0668  1.6112
13208TIP3    H261040   1.750   2.516  12.322  0.0512 -0.9156 -0.9600
13209TIP3   OH261041   5.015   2.178  15.824 -0.1936 -0.1996 -0.1212
13209TIP3    H161042   5.062   2.250  15.781  0.0035 -0.5296 -0.4663
13209TIP3    H261043   5.067   2.100  15.804 -1.2587 -0.6854 -1.1216
13210TIP3   OH261044   5.061   5.746  11.559 -0.6760  0.3167 -0.1960
13210TIP3    H161045   5.004   5.671  11.579 -0.5823 -0.1346 -1.4872
13210TIP3    H261046   5.087   5.780  11.644 -1.8012 -0.2978  0.4220
13211TIP3   OH261047   2.468   5.605  11.777 -0.1090 -0.4824  0.1102
13211TIP3    H161048   2.525   5.669  11.735  1.8409 -1.6161  0.8748
13211TIP3    H261049   2.411   5.657  11.834  0.8059  0.6378  0.0335
13212TIP3   OH261050   6.030   6.485   4.494 -0.4167  0.8649  0.0575
13212TIP3    H161051   6.061   6.441   4.573  1.8651  0.2868 -1.0745
13212TIP3    H261052   5.956   6.538   4.523 -0.0178  0.2078  2.4499
13213TIP3   OH261053   4.897   5.106  15.244 -0.1151  0.2907  0.8520
13213TIP3    H161054   4.822   5.163  15.231 -1.3219 -0.9496  2.1063
13213TIP3    H261055   4.972   5.159  15.219 -1.3851  1.5837 -0.3819
13214TIP3   OH261056   1.552   4.843   3.784 -0.0886 -0.6487 -0.2576
13214TIP3    H161057   1.460   4.871   3.791 -0.6301 -2.2847 -0.3590
13214TIP3    H261058   1.563   4.780   3.856  1.2081  0.1192  0.2494
13215TIP3   OH261059   4.135   0.369  14.655 -0.1236  0.0653  0.1330
13215TIP3    H161060   4.186   0.362  14.735  1.3528 -2.8188 -0.9070
13215TIP3    H261061   4.185   0.429  14.600  0.4574 -0.2524  0.3067
13216TIP3   OH261062   3.364   5.712  10.733  0.4939 -0.0114  0.1476
13216TIP3    H161063   3.458   5.706  10.745  0.6339  1.4081 -0.0917
13216TIP3    H261064   3.352   5.779  10.665 -0.6874  0.3305  0.6585
13217TIP3   OH261065   0.321   3.106   3.228 -0.1014  0.2752 -0.1236
13217TIP3    H161066   0.268   3.049   3.172  1.2855 -1.6984  0.4243
13217TIP3    H261067   0.383   3.148   3.168 -0.7580  0.7807 -0.4612
13218TIP3   OH261068   2.833   2.271  14.635  0.5560 -0.0671  0.0107
13218TIP3    H161069   2.799   2.244  14.721  1.1998 -1.3138 -0.1094
13218TIP3    H261070   2.872   2.357  14.651 -0.1120  0.1126  0.7644
13219TIP3   OH261071   5.456   3.901   4.980 -0.5954  0.4794 -0.4142
13219TIP3    H161072   5.397   3.829   5.004  1.6026 -2.5384 -3.1008
13219TIP3    H261073   5.500   3.923   5.062 -0.1095 -2.5805  0.2894
13220TIP3   OH261074   6.027   4.739  17.147  0.4524 -0.8892  0.1463
13220TIP3    H161075   6.107   4.788  17.165  0.4326 -0.7240 -0.2036
13220TIP3    H261076   6.029   4.724  17.052 -0.2349 -0.3563  0.0408
13221TIP3   OH261077   4.485   0.932  10.865 -0.6269  0.0375 -0.6123
13221TIP3    H161078   4.527   0.986  10.799 -0.8833  0.8108 -0.1521
13221TIP3    H261079   4.404   0.978  10.887 -0.2759  0.0952  0.6455
13222TIP3   OH261080   5.619   1.026  12.001 -0.6370 -0.6408  0.2051
13222TIP3    H161081   5.666   0.952  11.964 -0.6328 -0.8192  0.5592
13222TIP3    H261082   5.532   1.023  11.961 -0.8586 -1.2329  0.7163
13223TIP3   OH261083   1.846   6.455  17.046 -0.9623 -0.0395 -0.0170
13223TIP3    H161084   1.804   6.489  17.125 -0.4435 -0.3450  0.3957
13223TIP3    H261085   1.793   6.379  17.021  0.9763 -2.3462  2.2596
13224TIP3   OH261086   5.765   4.114  12.154  0.0939 -0.0230  0.7496
13224TIP3    H161087   5.789   4.123  12.062 -0.8440 -0.6693  0.4202
13224TIP3    H261088   5.716   4.194  12.175 -1.1071 -0.5757  0.1930
13225TIP3   OH261089   3.469   0.379   0.132 -0.1760 -0.0788 -0.0368
13225TIP3    H161090   3.499   0.391   0.042 -1.6571  1.2480 -0.4002
13225TIP3    H261091   3.480   0.286   0.148 -0.3341 -0.4351 -1.7727
13226TIP3   OH261092   4.531   0.486   2.129  0.2826  0.5492 -0.3892
13226TIP3    H161093   4.561   0.445   2.210 -0.5332  1.4553  0.4020
13226TIP3    H261094   4.522   0.413   2.067 -2.5894 -0.8157  1.4008
13227TIP3   OH261095   2.612   6.543  13.991  0.3686  0.2993 -0.2479
13227TIP3    H161096   2.679   6.605  14.021 -0.6736  1.1612  0.3446
13227TIP3    H261097   2.586   6.497  14.071  1.1689 -0.9663 -0.6887
13228TIP3   OH261098   4.431   5.347   1.181  0.2180 -0.3959  0.0034
13228TIP3    H161099   4.391   5.345   1.094  0.1505  0.2653  0.0107
13228TIP3    H261100   4.406   5.432   1.217 -0.5075 -1.0300  1.0327
13229TIP3   OH261101   0.393   1.050   5.738 -0.0736 -0.4146 -0.5861
13229TIP3    H161102   0.420   0.993   5.666 -0.0203 -1.2567  0.0812
13229TIP3    H261103   0.375   1.134   5.696 -0.4521 -0.9988 -1.6411
13230TIP3   OH261104   4.083   0.929  11.919  0.7120 -0.3183  0.0130
13230TIP3    H161105   4.023   0.936  11.845  0.0849 -0.0387  0.5337
13230TIP3    H261106   4.054   0.850  11.966 -2.8682  2.5650  3.3255
13231TIP3   OH261107   3.796   3.895   4.123  0.1070  0.2630  0.1129
13231TIP3    H161108   3.777   3.929   4.035  0.7300  1.8560  0.5628
13231TIP3    H261109   3.841   3.812   4.107 -0.2927  0.2561 -1.0589
13232TIP3   OH261110   0.915   1.200  13.421  0.1202  0.2990 -0.3953
13232TIP3    H161111   0.958   1.269  13.470 -1.5657  2.6554 -1.9853
13232TIP3    H261112   0.945   1.212  13.331 -0.9122 -0.4191 -0.8582
13233TIP3   OH261113   2.345   6.327   6.315  0.2725 -0.4732  0.0607
13233TIP3    H161114   2.286   6.378   6.370  0.0984 -0.5571 -0.0473
13233TIP3    H261115   2.429   6.373   6.322  0.8001 -1.6254  2.0140
13234TIP3   OH261116   6.160   2.975   1.860 -0.0846  0.0788 -0.3019
13234TIP3    H161117   6.139   2.887   1.893  4.1082 -1.2919 -0.6985
13234TIP3    H261118   6.093   3.032   1.899 -2.1599 -3.0302  1.1061
13235TIP3   OH261119   3.461   3.553  13.845  0.3347 -0.3242  0.0841
13235TIP3    H161120   3.523   3.491  13.806  1.0245 -1.0103  2.1507
13235TIP3    H261121   3.410   3.501  13.907 -0.4105  0.8042  0.4609
13236TIP3   OH261122   6.210   3.591   0.297 -0.3284  0.2285 -0.0989
13236TIP3    H161123   6.241   3.603   0.207 -0.7360 -1.1361 -0.4579
13236TIP3    H261124   6.115   3.604   0.291 -0.4279 -0.3970  0.0101
13237TIP3   OH261125   0.681   3.009   1.310  0.1432 -0.9940  0.0993
13237TIP3    H161126   0.632   3.062   1.247 -0.6842 -1.1470  0.5991
13237TIP3    H261127   0.685   3.062   1.389  1.0531 -0.8633 -0.0316
13238TIP3   OH261128   5.433   5.508  13.536 -0.2911  0.1945  0.3216
13238TIP3    H161129   5.348   5.465  13.524  1.1147 -3.3462  1.7565
13238TIP3    H261130   5.453   5.498  13.629  1.9290  0.4682 -0.0654
13239TIP3   OH261131   4.504   5.547   0.628 -0.2251 -0.3602  0.1951
13239TIP3    H161132   4.517   5.642   0.633 -0.4469 -0.2912 -0.4636
13239TIP3    H261133   4.490   5.529   0.535 -1.2270 -0.8994  0.4314
13240TIP3   OH261134   2.605   4.401  12.868 -0.5315  0.7869  0.2898
13240TIP3    H161135   2.514   4.372  12.858  0.1054 -1.0112 -0.6587
13240TIP3    H261136   2.618   4.404  12.963 -1.1647 -0.3589  0.4378
13241TIP3   OH261137   3.300   3.350  13.690 -0.3161  0.0692  0.0174
13241TIP3    H161138   3.288   3.299  13.610 -0.0727  1.0201 -0.6429
13241TIP3    H261139   3.391   3.333  13.716 -0.4703 -0.4336  0.2382
13242TIP3   OH261140   1.827   1.500  14.403 -0.2038  0.1718 -0.3484
13242TIP3    H161141   1.799   1.588  14.429 -0.1776  0.1175 -0.1320
13242TIP3    H261142   1.901   1.481  14.461 -0.4499 -0.1416 -0.1381
13243TIP3   OH261143   0.667   0.718  13.663 -0.0400 -0.0209 -0.2123
13243TIP3    H161144   0.716   0.793  13.697  0.6648 -0.4337 -0.3007
13243TIP3    H261145   0.674   0.651  13.731  1.0424 -0.7125 -0.9648
13244TIP3   OH261146   1.956   1.479   1.376 -0.3877 -0.8591  0.3586
13244TIP3    H161147   2.042   1.437   1.380 -0.6976 -1.4931  0.5960
13244TIP3    H261148   1.894   1.406   1.386 -0.9349 -0.2984  1.2166
13245TIP3   OH261149   4.843   6.479  12.948  0.2464 -0.3556  0.5790
13245TIP3    H161150   4.887   6.431  13.018  0.6500 -1.9913 -0.7310
13245TIP3    H261151   4.758   6.503  12.984  0.4976 -1.0660  1.6654
13246TIP3   OH261152   0.728   6.247   5.703  0.3190 -0.4215  0.1273
13246TIP3    H161153   0.748   6.196   5.625 -0.9737  0.0325 -0.5418
13246TIP3    H261154   0.670   6.317   5.672  0.6445  0.4111  1.3119
13247TIP3   OH261155   5.258   6.105   3.754 -0.0299 -0.4431 -0.3738
13247TIP3    H161156   5.250   6.101   3.850  0.4298 -0.0479 -0.3123
13247TIP3    H261157   5.346   6.073   3.737  0.1390  0.1403 -0.6098
13248TIP3   OH261158   0.264   2.829   0.484 -0.2083  0.0158 -0.2820
13248TIP3    H161159   0.323   2.853   0.556  1.0114 -1.8039 -0.5934
13248TIP3    H261160   0.232   2.742   0.507 -1.2439  0.1666 -1.0806
13249TIP3   OH261161   3.307   4.376  14.404  0.3340  0.0401  1.2059
13249TIP3    H161162   3.399   4.388  14.383  0.4042 -0.0008  1.4907
13249TIP3    H261163   3.268   4.342  14.323  0.4330  0.7068  0.8645
13250TIP3   OH261164   1.335   4.631   1.965 -0.3392  0.1161 -0.3617
13250TIP3    H161165   1.381   4.578   1.900  0.1404  0.4448 -0.3005
13250TIP3    H261166   1.359   4.593   2.049  1.5670  1.5362 -0.1755
13251TIP3   OH261167   5.562   6.378   1.263 -0.1514  0.3366  0.2291
13251TIP3    H161168   5.473   6.366   1.295  0.0370 -0.5930  0.4086
13251TIP3    H261169   5.566   6.329   1.181  0.0074  0.9261 -0.1298
13252TIP3   OH261170   3.866   4.841   1.675  0.0818  0.0530  0.4569
13252TIP3    H161171   3.814   4.885   1.608  1.6361  3.2971  1.2105
13252TIP3    H261172   3.956   4.844   1.641  0.4563 -1.3128  1.2345
13253TIP3   OH261173   5.094   1.754  12.353 -0.0830  0.3165 -0.0110
13253TIP3    H161174   5.098   1.849  12.369 -0.3459  0.3809 -0.3307
13253TIP3    H261175   5.000   1.734  12.351 -0.0251 -0.1288  1.1032
13254TIP3   OH261176   1.662   5.653   0.349 -0.1164  0.1279 -0.1662
13254TIP3    H161177   1.601   5.595   0.395 -0.3235  1.5853  1.4977
13254TIP3    H261178   1.747   5.610   0.357 -0.6487 -1.1846 -1.2014
13255TIP3   OH261179   3.180   1.605  14.912 -0.2946  0.0492  0.1877
13255TIP3    H161180   3.163   1.519  14.874 -0.6366  0.2632 -0.1539
13255TIP3    H261181   3.229   1.652  14.845  0.1048  0.0394  0.4705
13256TIP3   OH261182   6.224   6.058   3.959 -0.0759  0.0400  0.0740
13256TIP3    H161183   6.165   6.127   3.989  0.5712  0.8605 -0.4937
13256TIP3    H261184   6.173   5.978   3.968 -1.3169  0.7302 -0.4819
13257TIP3   OH261185   2.983   0.263   1.096 -0.6192 -0.2258 -0.3947
13257TIP3    H161186   2.988   0.321   1.172 -0.6771 -0.5199 -0.1681
13257TIP3    H261187   3.025   0.313   1.025 -0.2817 -0.0810 -0.0933
13258TIP3   OH261188   3.047   3.065   5.898  0.2162  0.3526 -0.1298
13258TIP3    H161189   3.134   3.100   5.878  0.5796 -0.0079  0.7846
13258TIP3    H261190   3.057   2.970   5.892 -0.1101  0.3091 -0.0182
13259TIP3   OH261191   0.103   1.318   1.734 -0.1568  0.8707  0.0313
13259TIP3    H161192   0.143   1.311   1.821  1.1790 -1.7532 -0.6852
13259TIP3    H261193   0.150   1.389   1.691 -0.5384  1.9047  1.2767
13260TIP3   OH261194   5.918   2.614   2.408  0.5170  0.8850  0.1269
13260TIP3    H161195   5.982   2.619   2.337 -0.7321 -0.2835 -1.1294
13260TIP3    H261196   5.864   2.692   2.398  0.1066  0.5320 -0.4635
13261TIP3   OH261197   2.730   4.677   2.627 -0.1293 -0.1926  0.0830
13261TIP3    H161198   2.782   4.716   2.697 -1.2568 -1.3760  1.6418
13261TIP3    H261199   2.792   4.621   2.579  0.2475 -0.8820  1.3417
13262TIP3   OH261200   3.669   2.109   0.416  0.3548 -0.4294  0.3590
13262TIP3    H161201   3.761   2.111   0.441  0.0717 -0.3690  1.4726
13262TIP3    H261202   3.645   2.201   0.403 -0.4802 -0.0166  3.8746
13263TIP3   OH261203   3.882   0.626   0.518 -0.3405  0.1278 -0.3176
13263TIP3    H161204   3.949   0.558   0.526  1.3116  1.7630  0.4051
13263TIP3    H261205   3.804   0.587   0.559  0.5614 -1.2839  0.1466
13264TIP3   OH261206   0.825   6.736   3.974  0.3545  0.4646 -1.0501
13264TIP3    H161207   0.747   6.752   4.028 -0.5568 -2.9229 -1.1493
13264TIP3    H261208   0.894   6.715   4.037  0.2458 -0.0013 -1.0870
13265TIP3   OH261209   0.911   3.555   1.300  0.9347 -0.4562 -0.4827
13265TIP3    H161210   0.824   3.523   1.274 -0.0072  2.9944 -2.1001
13265TIP3    H261211   0.971   3.511   1.240 -0.0090 -0.8733 -1.1583
13266TIP3   OH261212   1.875   4.516   6.094  0.1007 -0.1591 -0.3798
13266TIP3    H161213   1.938   4.554   6.155 -0.3554 -0.0625  0.0443
13266TIP3    H261214   1.799   4.574   6.099 -0.0241 -0.2753 -0.8781
13267TIP3   OH261215   5.874   4.921   3.780  0.1496  0.3959 -0.1164
13267TIP3    H161216   5.876   4.856   3.709  0.5304 -0.5476  0.7310
13267TIP3    H261217   5.955   4.905   3.828  0.3840  1.7078 -0.0542
13268TIP3   OH261218   0.330   5.561   2.931 -0.3476  0.0715  0.1207
13268TIP3    H161219   0.235   5.561   2.915 -0.0974  0.1968 -1.5498
13268TIP3    H261220   0.348   5.473   2.965 -0.9877 -0.1500 -0.0851
13269TIP3   OH261221   2.011   4.258   5.884  0.1376  0.6624  0.5563
13269TIP3    H161222   2.007   4.215   5.798  1.3648  0.3012  0.6589
13269TIP3    H261223   1.923   4.248   5.920 -0.3364  0.6140 -0.5569
13270TIP3   OH261224   6.009   6.455  15.015 -0.2978 -0.2136  0.5859
13270TIP3    H161225   5.938   6.394  15.035 -0.6453  0.4360  1.4142
13270TIP3    H261226   5.988   6.533  15.067 -0.4452  1.0226 -1.2278
13271TIP3   OH261227   4.170   2.769   4.702 -0.4358  0.4038 -0.2418
13271TIP3    H161228   4.218   2.847   4.730  0.8454 -1.4444  3.4195
13271TIP3    H261229   4.081   2.783   4.733  0.1733 -0.1234  1.9972
13272TIP3   OH261230   0.968   1.308   3.400 -0.2442  0.2483  0.7356
13272TIP3    H161231   0.912   1.310   3.322 -0.4754 -0.4099  0.8783
13272TIP3    H261232   1.004   1.396   3.406  0.0961  0.1967 -0.3457
13273TIP3   OH261233   0.425   0.889  13.859 -0.8512  0.7355 -0.1107
13273TIP3    H161234   0.358   0.910  13.794 -1.0115  0.2058 -0.1245
13273TIP3    H261235   0.379   0.895  13.943 -1.7317 -2.3243 -0.2244
13274TIP3   OH261236   3.400   1.351  14.978 -0.4234 -0.1643  0.0402
13274TIP3    H161237   3.358   1.357  14.892 -2.7330  1.0844  1.1507
13274TIP3    H261238   3.467   1.419  14.976 -0.5113 -0.0872 -0.7456
13275TIP3   OH261239   0.934   2.887  16.227  0.2457  0.1384 -0.2500
13275TIP3    H161240   1.003   2.921  16.284 -0.7539 -3.1612  3.3618
13275TIP3    H261241   0.978   2.871  16.144  3.4431 -0.1501  1.3392
13276TIP3   OH261242   4.533   1.323   3.095 -0.5086  0.1991 -0.5967
13276TIP3    H161243   4.554   1.259   3.163 -0.4381 -0.1637 -0.9593
13276TIP3    H261244   4.590   1.398   3.114  0.9426 -0.6624 -1.4042
13277TIP3   OH261245   5.675   3.012  11.946  0.5723 -0.2189  0.4328
13277TIP3    H161246   5.652   3.092  11.992  0.8376 -0.7739  1.5660
13277TIP3    H261247   5.674   3.036  11.853 -2.0068  0.4400  0.5418
13278TIP3   OH261248   6.593   3.369  12.747  0.0257  0.1026  0.0183
13278TIP3    H161249   6.537   3.441  12.776 -0.1160  0.5540 -1.2920
13278TIP3    H261250   6.672   3.412  12.713  1.0983 -0.5070  1.5808
13279TIP3   OH261251   3.692   6.119   4.492 -0.3941 -0.1533 -0.4875
13279TIP3    H161252   3.675   6.028   4.468 -0.5302 -0.2214 -0.1345
13279TIP3    H261253   3.668   6.124   4.585  0.6403 -0.0273 -0.2118
13280TIP3   OH261254   4.903   4.385   2.214 -0.3092  0.2420  0.9645
13280TIP3    H161255   4.891   4.318   2.147  1.0749 -0.3220  1.2265
13280TIP3    H261256   4.994   4.415   2.202  0.1931 -0.3351  2.9454
13281TIP3   OH261257   3.312   0.958  10.781 -0.1613 -0.2444  0.4387
13281TIP3    H161258   3.377   0.978  10.848 -0.0328 -0.3250  0.3390
13281TIP3    H261259   3.319   1.029  10.718  0.5538 -0.7848 -0.1070
13282TIP3   OH261260   2.918   6.398   0.141  0.2968  0.0929 -0.1540
13282TIP3    H161261   2.844   6.360   0.187 -0.1189  1.0842  0.0324
13282TIP3    H261262   2.925   6.487   0.177  1.4003  0.1042 -0.3657
13283TIP3   OH261263   3.889   5.784   2.648 -0.8385  0.4721 -0.1080
13283TIP3    H161264   3.851   5.869   2.630 -0.2230  0.7692 -0.0168
13283TIP3    H261265   3.885   5.737   2.565 -1.2642  0.5494 -0.1345
13284TIP3   OH261266   6.350   2.061  13.792 -0.1124 -0.0138 -0.2165
13284TIP3    H161267   6.307   2.002  13.855  1.2555 -0.4465  0.3565
13284TIP3    H261268   6.443   2.055  13.814  0.1466  1.7458 -0.6904
13285TIP3   OH261269   1.633   1.722  12.170  0.2996  0.2561  0.1945
13285TIP3    H161270   1.681   1.672  12.236 -1.1611 -1.9223 -0.2645
13285TIP3    H261271   1.557   1.757  12.216  0.9322  1.4723  0.3440
13286TIP3   OH261272   2.214   5.091  17.066  0.3140  0.1111  0.2407
13286TIP3    H161273   2.295   5.109  17.019 -0.8770  1.7343 -1.3949
13286TIP3    H261274   2.169   5.176  17.068 -1.8662 -0.9617 -0.0526
13287TIP3   OH261275   4.737   2.267  12.491  0.3471  0.4240 -0.3259
13287TIP3    H161276   4.713   2.270  12.398  0.7501  0.1222 -0.4440
13287TIP3    H261277   4.701   2.184  12.521 -1.0138  1.1527  0.1458
13288TIP3   OH261278   0.671   1.358  11.638 -0.4136  0.2922 -0.0888
13288TIP3    H161279   0.592   1.306  11.642 -0.0592 -0.3665 -1.1620
13288TIP3    H261280   0.652   1.426  11.573 -0.4311  0.7401  0.3730
13289TIP3   OH261281   2.718   5.728  12.059  0.4065  0.9708 -0.2265
13289TIP3    H161282   2.672   5.768  12.132  0.5581  0.1280  0.3443
13289TIP3    H261283   2.650   5.712  11.994 -0.0228  0.2478  0.3827
13290TIP3   OH261284   2.578   1.523   2.558 -0.1455  0.4572  0.0532
13290TIP3    H161285   2.662   1.479   2.572  0.3126  1.3293  0.1049
13290TIP3    H261286   2.593   1.613   2.587 -0.7493  0.9247 -1.0276
13291TIP3   OH261287   2.134   2.278   1.944  0.6481  0.4676  0.6471
13291TIP3    H161288   2.056   2.225   1.926  0.7004  0.7498 -0.4413
13291TIP3    H261289   2.184   2.275   1.863  1.6061  0.5784  1.2257
13292TIP3   OH261290   2.284   2.643  15.485  0.4629  0.1334  0.3485
13292TIP3    H161291   2.222   2.577  15.515  1.3923 -0.9125  0.0268
13292TIP3    H261292   2.229   2.710  15.442 -0.4450 -0.7349  0.1203
13293TIP3   OH261293   5.709   6.650  10.974  0.2375  0.3102 -0.2071
13293TIP3    H161294   5.763   6.728  10.979 -1.2568  1.3344  0.7665
13293TIP3    H261295   5.653   6.664  10.897 -0.5664  0.5920  0.4118
13294TIP3   OH261296   0.877   4.579  15.139 -0.7072  0.0706  0.3147
13294TIP3    H161297   0.790   4.551  15.166 -1.5356  2.4317  0.2926
13294TIP3    H261298   0.887   4.667  15.175  0.0013  1.5206 -3.0422
13295TIP3   OH261299   3.525   0.785   5.323 -0.4763 -0.2412 -0.3497
13295TIP3    H161300   3.563   0.830   5.398 -1.9824 -1.2732  1.1286
13295TIP3    H261301   3.476   0.853   5.277 -0.6952  0.1496  0.4324
13296TIP3   OH261302   5.165   6.696   3.377  0.1961 -0.4467 -0.1541
13296TIP3    H161303   5.212   6.715   3.458 -0.7885 -1.7151  0.7595
13296TIP3    H261304   5.210   6.747   3.310  3.2852 -2.1230  0.5052
13297TIP3   OH261305   1.150   1.411   5.902 -0.0763 -0.2612 -0.4467
13297TIP3    H161306   1.077   1.362   5.864 -0.9888  0.7788 -0.0630
13297TIP3    H261307   1.174   1.360   5.980  0.7283 -1.5030 -1.4635
13298TIP3   OH261308   2.093   5.997   0.434  0.3302  0.3953  0.0087
13298TIP3    H161309   2.141   6.030   0.510 -2.4502  0.9185  1.6518
13298TIP3    H261310   2.054   5.915   0.464 -0.8655  0.6380 -0.8042
13299TIP3   OH261311   6.057   1.692  12.471 -0.0089  0.9005 -0.1650
13299TIP3    H161312   5.996   1.749  12.517 -0.7044  2.1208 -2.4121
13299TIP3    H261313   6.140   1.703  12.516 -0.7976  1.4638  1.1963
13300TIP3   OH261314   1.494   1.562   0.942 -0.0589 -0.1615  0.0742
13300TIP3    H161315   1.426   1.616   0.900 -1.8673 -2.4904 -0.1962
13300TIP3    H261316   1.575   1.589   0.899 -0.8849  2.1419 -0.1898
13301TIP3   OH261317   0.150   0.001  13.940  0.1718  0.6554  0.5102
13301TIP3    H161318   0.203  -0.072  13.907  1.5379  1.1703  1.4421
13301TIP3    H261319   0.085   0.017  13.872 -0.5162 -1.7485  0.4957
13302TIP3   OH261320   0.374   0.411  10.351  0.2724  0.6853 -0.1903
13302TIP3    H161321   0.291   0.393  10.395 -0.4803  2.5828 -0.7182
13302TIP3    H261322   0.399   0.328  10.311 -0.5583 -0.3134  1.2862
13303TIP3   OH261323   0.545   2.840  13.463 -1.0794 -0.2044 -0.2026
13303TIP3    H161324   0.536   2.777  13.534 -0.3580 -0.1862 -0.0860
13303TIP3    H261325   0.608   2.800  13.403 -0.8201  0.2800 -0.2607
13304TIP3   OH261326   2.735   1.886  16.773 -0.5483 -0.3804 -0.0525
13304TIP3    H161327   2.740   1.981  16.771 -1.8018 -0.2984 -0.6024
13304TIP3    H261328   2.822   1.856  16.746  0.3111  0.5725  1.5288
13305TIP3   OH261329   2.644   2.029  12.811  0.3014 -0.7316  0.1749
13305TIP3    H161330   2.556   2.001  12.836  0.2307 -0.5760  0.1032
13305TIP3    H261331   2.630   2.098  12.746  0.4943 -1.5170 -0.7199
13306TIP3   OH261332   2.504   6.428  14.778  0.0227  0.8033 -0.5992
13306TIP3    H161333   2.521   6.491  14.849  1.4417  0.8810 -0.9583
13306TIP3    H261334   2.470   6.351  14.822 -0.2331  1.2628  0.0317
13307TIP3   OH261335   0.586   0.217  14.000  0.0092  0.0516  0.6484
13307TIP3    H161336   0.605   0.123  13.992 -2.0345 -0.3508 -0.3300
13307TIP3    H261337   0.490   0.221  14.005 -0.0173  2.1646 -0.4818
13308TIP3   OH261338   2.559   6.014  15.714  0.1382  0.1385  0.0463
13308TIP3    H161339   2.551   6.087  15.653 -1.6140 -0.2725 -0.2685
13308TIP3    H261340   2.585   5.940  15.659 -1.7223 -0.2995 -0.3103
13309TIP3   OH261341   0.575   4.148  14.741 -0.2441 -0.7673 -0.3922
13309TIP3    H161342   0.579   4.092  14.818  0.5455  0.7948  0.7633
13309TIP3    H261343   0.586   4.089  14.667 -0.4746 -2.2434  0.7128
13310TIP3   OH261344   1.145   4.285   0.350  0.4046 -0.3063 -0.4955
13310TIP3    H161345   1.169   4.243   0.433  0.2868 -1.7165 -1.1570
13310TIP3    H261346   1.187   4.371   0.354  2.0987 -1.1360  0.1441
13311TIP3   OH261347   0.658   2.889  15.179  0.5521 -0.3992 -0.6480
13311TIP3    H161348   0.587   2.857  15.235 -0.7921  2.0525 -0.8001
13311TIP3    H261349   0.726   2.822  15.185 -1.2329 -2.2015  0.5741
13312TIP3   OH261350   5.905   2.206  12.492  0.6394  0.0677 -0.2233
13312TIP3    H161351   5.849   2.173  12.562 -0.3145  1.2125 -0.4068
13312TIP3    H261352   5.989   2.163  12.506  0.7442  0.8926  2.1577
13313TIP3   OH261353   2.665   1.000  16.725 -1.1551 -0.2208 -0.9710
13313TIP3    H161354   2.644   1.093  16.734 -1.1901 -0.2215 -1.0400
13313TIP3    H261355   2.612   0.971  16.650 -1.0191 -0.2567 -1.0546
13314TIP3   OH261356   2.364   5.785  12.906 -0.5624  0.1028 -0.1262
13314TIP3    H161357   2.283   5.819  12.941 -0.0768  0.9185  0.2249
13314TIP3    H261358   2.377   5.832  12.824  2.1819  4.0591  2.2043
13315TIP3   OH261359   5.695   3.035   5.577 -0.1433 -0.5304  0.4650
13315TIP3    H161360   5.621   3.005   5.629  0.4518 -0.2751  1.4947
13315TIP3    H261361   5.763   3.054   5.642  1.6759 -3.0286 -0.5666
13316TIP3   OH261362   0.683   4.916   0.865  0.0063  0.3400  0.0602
13316TIP3    H161363   0.664   4.907   0.772  2.3621 -2.3117 -0.2881
13316TIP3    H261364   0.645   4.838   0.905 -0.3773  1.1025  1.2340
13317TIP3   OH261365   2.201   4.335  15.223 -0.1531 -0.0881 -0.4696
13317TIP3    H161366   2.251   4.388  15.285  1.7402 -1.2552 -0.9100
13317TIP3    H261367   2.252   4.338  15.142  1.8180 -4.8778  0.2540
13318TIP3   OH261368   5.741   3.531   2.186  0.8168 -0.6281  0.1455
13318TIP3    H161369   5.694   3.561   2.263 -0.1181 -2.1420  0.1943
13318TIP3    H261370   5.685   3.556   2.112  1.1188 -0.2816  0.0277
13319TIP3   OH261371   5.714   6.678   2.423 -0.4847 -0.3327 -0.2327
13319TIP3    H161372   5.627   6.706   2.394  0.0999  2.5641  0.5499
13319TIP3    H261373   5.773   6.703   2.352 -0.2113 -2.2607 -0.7489
13320TIP3   OH261374   1.294   3.127   3.320  0.0014 -0.2417  0.2819
13320TIP3    H161375   1.283   3.151   3.228 -1.0569  0.8643  0.6718
13320TIP3    H261376   1.316   3.210   3.363 -0.6966 -0.5336  1.2116
13321TIP3   OH261377   6.474   0.082  16.074 -0.0425  0.0174  0.5628
13321TIP3    H161378   6.498   0.173  16.092  1.0088  0.1898 -1.4445
13321TIP3    H261379   6.555   0.033  16.086  0.9606  0.2353 -3.8272
13322TIP3   OH261380   0.571   2.876   4.747  0.0713  0.2712  0.0588
13322TIP3    H161381   0.626   2.809   4.786  0.1673  1.0978  1.4320
13322TIP3    H261382   0.482   2.855   4.775  0.0666  0.5512  0.2653
13323TIP3   OH261383   4.417   3.705  11.261  0.2947  0.3593 -0.0129
13323TIP3    H161384   4.418   3.710  11.165 -1.0606 -0.1013 -0.0737
13323TIP3    H261385   4.348   3.766  11.287 -1.3924 -1.6441  0.4586
13324TIP3   OH261386   0.561   2.930   2.395  0.0548 -0.1123 -0.5293
13324TIP3    H161387   0.601   2.865   2.338  3.9267 -1.3816  3.0960
13324TIP3    H261388   0.502   2.879   2.452  1.3893 -0.1736  0.8627
13325TIP3   OH261389   1.336   6.403   4.960 -0.1635 -0.5036 -0.2870
13325TIP3    H161390   1.364   6.482   5.007 -0.0517 -0.3216 -0.6514
13325TIP3    H261391   1.399   6.395   4.888 -1.6076  0.4831 -1.7301
13326TIP3   OH261392   1.965   2.705  13.420 -0.5472  0.0315  0.6819
13326TIP3    H161393   1.955   2.765  13.347  1.5575  0.1053  0.3854
13326TIP3    H261394   1.954   2.759  13.498  0.8442  0.7400  0.4130
13327TIP3   OH261395   4.726   4.361   5.787  0.0591  0.8745  0.1381
13327TIP3    H161396   4.681   4.320   5.860 -0.8617 -0.0456 -0.8956
13327TIP3    H261397   4.659   4.368   5.719  1.5493 -1.0410 -1.6548
13328TIP3   OH261398   6.666   3.341   1.038  0.1358 -0.2750  0.0393
13328TIP3    H161399   6.703   3.278   0.977  2.1274 -0.5252  1.4202
13328TIP3    H261400   6.664   3.295   1.122 -0.0205  0.9119  0.7091
13329TIP3   OH261401   3.612   4.596  17.201  0.0173 -0.7401  0.0276
13329TIP3    H161402   3.640   4.642  17.122  0.6815  1.4159  1.4503
13329TIP3    H261403   3.519   4.577  17.186  0.1757 -0.5579 -1.3210
13330TIP3   OH261404   3.581   0.324  13.799  0.8783  0.6344 -0.0860
13330TIP3    H161405   3.627   0.404  13.823 -0.2458  0.9981  0.9771
13330TIP3    H261406   3.497   0.330  13.844  0.3595 -0.6773 -0.8035
13331TIP3   OH261407   0.355   0.448  14.606 -0.0780  0.4545 -0.0520
13331TIP3    H161408   0.287   0.422  14.668  1.4422 -1.1759  0.9899
13331TIP3    H261409   0.403   0.517  14.650  0.2166  0.1740  0.0683
13332TIP3   OH261410   5.448   0.933   3.333  0.5235  0.0201 -0.0614
13332TIP3    H161411   5.433   1.026   3.319  2.7373  0.6021  0.9197
13332TIP3    H261412   5.467   0.897   3.246 -1.0559  0.2874 -0.5470
13333TIP3   OH261413   0.566   6.409  11.678  0.2992 -0.0050  0.4497
13333TIP3    H161414   0.636   6.370  11.730 -0.0526 -1.2586  0.0270
13333TIP3    H261415   0.525   6.472  11.737 -0.7029 -2.0545  2.0966
13334TIP3   OH261416   6.390   0.645   2.537 -0.6573 -0.2912 -0.2863
13334TIP3    H161417   6.424   0.559   2.511  0.3184 -0.6556  1.9987
13334TIP3    H261418   6.307   0.652   2.490 -0.6938 -2.4269 -0.6570
13335TIP3   OH261419   5.559   3.609   4.139 -0.7455 -0.1193  0.0107
13335TIP3    H161420   5.494   3.596   4.208 -1.1341  0.2087 -0.2940
13335TIP3    H261421   5.509   3.609   4.058 -0.1140 -2.1101 -0.4327
13336TIP3   OH261422   5.729   0.714   5.632  0.0981 -0.2205  0.4476
13336TIP3    H161423   5.667   0.746   5.698  0.3870 -0.7834  1.0012
13336TIP3    H261424   5.778   0.645   5.677 -0.3640 -1.2890 -0.6447
13337TIP3   OH261425   3.179   6.615  11.168  0.0604 -0.4459 -0.4163
13337TIP3    H161426   3.125   6.543  11.199 -2.2880  1.9326  1.5751
13337TIP3    H261427   3.234   6.638  11.243 -0.0941  0.5507 -0.5886
13338TIP3   OH261428   2.112   5.102  11.437  0.3978 -0.1012  0.0158
13338TIP3    H161429   2.155   5.136  11.516  1.3378 -1.4407  0.1145
13338TIP3    H261430   2.021   5.088  11.463  0.6106 -0.1619  0.7466
13339TIP3   OH261431   4.739   3.077   1.189  0.2078 -0.1781  0.5225
13339TIP3    H161432   4.831   3.051   1.196  0.5368  1.0388  0.8640
13339TIP3    H261433   4.733   3.119   1.103  0.0879  0.1997  0.7156
13340TIP3   OH261434   1.512   6.450  14.868 -0.3537 -0.2612 -0.1428
13340TIP3    H161435   1.565   6.483  14.941 -0.7765 -1.6389  0.8210
13340TIP3    H261436   1.425   6.438  14.905 -0.9882  0.4916 -1.3103
13341TIP3   OH261437   0.919   0.008   1.158  0.6417 -0.0177 -0.2030
13341TIP3    H161438   0.930  -0.086   1.166 -2.3357 -0.6197 -1.6974
13341TIP3    H261439   0.871   0.034   1.238 -0.0843 -0.1092 -0.6018
13342TIP3   OH261440   4.765   1.427   4.517  0.1710  0.1545  0.1556
13342TIP3    H161441   4.689   1.428   4.459 -0.0826  1.1937  0.4783
13342TIP3    H261442   4.840   1.414   4.458  0.1999  3.7414 -0.8371
13343TIP3   OH261443   3.903   2.676  16.712  0.0296  0.1840  0.0687
13343TIP3    H161444   3.909   2.636  16.798  0.2193  2.1759  1.0582
13343TIP3    H261445   3.819   2.723  16.713 -0.9449 -1.3985 -1.6268
13344TIP3   OH261446   4.773   3.684   6.293 -0.1093 -0.5070 -0.2493
13344TIP3    H161447   4.707   3.740   6.252  1.1210  1.2806  0.0966
13344TIP3    H261448   4.825   3.651   6.220  0.1019  0.0478 -0.3506
13345TIP3   OH261449   0.646   3.121   5.845  0.0631 -0.0668  0.2563
13345TIP3    H161450   0.704   3.096   5.774 -1.1321  0.3529 -0.9138
13345TIP3    H261451   0.577   3.172   5.802 -0.3840  0.6822  1.8040
13346TIP3   OH261452   2.391   6.415   5.582 -0.3171 -0.1681  0.0089
13346TIP3    H161453   2.334   6.438   5.508  0.3244  0.1213 -0.4101
13346TIP3    H261454   2.363   6.327   5.607 -1.1909  0.1097  0.0567
13347TIP3   OH261455   2.476   4.964   6.433 -0.1403 -0.4435  0.0929
13347TIP3    H161456   2.556   5.010   6.461 -0.9927  1.2092 -0.0970
13347TIP3    H261457   2.405   5.025   6.452 -1.1068 -0.6678 -2.4462
13348TIP3   OH261458   5.178   5.666  16.118  0.2572 -0.3394  0.0595
13348TIP3    H161459   5.226   5.647  16.037 -0.3097  0.9154 -0.5978
13348TIP3    H261460   5.086   5.658  16.093  0.0732  0.0383  0.5991
13349TIP3   OH261461   1.424   5.613   2.029 -0.4772 -0.7444  0.1715
13349TIP3    H161462   1.343   5.657   2.056 -1.5004 -1.5655 -1.4596
13349TIP3    H261463   1.483   5.684   2.005 -0.3219 -0.0903  2.2914
13350TIP3   OH261464   0.518   2.111  11.073  0.3738 -0.3775  0.3225
13350TIP3    H161465   0.561   2.100  10.988  1.1984  0.1303  0.6639
13350TIP3    H261466   0.582   2.079  11.136 -0.4677 -1.3094  0.7196
13351TIP3   OH261467   6.080   0.168  14.154 -0.5828 -0.1796  0.3025
13351TIP3    H161468   6.082   0.110  14.230  0.4769 -0.6220 -0.0475
13351TIP3    H261469   5.993   0.153  14.116 -0.2942 -1.6496  0.1476
13352TIP3   OH261470   3.739   1.899   3.870 -0.4395 -0.1804 -0.3515
13352TIP3    H161471   3.682   1.825   3.847 -3.0683  1.5706  0.0402
13352TIP3    H261472   3.749   1.948   3.788  0.0042 -0.1597 -0.2856
13353TIP3   OH261473   4.862   5.381   4.686 -0.1600 -0.4665 -0.0797
13353TIP3    H161474   4.837   5.395   4.777 -1.1034 -0.2188 -0.3709
13353TIP3    H261475   4.925   5.308   4.689 -0.7271 -0.9322  0.6892
13354TIP3   OH261476   2.458   6.571   1.869  0.6219 -0.0779 -0.1720
13354TIP3    H161477   2.542   6.525   1.862  0.5090 -0.1951 -0.8032
13354TIP3    H261478   2.481   6.661   1.893  0.8122 -0.6216  1.8939
13355TIP3   OH261479   2.016   4.680   5.789  0.2025 -0.2740  0.2440
13355TIP3    H161480   2.071   4.758   5.796  0.2943 -0.3110 -0.0328
13355TIP3    H261481   1.962   4.682   5.868 -0.5585  0.6572 -0.2755
13356TIP3   OH261482   2.990   4.450  12.239  0.1405  0.6086  0.0717
13356TIP3    H161483   3.004   4.537  12.276 -0.2577  0.8653 -0.3634
13356TIP3    H261484   3.042   4.391  12.293  1.3522  1.2742 -0.3405
13357TIP3   OH261485   5.730   0.167  13.431 -0.3133 -0.1653  0.0554
13357TIP3    H161486   5.798   0.229  13.456 -0.2324  0.1493 -0.9230
13357TIP3    H261487   5.763   0.082  13.459  0.6592 -0.0653 -0.7697
13358TIP3   OH261488   6.416   6.640   2.549  0.0465  0.3046 -0.8765
13358TIP3    H161489   6.504   6.652   2.586 -0.0603  0.1749 -0.5783
13358TIP3    H261490   6.366   6.598   2.619  0.0650 -0.7108 -1.4468
13359TIP3   OH261491   0.853   4.804  12.996  0.2968  0.2582  0.1589
13359TIP3    H161492   0.846   4.709  13.009  0.6659  0.1109 -0.6388
13359TIP3    H261493   0.768   4.829  12.960  0.8541 -0.1341 -1.5681
13360TIP3   OH261494   1.301   4.538  14.308 -0.3145 -0.4488  0.6554
13360TIP3    H161495   1.393   4.519  14.329 -0.3868  0.5691  2.0789
13360TIP3    H261496   1.251   4.484  14.369 -0.6508 -0.5246  0.3135
13361TIP3   OH261497   6.422   3.235  15.849 -0.2189 -0.3210 -0.0134
13361TIP3    H161498   6.487   3.301  15.826  1.6183 -2.4143 -1.1861
13361TIP3    H261499   6.388   3.263  15.934  1.3833  1.4295  0.1037
13362TIP3   OH261500   1.097   2.598  14.330  0.8159 -0.1416 -0.8209
13362TIP3    H161501   1.071   2.529  14.269 -0.1868 -0.2006 -0.3509
13362TIP3    H261502   1.168   2.559  14.382  0.6970 -0.5934 -0.9916
13363TIP3   OH261503   1.437   0.758  13.608 -0.0006 -0.4035 -0.6573
13363TIP3    H161504   1.391   0.677  13.631  0.7564 -1.1730 -1.7832
13363TIP3    H261505   1.449   0.753  13.514  1.6304  0.1790 -0.5016
13364TIP3   OH261506   4.180   4.070   0.927  0.2044  0.3128  0.1948
13364TIP3    H161507   4.190   4.034   0.838 -0.0628  0.1626  0.2258
13364TIP3    H261508   4.176   4.164   0.914 -0.5020  0.2561 -0.0137
13365TIP3   OH261509   4.850   2.814  15.996  0.2796  0.5345  0.4108
13365TIP3    H161510   4.920   2.879  15.999  1.2466 -0.2760 -1.9496
13365TIP3    H261511   4.894   2.730  16.010  0.2708 -0.1897 -2.9479
13366TIP3   OH261512   3.528   5.652   1.953 -0.2828  0.0458  0.2858
13366TIP3    H161513   3.562   5.572   1.913  0.1716  0.0503  0.6518
13366TIP3    H261514   3.547   5.721   1.890 -2.1565 -0.3515 -0.7938
13367TIP3   OH261515   3.312   0.644  12.801  0.3369  0.3761  0.4946
13367TIP3    H161516   3.362   0.714  12.843  0.8009  1.5592 -1.8777
13367TIP3    H261517   3.368   0.567  12.807  1.3364  1.0652  0.1211
13368TIP3   OH261518   1.614   0.190   5.794 -0.0572 -0.4331  0.0789
13368TIP3    H161519   1.630   0.099   5.772  0.6263 -0.5893  1.1320
13368TIP3    H261520   1.526   0.208   5.762 -0.2232 -1.4827 -0.0780
13369TIP3   OH261521   1.587   2.706  14.922  0.6458 -0.2782 -0.2373
13369TIP3    H161522   1.668   2.751  14.949  1.5146 -1.0167 -1.4999
13369TIP3    H261523   1.612   2.657  14.844 -0.8297 -1.2097 -0.1615
13370TIP3   OH261524   6.211   5.527   1.869 -0.5727 -0.5934  0.1017
13370TIP3    H161525   6.168   5.612   1.857  1.2670  0.1825 -1.5209
13370TIP3    H261526   6.271   5.541   1.943 -0.8422 -0.7355  0.3495
13371TIP3   OH261527   4.904   3.429  16.326 -0.4630 -0.3243  0.0122
13371TIP3    H161528   4.938   3.457  16.411  0.2319 -2.6807  0.5792
13371TIP3    H261529   4.983   3.419  16.272 -0.7486 -0.5003 -0.3729
13372TIP3   OH261530   0.499   1.159   4.779  0.5112  0.0220  0.2583
13372TIP3    H161531   0.439   1.218   4.733  1.8962  0.6053 -0.8878
13372TIP3    H261532   0.470   1.162   4.870 -2.9582 -1.9290 -0.5939
13373TIP3   OH261533   6.125   4.893  12.048  0.0709  0.8501  0.3358
13373TIP3    H161534   6.070   4.870  11.973 -0.0364 -0.4652  0.7839
13373TIP3    H261535   6.066   4.886  12.123  0.4057  1.2330  0.6335
13374TIP3   OH261536   5.720   1.358  12.423 -0.1787  0.2570 -0.1803
13374TIP3    H161537   5.699   1.410  12.501  0.1183 -0.9525  0.7467
13374TIP3    H261538   5.711   1.267  12.452  1.3886 -0.2538 -1.1280
13375TIP3   OH261539   4.087   6.536  12.276  0.0230  0.3278 -0.2646
13375TIP3    H161540   4.135   6.614  12.246  0.6611 -0.2593 -0.8110
13375TIP3    H261541   4.124   6.464  12.225 -0.2993 -0.3983  0.5002
13376TIP3   OH261542   4.642   2.852  11.159  0.6427 -0.3286 -0.1463
13376TIP3    H161543   4.670   2.798  11.085  1.8445 -0.6853  0.5276
13376TIP3    H261544   4.652   2.942  11.129  0.6966 -0.4709 -0.5610
13377TIP3   OH261545   5.780   1.164  12.771  0.2145  0.2468  0.1916
13377TIP3    H161546   5.853   1.220  12.745  0.8876 -0.8836 -0.4459
13377TIP3    H261547   5.726   1.157  12.693 -0.1417  0.3936  0.4187
13378TIP3   OH261548   1.693   4.958   0.834 -0.1452 -0.1013  0.4277
13378TIP3    H161549   1.718   5.011   0.759  0.6022 -0.9490  0.0728
13378TIP3    H261550   1.599   4.945   0.824 -0.1200  0.1382 -0.1365
13379TIP3   OH261551   4.545   0.760   6.154  0.4330 -0.3337 -0.0456
13379TIP3    H161552   4.517   0.746   6.244 -0.3623  0.7318 -0.1066
13379TIP3    H261553   4.640   0.750   6.156  0.4545 -0.0101  0.9735
13380TIP3   OH261554   4.993   0.821  11.868  0.1176  0.5759 -0.1916
13380TIP3    H161555   4.906   0.799  11.900  0.5052 -0.6152  0.1250
13380TIP3    H261556   5.053   0.773  11.925  0.9024 -0.0807 -1.4908
13381TIP3   OH261557   0.693   3.681   2.766 -0.4962  0.0153  0.2308
13381TIP3    H161558   0.617   3.624   2.782  1.8650 -3.3088  0.5846
13381TIP3    H261559   0.719   3.710   2.854 -1.1220  0.9516  0.1288
13382TIP3   OH261560   3.192   2.297   0.895  0.2626  0.0150 -0.6212
13382TIP3    H161561   3.278   2.326   0.867  0.3567  1.1114  0.6904
13382TIP3    H261562   3.208   2.214   0.940  0.6022  0.0821 -0.6143
13383TIP3   OH261563   0.681   2.797   3.116 -0.0481 -0.0548  0.0449
13383TIP3    H161564   0.692   2.780   3.209  1.2757  0.7254  0.0631
13383TIP3    H261565   0.596   2.759   3.094  0.9281 -2.9657  0.9024
13384TIP3   OH261566   6.623   1.463  12.779 -0.0519  0.0701  0.8715
13384TIP3    H161567   6.570   1.394  12.739 -1.3267 -0.1812  2.8525
13384TIP3    H261568   6.682   1.416  12.839  2.0121  0.4080 -0.7748
13385TIP3   OH261569   2.937   5.230   4.846 -0.2313  0.1104 -0.2918
13385TIP3    H161570   3.011   5.183   4.809 -2.0479 -1.5659 -2.0500
13385TIP3    H261571   2.860   5.177   4.822 -2.1208  2.3585  0.4155
13386TIP3   OH261572   0.723   4.330  12.537  0.4653  0.3761 -0.5497
13386TIP3    H161573   0.677   4.361  12.615  0.6611  0.3037 -0.4067
13386TIP3    H261574   0.700   4.237  12.532 -0.2260  0.5602 -1.0498
13387TIP3   OH261575   1.393   0.983  13.083 -0.3445 -0.0854  0.1988
13387TIP3    H161576   1.372   0.988  12.990 -0.3732  1.9408  0.2620
13387TIP3    H261577   1.337   0.913  13.116  1.8464 -3.0307 -1.7876
13388TIP3   OH261578   6.449   6.773  14.581 -0.3273  0.9711  0.1732
13388TIP3    H161579   6.521   6.752  14.642 -0.6273 -2.2604 -0.3949
13388TIP3    H261580   6.376   6.797  14.638  0.5750  2.2549  0.8450
13389TIP3   OH261581   3.855   3.380  16.724 -0.0788 -0.0010 -0.2998
13389TIP3    H161582   3.844   3.445  16.793 -0.0736 -0.0720 -0.2337
13389TIP3    H261583   3.766   3.353  16.702 -0.0789  0.0011 -0.3030
13390TIP3   OH261584   1.657   6.016  16.081 -0.0349  0.6416  0.1114
13390TIP3    H161585   1.734   6.035  16.026 -1.3031  1.1896 -1.5725
13390TIP3    H261586   1.688   5.950  16.142  2.1854  1.8919  0.4920
13391TIP3   OH261587   1.993   5.586  14.903  0.6980  0.0215 -0.1788
13391TIP3    H161588   1.958   5.673  14.886 -1.5231 -0.8919 -0.5446
13391TIP3    H261589   2.061   5.573  14.836  2.3678  2.0993  0.9860
13392TIP3   OH261590   6.591   4.738  15.526  0.1950  0.4310  0.4889
13392TIP3    H161591   6.566   4.829  15.546 -1.1975  0.4518 -1.1132
13392TIP3    H261592   6.655   4.746  15.456  1.5603  0.1986  1.6592
13393TIP3   OH261593   6.784   4.705   2.442 -0.0515  0.5408 -0.1770
13393TIP3    H161594   6.751   4.794   2.428 -0.4370  0.6409  1.2458
13393TIP3    H261595   6.752   4.681   2.529  2.1276 -0.0539  0.5164
13394TIP3   OH261596   1.927   2.880  15.392 -0.4132  0.6156 -0.2793
13394TIP3    H161597   1.931   2.936  15.470 -0.4286 -0.2376  0.3534
13394TIP3    H261598   2.017   2.846  15.383 -0.7907 -0.6409  0.4105
13395TIP3   OH261599   4.244   3.043   3.063 -0.1854 -0.1978  0.0906
13395TIP3    H161600   4.187   3.119   3.054 -1.1582 -1.2014 -4.3387
13395TIP3    H261601   4.196   2.972   3.020  1.9925 -2.5926  1.3451
13396TIP3   OH261602   5.985   1.528   0.464  0.5784  0.0965  0.3382
13396TIP3    H161603   6.044   1.603   0.466 -0.7384  1.1600  0.5299
13396TIP3    H261604   5.961   1.514   0.555  0.3289 -0.1573  0.2350
13397TIP3   OH261605   6.510   1.024  15.012  0.2095  0.1501 -0.6299
13397TIP3    H161606   6.425   0.981  15.015  0.4211 -0.2782 -0.5693
13397TIP3    H261607   6.538   1.028  15.103 -0.9761  2.8485 -0.3131
13398TIP3   OH261608   4.185   1.909  11.423  0.7897 -0.7607 -0.8004
13398TIP3    H161609   4.159   1.937  11.336  1.0095 -0.4322 -0.7604
13398TIP3    H261610   4.220   1.987  11.465 -0.9856 -0.4675  0.2340
13399TIP3   OH261611   5.608   6.012   6.390 -0.1120  0.2524 -0.3246
13399TIP3    H161612   5.607   6.076   6.461  1.3482 -0.5563  0.4866
13399TIP3    H261613   5.541   5.948   6.413 -0.2690  0.4835 -0.1445
13400TIP3   OH261614   2.156   6.607  13.562  0.1593 -0.0097  0.1401
13400TIP3    H161615   2.105   6.606  13.643 -2.3506  0.4569 -1.3310
13400TIP3    H261616   2.172   6.700  13.545  0.3608 -0.0868 -0.1003
13401TIP3   OH261617   1.348   2.939   1.809  0.1386 -0.5727 -0.5344
13401TIP3    H161618   1.438   2.969   1.796 -0.1167  0.2648 -0.4194
13401TIP3    H261619   1.349   2.897   1.895 -0.0923  1.5951  0.6028
13402TIP3   OH261620   6.527   3.644  15.426  0.2266 -0.0890  0.0778
13402TIP3    H161621   6.454   3.667  15.484 -0.7887 -2.2312 -0.2480
13402TIP3    H261622   6.590   3.715  15.438 -1.9431  1.9501  0.2581
13403TIP3   OH261623   2.363   1.513   6.058  0.3199 -0.4191  0.3273
13403TIP3    H161624   2.411   1.441   6.016  0.7869 -0.9040  1.6431
13403TIP3    H261625   2.287   1.471   6.098 -1.0758  0.2949 -1.4348
13404TIP3   OH261626   2.237   3.794   6.206  0.4582  0.0584  0.2258
13404TIP3    H161627   2.324   3.757   6.218  0.7229  0.7868  0.6584
13404TIP3    H261628   2.251   3.868   6.146  0.5889  1.6927  2.1538
13405TIP3   OH261629   4.726   1.412  13.565  0.3487  0.3761  0.0396
13405TIP3    H161630   4.766   1.386  13.648  1.0315 -0.2995 -0.4886
13405TIP3    H261631   4.773   1.491  13.539  0.5304  0.2603  0.0127
13406TIP3   OH261632   3.173   2.820  16.206  0.0593 -0.1462 -0.2149
13406TIP3    H161633   3.183   2.835  16.112  1.9280 -1.5604 -0.2873
13406TIP3    H261634   3.261   2.799  16.237 -0.6481 -0.4589  1.7249
13407TIP3   OH261635   5.232   1.745   0.501  0.1252  0.1245  0.4037
13407TIP3    H161636   5.321   1.779   0.496  0.4489 -0.8326 -3.2354
13407TIP3    H261637   5.242   1.650   0.497 -1.0469 -0.0142  0.2824
13408TIP3   OH261638   4.086   4.208  14.894  0.2962  0.3232  0.2305
13408TIP3    H161639   4.128   4.263  14.828 -0.3798 -0.6995 -1.0958
13408TIP3    H261640   4.144   4.213  14.970  0.3472  2.7301  0.1350
13409TIP3   OH261641   2.502   3.414  11.793  0.5243 -0.2825 -0.0177
13409TIP3    H161642   2.475   3.506  11.789 -0.1952 -0.4275  1.0411
13409TIP3    H261643   2.493   3.391  11.885  2.3567 -0.9502  0.0325
13410TIP3   OH261644   0.531   3.525  15.281 -0.1666 -0.1274 -0.0591
13410TIP3    H161645   0.583   3.600  15.308 -0.9468  0.8138 -1.0896
13410TIP3    H261646   0.567   3.501  15.195  0.5666 -1.4295  0.5777
13411TIP3   OH261647   2.092   5.869  14.616 -0.1331  0.5075 -0.2458
13411TIP3    H161648   2.011   5.855  14.665 -0.1692  0.4742 -0.3141
13411TIP3    H261649   2.096   5.963  14.602  0.8422  0.7570  1.4726
13412TIP3   OH261650   0.069   1.300  16.836  0.6077  0.2505 -0.2976
13412TIP3    H161651   0.039   1.308  16.745  2.4077 -1.5426 -1.1351
13412TIP3    H261652   0.159   1.334  16.834  1.4978 -1.8795  0.2191
13413TIP3   OH261653   6.547   6.591  17.048 -0.1550 -0.2017 -0.8626
13413TIP3    H161654   6.568   6.556  16.961  2.4176 -1.3242  0.0971
13413TIP3    H261655   6.613   6.659  17.063 -1.8614  1.4836 -0.5528
13414TIP3   OH261656   3.475   1.794   5.336 -0.1501  0.3406  0.2493
13414TIP3    H161657   3.516   1.822   5.254  0.5765 -2.5940 -0.5213
13414TIP3    H261658   3.538   1.817   5.404  2.7579 -3.3480 -0.8356
13415TIP3   OH261659   5.835   2.148   4.026 -0.3055  0.1312 -0.2559
13415TIP3    H161660   5.830   2.208   4.101 -0.2656 -2.4660  1.9807
13415TIP3    H261661   5.745   2.137   3.998 -0.1369  3.0170 -2.3568
13416TIP3   OH261662   3.882   2.489  13.889  0.6330 -0.4276 -0.0927
13416TIP3    H161663   3.861   2.517  13.800  2.5437  0.2721 -0.3721
13416TIP3    H261664   3.912   2.399  13.880  1.5580 -0.1115 -0.2959
13417TIP3   OH261665   6.593   6.735  10.525  0.4143  0.4923  0.0020
13417TIP3    H161666   6.630   6.658  10.482 -1.2403 -0.1874 -0.2803
13417TIP3    H261667   6.607   6.807  10.463 -1.7368 -0.4231 -1.6847
13418TIP3   OH261668   2.466   5.848  10.790  0.0974 -0.0452 -0.2375
13418TIP3    H161669   2.555   5.858  10.823  0.1989 -1.4056 -0.0497
13418TIP3    H261670   2.470   5.770  10.734 -0.6490  0.7292 -1.4219
13419TIP3   OH261671   1.349   2.571   4.805  1.2811  0.3016  0.8892
13419TIP3    H161672   1.348   2.601   4.714 -1.7814 -1.2439  0.2698
13419TIP3    H261673   1.340   2.651   4.856  0.2950  1.0272 -0.3528
13420TIP3   OH261674   2.674   6.676  14.456 -0.0229 -0.2159 -0.0169
13420TIP3    H161675   2.668   6.737  14.383  0.1009 -1.6129 -1.2407
13420TIP3    H261676   2.759   6.694  14.496  0.4633 -0.2412 -0.9946
13421TIP3   OH261677   1.943   0.323   3.141  0.3343  0.4716  0.1258
13421TIP3    H161678   1.900   0.331   3.226 -2.2102 -0.3962 -0.9816
13421TIP3    H261679   1.982   0.410   3.125 -0.9984  1.3050  1.2378
13422TIP3   OH261680   3.549   1.213   0.952  0.0017  0.0287  0.0388
13422TIP3    H161681   3.621   1.274   0.938  0.4262 -0.4647  0.0381
13422TIP3    H261682   3.554   1.153   0.877 -0.3898 -0.0282  0.0567
13423TIP3   OH261683   0.348   6.728  12.096 -0.7855  0.1019 -0.1474
13423TIP3    H161684   0.290   6.653  12.109  1.0377 -1.0605  1.7792
13423TIP3    H261685   0.386   6.714  12.009  0.2199 -1.7605  0.5377
13424TIP3   OH261686   0.549   0.790  12.780 -0.5740  0.1083  0.1003
13424TIP3    H161687   0.500   0.708  12.784  0.0446 -0.4529 -2.5533
13424TIP3    H261688   0.638   0.764  12.759 -0.1619  1.4127  0.1481
13425TIP3   OH261689   3.128   4.850   2.581  0.0225 -0.2653  0.1216
13425TIP3    H161690   3.219   4.848   2.611  0.5530  0.5190 -1.3238
13425TIP3    H261691   3.089   4.771   2.617  1.4006 -0.8430  0.4087
13426TIP3   OH261692   1.198   2.111  14.199  0.0691  0.4627 -0.2099
13426TIP3    H161693   1.116   2.118  14.248 -0.4996 -0.6391 -0.9818
13426TIP3    H261694   1.234   2.200  14.201 -0.4641  0.6799  1.2849
13427TIP3   OH261695   2.355   6.581   0.122 -0.4861  0.0484 -0.2225
13427TIP3    H161696   2.306   6.603   0.201  2.0562  2.1131  0.9512
13427TIP3    H261697   2.424   6.523   0.153 -1.2186 -1.5848 -1.5419
13428TIP3   OH261698   6.326   3.227  17.086 -0.4980 -0.3438 -0.0161
13428TIP3    H161699   6.249   3.234  17.029 -0.2015  1.1561 -0.2518
13428TIP3    H261700   6.369   3.311  17.079  1.2282 -1.1860  0.0647
13429TIP3   OH261701   3.692   6.098   2.945 -0.2775 -0.6749 -0.1424
13429TIP3    H161702   3.662   6.113   3.035  1.4275  0.8927  0.2411
13429TIP3    H261703   3.781   6.062   2.955  1.0601  2.0795 -1.0845
13430TIP3   OH261704   4.923   3.694   4.911  0.3646  0.7213 -0.0190
13430TIP3    H161705   4.934   3.789   4.908  1.1759  0.6262 -0.1743
13430TIP3    H261706   4.863   3.675   4.839 -2.1624  1.4134  1.7590
13431TIP3   OH261707   3.102   4.313   0.586  0.5978 -0.1460 -0.7917
13431TIP3    H161708   3.146   4.228   0.583 -0.4867 -0.6979 -1.8340
13431TIP3    H261709   3.051   4.310   0.667  0.7698 -0.3720 -0.6877
13432TIP3   OH261710   3.773   2.831  15.062  0.0596  0.1615 -0.1741
13432TIP3    H161711   3.697   2.863  15.111  0.2983  1.6864 -0.7391
13432TIP3    H261712   3.847   2.843  15.121 -0.0237 -0.5908  0.0895
13433TIP3   OH261713   4.334   6.621  14.334  0.0452  0.1182  0.1666
13433TIP3    H161714   4.360   6.631  14.426  0.3800  0.6122  0.0258
13433TIP3    H261715   4.335   6.527  14.318  1.6692  0.1021  0.1968
13434TIP3   OH261716   4.269   4.127   4.297 -0.6518  0.3848 -0.4488
13434TIP3    H161717   4.260   4.083   4.381 -0.2529  0.9226 -0.1161
13434TIP3    H261718   4.180   4.126   4.260 -0.4072 -1.8970 -1.0886
13435TIP3   OH261719   6.029   5.982   4.806 -0.3787  0.0930 -0.6855
13435TIP3    H161720   6.030   5.903   4.751 -0.2000  0.6458 -1.5011
13435TIP3    H261721   6.033   6.054   4.743  0.1797  0.7443  0.0803
13436TIP3   OH261722   0.392   2.669  14.968  0.3044 -0.4839 -0.3655
13436TIP3    H161723   0.474   2.660  14.920  0.0447 -3.9271 -0.3757
13436TIP3    H261724   0.330   2.703  14.903  1.0855 -0.4624 -1.1162
13437TIP3   OH261725   4.552   0.178  11.794 -0.0822 -0.0952 -0.6578
13437TIP3    H161726   4.592   0.253  11.838  0.6098 -1.3293  0.9107
13437TIP3    H261727   4.624   0.134  11.750 -0.8728  1.5870 -3.9487
13438TIP3   OH261728   0.478   6.484   0.303  0.4196  0.1717 -0.3206
13438TIP3    H161729   0.504   6.575   0.316 -0.1837  0.1732  1.0846
13438TIP3    H261730   0.495   6.442   0.388  0.7921 -1.0568 -0.9824
13439TIP3   OH261731   1.235   5.522   0.273 -0.2487 -0.0285  0.1227
13439TIP3    H161732   1.224   5.431   0.299  1.1915 -0.2828 -0.0609
13439TIP3    H261733   1.163   5.538   0.212 -1.1558 -0.6973  0.9841
13440TIP3   OH261734   0.463   2.308  14.729 -0.2610  0.4488  0.2781
13440TIP3    H161735   0.372   2.281  14.719  0.2502 -0.5148 -2.6544
13440TIP3    H261736   0.474   2.382  14.670  0.5771  1.4184  1.5879
13441TIP3   OH261737   2.637   5.205   0.557  0.3583  0.1364  0.2729
13441TIP3    H161738   2.728   5.181   0.544  0.0800  0.0664 -1.9519
13441TIP3    H261739   2.601   5.134   0.610  1.8193  0.7679  2.2009
13442TIP3   OH261740   0.324   5.864  11.501  0.1387 -0.3376 -0.5779
13442TIP3    H161741   0.229   5.874  11.495  0.0686 -0.2542  0.4882
13442TIP3    H261742   0.337   5.803  11.574  0.9345  0.4385 -0.0568
13443TIP3   OH261743   1.489   0.293  15.979 -0.1321 -0.2537  0.4815
13443TIP3    H161744   1.572   0.304  15.932  0.4162 -1.0400  1.2540
13443TIP3    H261745   1.434   0.242  15.919  0.0772 -0.0834  0.1386
13444TIP3   OH261746   3.150   2.123  15.195  0.0489  0.3750 -0.3506
13444TIP3    H161747   3.090   2.121  15.120 -0.5151  1.8323  0.0188
13444TIP3    H261748   3.154   2.216  15.220  1.9478  0.2263  0.0626
13445TIP3   OH261749   5.436   4.159  12.696 -0.0547  0.4051  0.2037
13445TIP3    H161750   5.432   4.198  12.609  1.7509 -1.9460 -1.0450
13445TIP3    H261751   5.514   4.196  12.736 -0.4204  0.8507  0.5180
13446TIP3   OH261752   3.784   5.612  15.700  0.0407  0.2350  0.0961
13446TIP3    H161753   3.755   5.695  15.662  1.2388  0.6416  0.0442
13446TIP3    H261754   3.708   5.554  15.690 -1.6201  1.9010  2.0588
13447TIP3   OH261755   3.814   6.298  15.046 -0.7851  0.3742 -0.6103
13447TIP3    H161756   3.817   6.202  15.048 -2.5164  0.2892 -0.3454
13447TIP3    H261757   3.849   6.322  14.960 -0.3463 -0.4907 -0.6811
13448TIP3   OH261758   0.039   5.996   0.026 -0.4452 -0.3060  0.4651
13448TIP3    H161759   0.034   6.054   0.102  0.0294 -1.4659  1.4143
13448TIP3    H261760   0.077   5.915   0.060  3.4379  0.3532 -1.7293
13449TIP3   OH261761   5.564   1.455   2.069  0.1801 -0.1255  0.0983
13449TIP3    H161762   5.607   1.370   2.076  0.0593 -0.0414  2.4598
13449TIP3    H261763   5.631   1.512   2.029  1.4606 -0.5713  1.5106
13450TIP3   OH261764   2.800   2.617  13.976  0.3330 -0.1105 -0.3011
13450TIP3    H161765   2.727   2.657  13.928 -0.1586 -1.3190 -0.5985
13450TIP3    H261766   2.789   2.523  13.962  1.3541 -0.3683  0.5225
13451TIP3   OH261767   3.289   3.289  12.621 -0.4839 -0.3112  0.7237
13451TIP3    H161768   3.336   3.304  12.539 -0.0676  1.5855  1.2410
13451TIP3    H261769   3.357   3.293  12.688 -1.1325  0.6992  1.3425
13452TIP3   OH261770   0.118   3.808  14.267 -0.0671 -0.1659 -0.1037
13452TIP3    H161771   0.023   3.796  14.278 -0.3441 -0.0240 -1.9924
13452TIP3    H261772   0.137   3.891  14.310 -0.7239 -0.3499  0.5693
13453TIP3   OH261773   3.237   0.190   3.612  0.1621 -0.2145 -0.3551
13453TIP3    H161774   3.194   0.165   3.693  2.0522 -0.5783  0.5977
13453TIP3    H261775   3.234   0.110   3.558 -0.3846 -0.2142 -0.3308
13454TIP3   OH261776   0.745   2.803   0.716  0.1426 -0.1471 -0.9150
13454TIP3    H161777   0.806   2.811   0.789  1.0113  0.1991 -1.6634
13454TIP3    H261778   0.718   2.711   0.718  0.2603 -0.1780 -0.2497
13455TIP3   OH261779   3.885   0.314  14.512 -0.5463 -0.6950  0.0048
13455TIP3    H161780   3.843   0.391  14.474  0.4929 -1.0946 -2.0734
13455TIP3    H261781   3.961   0.349  14.559 -1.6262 -0.2349  1.4954
13456TIP3   OH261782   1.780   3.212  13.228  0.3049  0.1425 -0.3083
13456TIP3    H161783   1.691   3.205  13.192 -0.9307 -1.9307  2.7222
13456TIP3    H261784   1.800   3.305  13.222 -2.4011  0.8181 -0.4498
13457TIP3   OH261785   4.148   0.750  14.668  0.3169 -0.2333 -0.5544
13457TIP3    H161786   4.092   0.791  14.602  1.2089  1.9886 -0.0046
13457TIP3    H261787   4.204   0.821  14.700  0.4190 -1.3891  2.0819
13458TIP3   OH261788   4.766   5.995   2.026 -0.3208 -0.3226 -0.6109
13458TIP3    H161789   4.852   5.957   2.008  0.1727 -0.1840  1.2725
13458TIP3    H261790   4.778   6.089   2.011  0.1876 -0.1615  0.6532
13459TIP3   OH261791   0.370   6.591   5.310  0.2166  0.3097 -0.5244
13459TIP3    H161792   0.464   6.609   5.306  0.9757 -2.9669 -0.4340
13459TIP3    H261793   0.337   6.651   5.377  2.3292  1.1843 -0.1836
13460TIP3   OH261794   0.743   2.963  14.508 -0.3198 -0.2500 -0.0031
13460TIP3    H161795   0.774   2.873  14.520  0.3428  0.1281  1.3166
13460TIP3    H261796   0.800   3.000  14.442  0.3145 -0.3843  0.4618
13461TIP3   OH261797   5.971   3.112   2.010  0.3944  0.3736 -0.2244
13461TIP3    H161798   5.890   3.065   1.989 -0.1249  0.9900  0.3855
13461TIP3    H261799   5.945   3.179   2.073  1.4010  0.5129  0.0574
13462TIP3   OH261800   0.895   2.940  10.333  0.1492 -0.4579 -0.5173
13462TIP3    H161801   0.820   2.903  10.379  0.8523 -1.6711 -0.3236
13462TIP3    H261802   0.908   2.882  10.258 -0.8850  1.3883 -2.2354
13463TIP3   OH261803   0.182   5.492   3.172 -0.1398  0.7927 -0.0941
13463TIP3    H161804   0.218   5.523   3.256 -2.1357  1.7388  0.4869
13463TIP3    H261805   0.179   5.570   3.117  2.0860 -0.0032 -1.5016
13464TIP3   OH261806   0.667   0.378  14.485 -0.5713 -0.0837  0.1749
13464TIP3    H161807   0.649   0.383  14.391  1.3074 -0.9326 -0.2745
13464TIP3    H261808   0.612   0.307  14.517 -2.1329  1.0018 -0.0132
13465TIP3   OH261809   0.073   3.717  11.431 -0.1468  0.8300 -0.4554
13465TIP3    H161810   0.013   3.664  11.484 -0.4246  0.1573 -1.4279
13465TIP3    H261811   0.128   3.653  11.386  2.0946  1.4167  1.2430
13466TIP3   OH261812   0.434   4.270   2.942 -0.2210 -0.5700  0.5325
13466TIP3    H161813   0.518   4.311   2.922 -0.5912  0.5060  1.0855
13466TIP3    H261814   0.448   4.177   2.925  0.5653 -0.1959 -1.0683
13467TIP3   OH261815   6.183   0.958   1.473  0.7074  0.0948 -0.6000
13467TIP3    H161816   6.257   0.959   1.534  0.9986  3.8162 -0.7530
13467TIP3    H261817   6.109   0.929   1.525  1.5224  0.3156  0.7274
13468TIP3   OH261818   3.501   5.465   3.984 -0.0478  0.3249 -0.2408
13468TIP3    H161819   3.546   5.491   4.064  0.5877 -0.8724 -0.1868
13468TIP3    H261820   3.480   5.373   3.997  0.2758  0.0418 -1.5525
13469TIP3   OH261821   2.484   0.731  15.900 -0.4823  0.5687  0.0535
13469TIP3    H161822   2.425   0.689  15.962 -0.9617  0.6011 -0.3673
13469TIP3    H261823   2.428   0.754  15.826  0.5719 -2.2520 -1.7825
13470TIP3   OH261824   1.340   1.770   5.267  0.0608  0.3652 -0.0319
13470TIP3    H161825   1.429   1.805   5.281 -0.0228 -0.3744  3.0253
13470TIP3    H261826   1.352   1.676   5.258 -0.4002  0.1757  1.0756
13471TIP3   OH261827   3.317   2.476  16.020 -0.0221  0.5673 -0.0156
13471TIP3    H161828   3.320   2.467  16.115  0.9614  1.3419  0.0435
13471TIP3    H261829   3.225   2.459  15.997 -0.2760  0.4031  1.0669
13472TIP3   OH261830   5.593   6.405  12.754  0.1735  0.0562  0.2849
13472TIP3    H161831   5.603   6.410  12.849 -2.4308  0.1608  0.6125
13472TIP3    H261832   5.568   6.315  12.736 -0.2700  0.2687 -0.1961
13473TIP3   OH261833   4.160   5.156  17.098  0.6280  0.4786 -0.2704
13473TIP3    H161834   4.184   5.241  17.134 -1.3929  0.9486  0.0681
13473TIP3    H261835   4.161   5.096  17.173 -0.9728  0.8996  0.1321
13474TIP3   OH261836   6.318   6.417  14.289 -0.1703 -0.0814  0.1900
13474TIP3    H161837   6.367   6.425  14.371  0.8289 -0.4516 -0.3554
13474TIP3    H261838   6.377   6.371  14.230 -0.8337  0.2908 -0.7855
13475TIP3   OH261839   5.605   5.719   5.896 -0.5245  0.1377  0.4103
13475TIP3    H161840   5.635   5.688   5.811 -1.8491  1.1314 -0.4570
13475TIP3    H261841   5.511   5.699   5.897 -0.5014 -0.0083  1.7093
13476TIP3   OH261842   4.219   3.885  11.478  0.0223 -0.9594  0.3909
13476TIP3    H161843   4.203   3.904  11.386  0.3713  0.3648  0.5778
13476TIP3    H261844   4.264   3.963  11.511  1.1013 -1.9542  1.3764
13477TIP3   OH261845   4.141   4.807   3.490  0.1721 -0.5123  0.3041
13477TIP3    H161846   4.189   4.853   3.421  0.1702 -0.5477  0.2793
13477TIP3    H261847   4.153   4.714   3.470 -3.1056 -0.6250 -2.0107
13478TIP3   OH261848   2.994   0.355   5.942  0.1561  0.4562  0.1783
13478TIP3    H161849   3.089   0.357   5.929  0.4985  0.9977  2.4768
13478TIP3    H261850   2.978   0.412   6.017 -1.7331 -1.3113  1.2269
13479TIP3   OH261851   6.348   3.147  11.729 -0.5509  0.3651 -0.1130
13479TIP3    H161852   6.333   3.194  11.811 -1.8197  1.3822 -0.8884
13479TIP3    H261853   6.332   3.212  11.660  0.7456 -0.3863 -1.1906
13480TIP3   OH261854   4.218   6.106  12.764 -1.2088 -0.4369 -0.0645
13480TIP3    H161855   4.197   6.198  12.752 -1.2815 -0.4488 -0.0284
13480TIP3    H261856   4.287   6.106  12.830 -2.5106 -0.5168  1.3460
13481TIP3   OH261857   1.288   5.154  14.707  0.2941 -0.8142 -0.2721
13481TIP3    H161858   1.297   5.230  14.650 -2.9144  0.5094  0.7592
13481TIP3    H261859   1.285   5.080  14.647  1.8135 -0.0126 -1.4222
13482TIP3   OH261860   1.497   6.492  12.019  0.8618  0.4030 -0.2328
13482TIP3    H161861   1.410   6.507  11.984 -0.4783 -1.2356  2.1291
13482TIP3    H261862   1.520   6.403  11.989  3.1319  1.8301 -3.3117
13483TIP3   OH261863   6.205   5.961  12.192  0.1046 -0.1193 -0.1396
13483TIP3    H161864   6.179   6.001  12.109 -0.5099 -0.4567 -0.1113
13483TIP3    H261865   6.259   5.886  12.167 -1.1825 -1.0196 -0.2870
13484TIP3   OH261866   1.166   1.359  13.392 -0.7845  0.1012  0.3827
13484TIP3    H161867   1.139   1.356  13.484 -2.3601 -3.1672 -0.0222
13484TIP3    H261868   1.124   1.437  13.357  1.3537  2.5138  2.7146
13485TIP3   OH261869   1.526   2.583  15.358 -0.3185 -0.4793 -0.7833
13485TIP3    H161870   1.577   2.636  15.419 -1.5753 -1.3959  1.1640
13485TIP3    H261871   1.582   2.508  15.338 -0.4722 -0.9839  0.5640
13486TIP3   OH261872   0.008   0.030   0.299  0.0311  0.4409 -0.1940
13486TIP3    H161873  -0.034   0.055   0.216 -1.4476  0.9163  0.6471
13486TIP3    H261874  -0.006  -0.064   0.306  0.7767  0.2826 -0.8104
13487TIP3   OH261875   1.547   4.865   1.762 -0.2468  0.1772 -0.4814
13487TIP3    H161876   1.597   4.800   1.811  0.1334  0.8769  0.0764
13487TIP3    H261877   1.461   4.864   1.803  0.5579  1.9798  1.4018
13488TIP3   OH261878   6.585   3.662  11.554  0.0347 -0.1367 -0.2160
13488TIP3    H161879   6.599   3.661  11.648  0.7202 -1.3034 -0.3030
13488TIP3    H261880   6.514   3.599  11.540 -0.0051 -0.0327 -0.4859
13489TIP3   OH261881   1.312   5.781   5.438 -0.6180 -0.1762  0.6857
13489TIP3    H161882   1.263   5.857   5.408 -0.9861 -0.1467  1.3521
13489TIP3    H261883   1.251   5.708   5.428 -0.7613 -0.1595  1.3933
13490TIP3   OH261884   2.477   2.259   6.317 -0.4926  0.1913 -0.0017
13490TIP3    H161885   2.569   2.268   6.342 -0.4526 -0.1510 -0.0305
13490TIP3    H261886   2.434   2.223   6.394 -0.4293 -0.5498 -0.3102
13491TIP3   OH261887   4.170   3.271  16.292  0.1311 -0.3541  0.4460
13491TIP3    H161888   4.141   3.284  16.202 -1.7103 -2.2264  0.7036
13491TIP3    H261889   4.189   3.359  16.324 -0.0387  0.4241 -1.4795
13492TIP3   OH261890   4.724   2.445   4.280  0.2461  0.7676 -0.3199
13492TIP3    H161891   4.637   2.450   4.239  0.0538  1.4637  0.1638
13492TIP3    H261892   4.785   2.447   4.206 -0.1260  0.8845 -0.6301
13493TIP3   OH261893   5.999   6.758  16.701 -0.6451 -0.4174  0.1876
13493TIP3    H161894   6.021   6.836  16.649 -0.7107 -1.2897 -1.2058
13493TIP3    H261895   5.913   6.731  16.667  0.1884 -2.1370 -0.6389
13494TIP3   OH261896   1.144   6.607  17.153 -0.3607 -0.6720 -0.2384
13494TIP3    H161897   1.071   6.630  17.096 -1.5001  5.1091  2.7759
13494TIP3    H261898   1.219   6.653  17.116  0.0447 -0.8455  0.3519
13495TIP3   OH261899   4.093   2.518  10.998  0.1097 -1.1176  0.5702
13495TIP3    H161900   4.010   2.499  10.954 -0.8383  0.5563  1.5476
13495TIP3    H261901   4.138   2.577  10.938 -0.9531  0.7395  1.5189
13496TIP3   OH261902   2.593   0.261  17.024  0.0120  0.0376 -0.0570
13496TIP3    H161903   2.615   0.199  17.094 -0.2982  0.3414  0.3186
13496TIP3    H261904   2.505   0.235  16.996  0.3689 -0.4510 -0.7512
13497TIP3   OH261905   3.723   3.853   0.852  0.1570 -0.4594  0.3525
13497TIP3    H161906   3.741   3.764   0.821  0.1702 -0.2499 -0.2661
13497TIP3    H261907   3.801   3.877   0.903 -0.3638 -1.2405  1.5625
13498TIP3   OH261908   4.270   1.978   2.016 -0.4427 -0.6295  0.1356
13498TIP3    H161909   4.279   1.945   2.106  3.6451 -0.9750 -0.2439
13498TIP3    H261910   4.281   1.900   1.961 -0.5933 -0.0625 -0.7142
13499TIP3   OH261911   0.489   2.913   2.817 -0.1291 -0.0588  0.4666
13499TIP3    H161912   0.501   2.882   2.907  0.9782  1.1363  0.7680
13499TIP3    H261913   0.543   2.992   2.812  2.4083 -1.7372 -2.1193
13500TIP3   OH261914   0.882   6.570  12.446 -0.3942  0.2118  0.4092
13500TIP3    H161915   0.839   6.486  12.433  0.0657  0.2948 -2.3439
13500TIP3    H261916   0.831   6.631  12.392  0.7944  1.1331  0.2849
13501TIP3   OH261917   0.657   3.985  14.975  0.0774  0.5146  0.2363
13501TIP3    H161918   0.741   3.940  14.964 -0.1907 -0.2231  1.1102
13501TIP3    H261919   0.602   3.922  15.021 -0.0857  1.9819  2.1622
13502TIP3   OH261920   1.422   4.683  13.725  0.1952  0.2124  0.5333
13502TIP3    H161921   1.474   4.604  13.711  0.9010  0.2439  2.6506
13502TIP3    H261922   1.345   4.654  13.774 -0.2322  0.6477  0.1373
13503TIP3   OH261923   2.723   3.622   5.800 -1.1256  0.0723 -0.6244
13503TIP3    H161924   2.657   3.616   5.869 -1.6047  2.2221 -0.8204
13503TIP3    H261925   2.801   3.655   5.845 -1.8933  3.0317 -1.2586
13504TIP3   OH261926   2.669   5.730   0.411  0.2981  0.2530  0.3720
13504TIP3    H161927   2.712   5.757   0.330 -0.5919  0.5097 -0.0276
13504TIP3    H261928   2.634   5.643   0.393  1.2638 -0.2719  0.9389
13505TIP3   OH261929   6.202   4.575   4.634 -0.1524  0.2104  0.2049
13505TIP3    H161930   6.158   4.618   4.561 -0.5827 -2.0268 -0.9445
13505TIP3    H261931   6.290   4.612   4.634 -0.1336  0.2463 -1.4789
13506TIP3   OH261932   2.987   6.742   1.571  0.1833 -0.4898 -0.1983
13506TIP3    H161933   2.956   6.807   1.508 -1.6478 -1.2411 -0.1249
13506TIP3    H261934   2.944   6.765   1.653  1.4356 -0.3754  0.4544
13507TIP3   OH261935   5.964   1.603   2.747  0.1153  0.4354 -0.1327
13507TIP3    H161936   5.968   1.697   2.762  0.5929  0.2838  0.8045
13507TIP3    H261937   5.966   1.593   2.652 -1.5793  1.4195 -0.3055
13508TIP3   OH261938   2.583   2.040  11.154 -0.0031 -0.0437  0.0528
13508TIP3    H161939   2.518   2.092  11.107 -0.2397 -0.3087  0.0898
13508TIP3    H261940   2.666   2.083  11.134 -0.2974  0.9759  0.9260
13509TIP3   OH261941   4.304   6.146   4.656 -0.2583 -0.3610 -0.2458
13509TIP3    H161942   4.282   6.080   4.722  0.6157 -0.9603 -0.5337
13509TIP3    H261943   4.382   6.111   4.613  0.2101  0.8561 -0.4177
13510TIP3   OH261944   4.797   0.753   2.994  0.1273  0.3116  0.1644
13510TIP3    H161945   4.800   0.662   3.024 -0.3291  0.3321  0.2886
13510TIP3    H261946   4.864   0.798   3.045  2.8384 -0.6106 -2.2825
13511TIP3   OH261947   3.233   6.782   5.518  0.3798  0.4685 -0.8822
13511TIP3    H161948   3.184   6.764   5.437  0.5113 -0.3978 -0.7720
13511TIP3    H261949   3.166   6.811   5.580 -0.0294 -0.8458 -0.6880
13512TIP3   OH261950   1.808   2.297  16.835 -0.1918 -0.0839  0.2219
13512TIP3    H161951   1.810   2.359  16.761  1.1403 -0.1022  0.2221
13512TIP3    H261952   1.727   2.247  16.822  0.5060 -0.7918 -1.8433
13513TIP3   OH261953   4.174   1.036  12.392 -0.2366  0.3715  0.2779
13513TIP3    H161954   4.147   1.127  12.403  1.6089  1.1581 -1.1186
13513TIP3    H261955   4.191   1.028  12.298  0.8317 -1.0728  0.5647
13514TIP3   OH261956   6.595   6.664   3.017  0.0741 -0.5732 -0.4793
13514TIP3    H161957   6.566   6.575   2.995  0.3410 -0.9000  0.4622
13514TIP3    H261958   6.514   6.712   3.031 -0.0566 -0.9046 -0.0813
13515TIP3   OH261959   6.410   0.937  13.376 -0.4313 -0.1971  0.0034
13515TIP3    H161960   6.414   0.967  13.286 -2.1723  3.0111  0.8484
13515TIP3    H261961   6.497   0.902  13.394  0.8317  1.6172 -2.1068
13516TIP3   OH261962   0.350   3.610  14.602 -0.1909 -0.4656  0.1526
13516TIP3    H161963   0.432   3.646  14.569  0.8514 -3.7510 -1.2863
13516TIP3    H261964   0.302   3.585  14.523 -2.0403  0.1930  1.0093
13517TIP3   OH261965   1.408   0.310   3.867 -0.5584 -0.1593  0.0580
13517TIP3    H161966   1.362   0.308   3.783 -2.1536  1.3797  0.8210
13517TIP3    H261967   1.483   0.366   3.852 -1.1366  0.5551 -0.2164
13518TIP3   OH261968   5.280   5.770   3.292  0.1013 -0.0479 -0.0061
13518TIP3    H161969   5.272   5.848   3.237 -1.2065 -0.7569 -0.8746
13518TIP3    H261970   5.332   5.799   3.367 -0.4582  1.6959 -0.2371
13519TIP3   OH261971   6.130   4.070   2.004  0.2437  0.3339  0.2900
13519TIP3    H161972   6.142   4.002   2.070 -1.5118  0.5321  0.8570
13519TIP3    H261973   6.099   4.023   1.926 -0.0964  0.3725  0.3998
13520TIP3   OH261974   4.323   6.036   0.688  0.6942  0.2182 -0.0071
13520TIP3    H161975   4.256   6.042   0.757  1.1703 -0.4025  0.5156
13520TIP3    H261976   4.310   6.115   0.636  1.0812  1.3102  1.4819
13521TIP3   OH261977   1.381   6.516  15.929  0.0476 -0.1239  0.1882
13521TIP3    H161978   1.443   6.445  15.941  0.2586 -0.0557 -0.4443
13521TIP3    H261979   1.433   6.587  15.890 -0.8779 -0.9090 -2.7251
13522TIP3   OH261980   6.010   2.184   3.331 -0.1189  0.1635  0.0725
13522TIP3    H161981   5.961   2.190   3.413  1.9314  0.5131  1.3290
13522TIP3    H261982   6.075   2.116   3.346  1.1725  1.1521 -0.7493
13523TIP3   OH261983   0.669   4.888  10.845 -0.4059 -0.4354  0.4974
13523TIP3    H161984   0.722   4.922  10.917 -0.7445 -0.2351  0.6538
13523TIP3    H261985   0.591   4.944  10.844 -0.6471 -0.7685  0.3137
13524TIP3   OH261986   3.150   4.754   0.572  0.1399  0.2225 -0.1490
13524TIP3    H161987   3.061   4.734   0.540  0.5170 -0.2599 -0.9244
13524TIP3    H261988   3.140   4.837   0.619 -0.7255  0.1683 -0.2179
13525TIP3   OH261989   3.781   1.024   0.114  0.4033  0.4910  0.2737
13525TIP3    H161990   3.775   0.936   0.151  0.0557  0.8838  1.1880
13525TIP3    H261991   3.821   1.012   0.027  0.0844 -0.5889  0.2707
13526TIP3   OH261992   4.924   0.588  15.289  0.0950 -0.0493 -0.5739
13526TIP3    H161993   5.007   0.564  15.248 -0.5396 -1.0733 -1.3137
13526TIP3    H261994   4.873   0.628  15.219 -0.4871 -0.5535 -0.4409
13527TIP3   OH261995   3.827   5.722  11.944 -0.7102  0.0191  0.4402
13527TIP3    H161996   3.876   5.727  11.863 -0.5233  0.1590  0.5607
13527TIP3    H261997   3.766   5.796  11.940  0.3886  1.0115  1.1343
13528TIP3   OH261998   2.256   5.952  14.277 -0.3560  0.3803  0.3954
13528TIP3    H161999   2.228   5.997  14.357 -0.7693 -0.4228  0.7162
13528TIP3    H262000   2.345   5.922  14.295  0.0762  1.3953  0.0315
13529TIP3   OH262001   3.234   0.202  14.969 -0.5236 -0.4312  0.3854
13529TIP3    H162002   3.179   0.222  15.045 -2.6172  2.1502 -1.6022
13529TIP3    H262003   3.319   0.240  14.990 -1.9080  2.9839  0.3928
13530TIP3   OH262004   2.847   6.157  16.670  0.0244  0.5413  1.0927
13530TIP3    H162005   2.789   6.143  16.595  3.0679 -2.5777 -1.0232
13530TIP3    H262006   2.884   6.244  16.656 -1.2745  1.0072  0.3846
13531TIP3   OH262007   2.640   0.999   4.788  0.3262 -0.1155  0.7752
13531TIP3    H162008   2.719   0.998   4.733 -1.0039 -1.1035 -1.2428
13531TIP3    H262009   2.600   1.083   4.770 -0.7617 -0.9245 -0.8727
13532TIP3   OH262010   6.665   2.511  14.290 -0.8776 -0.2507 -0.5875
13532TIP3    H162011   6.749   2.472  14.311 -1.2605 -0.8379 -0.1019
13532TIP3    H262012   6.685   2.601  14.266 -0.3228  0.2351  1.5196
13533TIP3   OH262013   4.417   3.419   5.632  0.0725 -0.3646  0.1806
13533TIP3    H162014   4.432   3.499   5.582 -0.1986 -0.3210  0.1653
13533TIP3    H262015   4.504   3.389   5.658  0.2785 -0.8246 -1.0009
13534TIP3   OH262016   4.234   5.626   4.964 -0.0430 -0.5102  0.4852
13534TIP3    H162017   4.305   5.677   5.001  2.2112 -2.7909 -0.4275
13534TIP3    H262018   4.245   5.633   4.869 -2.6715  1.1425  0.1785
13535TIP3   OH262019   5.478   4.026  13.712 -0.2220  0.6303 -0.6543
13535TIP3    H162020   5.569   4.015  13.738 -0.6261 -0.1246  0.5230
13535TIP3    H262021   5.480   4.026  13.616  0.8427 -0.9114 -0.6650
13536TIP3   OH262022   0.249   3.400  15.513  0.1993 -0.3117 -0.6973
13536TIP3    H162023   0.206   3.389  15.598  1.2286 -2.9166 -0.4330
13536TIP3    H262024   0.341   3.410  15.534  0.2303  1.3306 -1.4516
13537TIP3   OH262025   5.770   0.509   4.471 -0.4230  0.3862 -0.3060
13537TIP3    H162026   5.822   0.560   4.409  0.3949  0.3848  0.3721
13537TIP3    H262027   5.701   0.569   4.500  1.1313  1.4803  1.2659
13538TIP3   OH262028   5.050   2.992  10.791 -0.0533 -0.8182  0.1182
13538TIP3    H162029   5.019   2.919  10.844  0.5076 -0.6797  0.6435
13538TIP3    H262030   4.971   3.039  10.766 -0.3779 -1.3273  0.1795
13539TIP3   OH262031   6.683   1.297  13.004  0.2903  0.1625 -0.4909
13539TIP3    H162032   6.630   1.222  13.032  0.9361  0.2722  1.0943
13539TIP3    H262033   6.767   1.258  12.979 -0.0836  0.1361 -1.8081
13540TIP3   OH262034   6.583   4.726  11.194  0.7310 -0.4351 -0.0964
13540TIP3    H162035   6.626   4.640  11.189  0.4532 -0.5565 -0.3933
13540TIP3    H262036   6.598   4.755  11.284  1.7731 -0.3002 -0.3042
13541TIP3   OH262037   0.460   0.818   2.413 -0.3144 -0.0295  0.2551
13541TIP3    H162038   0.547   0.784   2.436  0.3756  1.9035  0.7198
13541TIP3    H262039   0.424   0.752   2.354  1.1878 -1.2176  0.5811
13542TIP3   OH262040   6.158   0.692  12.803 -0.1243  0.2213  0.3096
13542TIP3    H162041   6.113   0.770  12.837  1.3396  1.6104 -0.7790
13542TIP3    H262042   6.147   0.698  12.708  1.3318 -0.0511  0.1119
13543TIP3   OH262043   0.264   1.406   1.991 -0.9624  0.5420  0.1116
13543TIP3    H162044   0.354   1.431   1.974 -1.8911  3.1285 -1.5858
13543TIP3    H262045   0.263   1.311   1.976  1.4270  0.4602  0.1053
13544TIP3   OH262046   4.884   0.043  14.791 -0.0547  0.0124 -0.3167
13544TIP3    H162047   4.925   0.061  14.876  1.1411 -0.4894 -0.7704
13544TIP3    H262048   4.860   0.130  14.758 -0.1495  0.2441  0.3374
13545TIP3   OH262049   2.434   0.897   3.839  0.2687  0.1825  0.0794
13545TIP3    H162050   2.501   0.899   3.908 -2.0696  0.0089  2.5208
13545TIP3    H262051   2.407   0.806   3.834  0.3820  0.1984 -1.0949
13546TIP3   OH262052   6.067   6.725  10.830 -0.0704 -0.3783 -0.1279
13546TIP3    H162053   6.030   6.800  10.876  0.7560  0.7146 -1.1644
13546TIP3    H262054   5.993   6.688  10.782 -0.4184 -0.0097  0.1161
13547TIP3   OH262055   0.018   6.519   1.360  0.3878 -0.2433  0.1950
13547TIP3    H162056   0.042   6.466   1.435  0.0788 -0.6386  0.0185
13547TIP3    H262057   0.089   6.583   1.352  0.3896 -0.1580  0.8540
13548TIP3   OH262058   5.968   5.762   1.624 -0.6686 -0.1507 -0.3334
13548TIP3    H162059   5.888   5.792   1.667  0.1588 -0.1339  1.2325
13548TIP3    H262060   6.038   5.810   1.666  0.2794 -0.9526 -0.9576
13549TIP3   OH262061   2.422   0.744  16.316  0.0386 -0.3487  0.5910
13549TIP3    H162062   2.465   0.798  16.250 -1.6024 -1.5021 -1.5379
13549TIP3    H262063   2.420   0.799  16.394 -0.5707  2.2564 -1.1405
13550TIP3   OH262064   5.154   5.841   4.899 -0.1161  0.1300  0.0052
13550TIP3    H162065   5.242   5.853   4.935  0.1272 -0.4605 -0.3621
13550TIP3    H262066   5.156   5.886   4.815  0.4642 -1.4563 -0.8879
13551TIP3   OH262067   4.891   4.877   3.515 -0.0209 -0.4610 -0.1046
13551TIP3    H162068   4.952   4.939   3.477 -1.3025  1.1307  0.3257
13551TIP3    H262069   4.944   4.826   3.577  1.4712 -1.2093 -1.8910
13552TIP3   OH262070   6.662   4.653  10.566 -0.9232  0.1398 -0.2551
13552TIP3    H162071   6.674   4.559  10.557 -1.7302  0.1146 -1.2160
13552TIP3    H262072   6.602   4.663  10.639  0.9381  0.0485  1.3761
13553TIP3   OH262073   3.580   4.202   4.211  0.0386  0.6804 -0.0156
13553TIP3    H162074   3.567   4.245   4.295 -1.1689 -0.9551  0.7007
13553TIP3    H262075   3.510   4.136   4.206  2.5190 -2.1758 -0.3492
13554TIP3   OH262076   1.138   1.312  16.141 -0.1548  0.5009  0.1207
13554TIP3    H162077   1.096   1.286  16.223  1.0564 -0.2609  0.5297
13554TIP3    H262078   1.138   1.408  16.143 -1.6445  0.5120  0.1990
13555TIP3   OH262079   4.419   4.350   3.303  0.5989  0.1592  0.3978
13555TIP3    H162080   4.375   4.366   3.219 -0.2329  1.3766  1.0254
13555TIP3    H262081   4.512   4.361   3.284  0.5383 -0.9197 -0.6333
13556TIP3   OH262082   1.303   2.261  12.960 -0.2457 -0.0779 -0.1609
13556TIP3    H162083   1.303   2.327  12.891  2.9817 -0.6714 -0.8742
13556TIP3    H262084   1.351   2.301  13.033  0.5892 -1.1343 -0.1090
13557TIP3   OH262085   6.638   4.110   5.001  0.2826 -0.4625  0.2192
13557TIP3    H162086   6.554   4.144   5.030 -0.6841 -0.6003 -2.2032
13557TIP3    H262087   6.659   4.042   5.065 -0.2361  1.1380  2.2017
13558TIP3   OH262088   6.764   6.524   1.058  0.5208 -0.3308  0.4710
13558TIP3    H162089   6.843   6.543   1.007  0.1849  1.8329  0.6531
13558TIP3    H262090   6.796   6.485   1.139  1.4708  0.9424  0.7378
13559TIP3   OH262091   3.998   2.176  16.384  0.9408  0.1312  0.0228
13559TIP3    H162092   4.007   2.243  16.452 -0.1187 -2.2655  2.7229
13559TIP3    H262093   3.904   2.175  16.364  0.5888 -1.7335  1.4640
13560TIP3   OH262094   5.423   6.610   3.149  0.4598  0.0031  0.5134
13560TIP3    H162095   5.402   6.525   3.187 -1.8899 -1.1343 -2.8817
13560TIP3    H262096   5.513   6.600   3.115  0.4220 -0.9155  0.6595
13561TIP3   OH262097   2.154   5.270   2.948 -0.1409 -0.0981  0.1610
13561TIP3    H162098   2.123   5.204   3.010 -0.2804 -0.7363 -0.5804
13561TIP3    H262099   2.162   5.350   3.000 -0.4277 -0.5833  0.9594
13562TIP3   OH262100   0.710   1.218   3.963  0.4111 -0.8660  0.0220
13562TIP3    H162101   0.747   1.202   3.876 -1.6679  1.3198 -1.3895
13562TIP3    H262102   0.734   1.308   3.984 -2.4133  0.0520 -0.2122
13563TIP3   OH262103   5.750   3.176   0.428  0.2773 -0.1140  0.5771
13563TIP3    H162104   5.755   3.264   0.467  0.7586 -0.1716  0.6462
13563TIP3    H262105   5.659   3.168   0.400  0.8051  1.5239 -1.9993
13564TIP3   OH262106   0.247   0.731   4.911  0.3588 -0.3169 -0.0212
13564TIP3    H162107   0.233   0.757   4.820 -0.7336  1.7181  0.6672
13564TIP3    H262108   0.333   0.766   4.933  0.8323 -1.2340 -0.4095
13565TIP3   OH262109   2.700   5.597  14.654 -0.1908 -0.4210 -0.3351
13565TIP3    H162110   2.610   5.567  14.666 -0.0337 -0.8146 -0.1426
13565TIP3    H262111   2.754   5.519  14.663  0.3449  0.1294  1.6774
13566TIP3   OH262112   0.130   3.097   5.738 -0.2268 -0.0004 -0.1465
13566TIP3    H162113   0.143   3.118   5.831  1.8056 -2.6904  0.2752
13566TIP3    H262114   0.212   3.123   5.696 -0.4215 -0.5003 -0.8441
13567TIP3   OH262115   0.664   3.625  11.275 -0.2823 -0.0337 -0.3658
13567TIP3    H162116   0.599   3.599  11.339 -1.0233  0.9097 -0.7036
13567TIP3    H262117   0.613   3.656  11.200  0.5604 -0.8250 -1.2993
13568TIP3   OH262118   1.502   2.626   0.615 -0.1755  0.2633 -1.1598
13568TIP3    H162119   1.558   2.573   0.558 -0.2683 -1.8413  0.6063
13568TIP3    H262120   1.537   2.613   0.703 -2.9819 -0.6177 -0.0614
13569TIP3   OH262121   3.940   0.681  13.177 -0.1237 -0.1517 -0.4072
13569TIP3    H162122   3.965   0.626  13.251 -0.1876  0.6043  0.1812
13569TIP3    H262123   3.861   0.726  13.207  0.8074  1.4588 -0.2789
13570TIP3   OH262124   2.838   2.682   5.956  0.0468 -0.2370  0.0554
13570TIP3    H162125   2.800   2.765   5.984  0.3284 -0.5408  1.4204
13570TIP3    H262126   2.789   2.658   5.877 -1.0296  0.5002  0.4769
13571TIP3   OH262127   3.877   3.697  13.384  0.5422 -0.1020 -0.3660
13571TIP3    H162128   3.887   3.793  13.382 -0.6421  0.0588 -2.3866
13571TIP3    H262129   3.848   3.675  13.295  0.2093 -2.2840  0.2304
13572TIP3   OH262130   5.211   1.435   0.254  0.0595 -0.5854 -0.1142
13572TIP3    H162131   5.275   1.391   0.197 -0.7369  0.5329 -1.9642
13572TIP3    H262132   5.169   1.500   0.197 -1.2640  0.1413  1.6070
13573TIP3   OH262133   1.544   3.658  13.738  0.0749  0.1494  0.4319
13573TIP3    H162134   1.596   3.582  13.716 -0.6446 -0.7791  1.7366
13573TIP3    H262135   1.499   3.633  13.819 -1.3570  1.3919  0.0658
13574TIP3   OH262136   3.450   1.030  16.931  0.3865  0.0276  0.1790
13574TIP3    H162137   3.535   1.061  16.900  0.1233 -0.1706 -0.7777
13574TIP3    H262138   3.444   1.063  17.021  1.3702  0.2343  0.1831
13575TIP3   OH262139   6.594   3.844  16.561 -0.2496  0.1325  0.0395
13575TIP3    H162140   6.521   3.809  16.511  0.6185 -1.6490 -0.0426
13575TIP3    H262141   6.670   3.830  16.506  0.2997  1.1402  0.5083
13576TIP3   OH262142   4.486   2.085   3.590  0.2599  0.4187 -0.4232
13576TIP3    H162143   4.466   2.054   3.502  1.4862  0.9155 -0.9104
13576TIP3    H262144   4.472   2.009   3.647 -1.1854  0.2734 -0.9348
13577TIP3   OH262145   6.121   6.544  11.757  0.0266  0.2306  1.0504
13577TIP3    H162146   6.187   6.523  11.824  0.3550  1.9173  1.3172
13577TIP3    H262147   6.093   6.459  11.723 -0.4468 -0.7366  3.6033
13578TIP3   OH262148   3.870   4.387   6.356 -0.1262  0.2364 -0.4867
13578TIP3    H162149   3.822   4.368   6.276  0.4065 -1.4303 -0.4613
13578TIP3    H262150   3.810   4.440   6.408 -1.8666 -1.5318 -0.5692
13579TIP3   OH262151   4.509   5.226   2.077 -0.0550  0.0834  0.2084
13579TIP3    H162152   4.474   5.256   2.161 -1.1080 -1.3224  0.3141
13579TIP3    H262153   4.578   5.164   2.101 -0.1426 -0.0820  0.0309
13580TIP3   OH262154   0.948   0.113   2.713  0.0162  0.1654  0.6628
13580TIP3    H162155   1.001   0.175   2.662  1.4862 -0.0398  1.8876
13580TIP3    H262156   0.890   0.073   2.648  2.3116 -0.6422 -1.0527
13581TIP3   OH262157   0.387   5.789   5.524  0.0503  0.1044  0.4423
13581TIP3    H162158   0.354   5.862   5.577  0.0929  0.3756  0.0957
13581TIP3    H262159   0.371   5.711   5.578 -2.2412  0.0763 -0.1707
13582TIP3   OH262160   3.025   2.132  16.758  0.2220  0.0286  0.0953
13582TIP3    H162161   2.972   2.149  16.680 -0.2957  0.8855  0.6218
13582TIP3    H262162   2.963   2.136  16.831  1.0853  1.6658  0.7879
13583TIP3   OH262163   0.895   3.781  11.036 -0.0722 -0.5183 -0.1965
13583TIP3    H162164   0.936   3.730  11.106  0.0011 -0.1210  0.0572
13583TIP3    H262165   0.934   3.868  11.044  0.2577 -0.5878 -1.0170
13584TIP3   OH262166   1.382   6.218  16.521  0.0996 -0.1236  0.2538
13584TIP3    H162167   1.443   6.251  16.587  1.0105 -0.6229 -0.3036
13584TIP3    H262168   1.333   6.148  16.565 -0.0035  0.2245  0.6850
13585TIP3   OH262169   3.123   1.848   1.499 -0.1962 -0.8058  0.3036
13585TIP3    H162170   3.170   1.827   1.418 -1.1110  0.4519 -0.5930
13585TIP3    H262171   3.043   1.796   1.494 -1.2130  0.7658 -0.6331
13586TIP3   OH262172   1.822   5.870   4.485  0.3816  0.5670  0.0777
13586TIP3    H162173   1.818   5.917   4.569  2.2431 -1.1847  1.2373
13586TIP3    H262174   1.911   5.837   4.481  0.5257  1.0934 -2.9402
13587TIP3   OH262175   5.890   1.682   3.148  0.0401  0.3434  0.7805
13587TIP3    H162176   5.977   1.646   3.127 -0.4457 -0.5817  0.2531
13587TIP3    H262177   5.885   1.762   3.096 -0.7162 -1.3525 -2.0080
13588TIP3   OH262178   4.815   0.477   0.513  0.0180 -0.1294  0.4555
13588TIP3    H162179   4.824   0.461   0.419  0.9220 -3.0153  0.9224
13588TIP3    H262180   4.779   0.395   0.548 -1.8945  1.4506  2.4540
13589TIP3   OH262181   1.916   1.013  14.226  0.0216 -0.2306 -0.6993
13589TIP3    H162182   1.998   1.020  14.274 -0.0918 -3.1419  0.1017
13589TIP3    H262183   1.864   1.087  14.258  2.1947  1.5875 -1.1101
13590TIP3   OH262184   4.855   0.430  14.452  0.0433 -0.1263  0.6369
13590TIP3    H162185   4.761   0.444  14.455 -0.2704 -1.6932 -0.4733
13590TIP3    H262186   4.882   0.461  14.366  1.0918  2.9064  1.9172
13591TIP3   OH262187   0.606   6.709   5.354 -0.3013 -0.1453 -0.1281
13591TIP3    H162188   0.573   6.764   5.425  1.2184  1.1905 -0.4049
13591TIP3    H262189   0.571   6.748   5.274  0.6838  0.3777 -0.3180
13592TIP3   OH262190   6.012   6.760   6.646 -0.3178 -0.3226 -0.2339
13592TIP3    H162191   6.007   6.820   6.572 -0.2102  0.5088  0.4166
13592TIP3    H262192   6.100   6.774   6.683 -0.7970  0.1546  0.7644
13593TIP3   OH262193   3.129   5.599  16.925  0.3431 -0.0357  0.3661
13593TIP3    H162194   3.102   5.574  16.837 -1.7760  1.4598  0.5373
13593TIP3    H262195   3.208   5.547  16.941 -0.9190 -2.6338 -1.2251
13594TIP3   OH262196   1.182   6.647   1.701 -0.0077  0.3211 -0.2621
13594TIP3    H162197   1.182   6.731   1.747 -1.9001 -0.2333  0.8442
13594TIP3    H262198   1.095   6.640   1.662  0.5030 -0.6416 -1.3090
13595TIP3   OH262199   1.201   4.549   5.565  0.1520  0.0065 -0.1132
13595TIP3    H162200   1.155   4.620   5.520 -3.3056 -1.8847  0.1113
13595TIP3    H262201   1.193   4.570   5.658  1.0251  0.3557 -0.1087
13596TIP3   OH262202   2.599   2.513   2.405  0.9631 -0.4774 -0.6709
13596TIP3    H162203   2.578   2.469   2.323 -0.1620  0.1585 -0.7384
13596TIP3    H262204   2.601   2.606   2.384 -0.0309 -0.2487  0.1394
13597TIP3   OH262205   3.394   3.628   0.411 -0.4912 -0.5597  0.3805
13597TIP3    H162206   3.453   3.607   0.484 -1.3461  1.5734  1.7779
13597TIP3    H262207   3.363   3.717   0.430 -0.8258  0.0495 -2.5675
13598TIP3   OH262208   1.786   0.142  11.184 -0.1140  0.0421  0.2730
13598TIP3    H162209   1.723   0.071  11.169  0.0902  0.0029 -0.4317
13598TIP3    H262210   1.772   0.203  11.112  0.3547  0.2535  0.3552
13599TIP3   OH262211   2.995   5.805  14.072  0.3294  0.0187 -0.2075
13599TIP3    H162212   3.058   5.877  14.081  0.2249  0.1896 -0.8129
13599TIP3    H262213   2.910   5.848  14.083  0.2703 -0.0252 -0.4966
13600TIP3   OH262214   1.298   3.579  11.694 -0.2093  0.2937  0.1228
13600TIP3    H162215   1.215   3.603  11.736 -0.4411  1.1431 -0.7965
13600TIP3    H262216   1.365   3.618  11.749 -0.5575  3.0779 -1.2287
13601TIP3   OH262217   3.760   6.752  12.137  0.4897  0.1262  0.3032
13601TIP3    H162218   3.669   6.772  12.116  0.5048  0.6222  0.6860
13601TIP3    H262219   3.807   6.760  12.054  0.5718  2.1644  0.4902
13602TIP3   OH262220   1.237   2.209   0.727  0.3899  0.2663  0.4827
13602TIP3    H162221   1.324   2.250   0.721  0.3207  0.2137 -2.6701
13602TIP3    H262222   1.179   2.280   0.755  0.8443  1.4389 -1.3900
13603TIP3   OH262223   0.700   0.501  13.455  0.2871 -0.1703 -0.4432
13603TIP3    H162224   0.630   0.498  13.390  0.8517 -1.1011 -1.0331
13603TIP3    H262225   0.691   0.587  13.497 -1.2597 -0.3244 -0.4340
13604TIP3   OH262226   5.948   3.639   0.259 -0.1007 -0.1369  0.5930
13604TIP3    H162227   5.937   3.545   0.270 -0.8576 -0.2962 -1.2250
13604TIP3    H262228   5.932   3.655   0.166  0.2720  1.7549  0.8058
13605TIP3   OH262229   5.257   5.633  13.015 -0.2576  0.5503 -0.3572
13605TIP3    H162230   5.220   5.708  13.060 -1.9504 -0.7622  0.5601
13605TIP3    H262231   5.238   5.648  12.923  0.8269  1.9594 -0.3853
13606TIP3   OH262232   3.022   0.344   2.343 -1.0473  0.4882  0.2077
13606TIP3    H162233   3.016   0.426   2.293 -0.8212 -0.4814 -1.4790
13606TIP3    H262234   3.116   0.334   2.360 -0.8911 -0.1488 -0.9157
13607TIP3   OH262235   5.064   1.887  13.922  0.4576 -0.3606  0.0437
13607TIP3    H162236   4.991   1.913  13.978 -1.1506 -0.7170 -1.7872
13607TIP3    H262237   5.125   1.960  13.927 -1.7552  1.7132 -1.2421
13608TIP3   OH262238   4.927   6.635  11.329 -0.1831 -0.4858 -0.2006
13608TIP3    H162239   4.988   6.603  11.396 -1.1697 -0.7824  0.5887
13608TIP3    H262240   4.975   6.626  11.247  0.1262 -2.6941  0.1362
13609TIP3   OH262241   5.003   3.516  14.129 -0.0060  0.1926 -0.1671
13609TIP3    H162242   5.063   3.551  14.064  1.6902  3.1167  2.6354
13609TIP3    H262243   4.937   3.585  14.140 -2.5587 -1.8804 -1.3781
13610TIP3   OH262244   3.420   2.766   1.989  0.4135 -0.4978  0.2667
13610TIP3    H162245   3.347   2.707   2.010  0.4441 -0.7684 -0.3668
13610TIP3    H262246   3.384   2.825   1.923  0.8691 -0.8664 -0.3174
13611TIP3   OH262247   2.665   4.418   1.679  0.3103 -0.3820  0.0649
13611TIP3    H162248   2.575   4.386   1.688  0.5681 -1.0164  0.4163
13611TIP3    H262249   2.713   4.345   1.642  1.0318 -0.6240  1.4187
13612TIP3   OH262250   5.948   4.830  11.531 -0.0210  0.3752  0.9068
13612TIP3    H162251   5.940   4.842  11.436  2.0830 -0.7121  0.5316
13612TIP3    H262252   5.874   4.775  11.554 -2.3228  3.0500  0.4963
13613TIP3   OH262253   4.687   2.894  16.606  0.1524  0.2780 -0.2251
13613TIP3    H162254   4.683   2.939  16.522 -1.1249  1.5446  0.4595
13613TIP3    H262255   4.610   2.837  16.606  0.9299 -0.7987 -0.4648
13614TIP3   OH262256   2.264   1.891   4.471 -0.1482  0.0626  0.0872
13614TIP3    H162257   2.341   1.859   4.518 -0.3831 -0.6213  0.0095
13614TIP3    H262258   2.300   1.941   4.398  0.2183  0.6025  0.6282
13615TIP3   OH262259   0.369   0.179   4.585  0.0913 -0.3863  0.1638
13615TIP3    H162260   0.301   0.127   4.542 -0.3675  0.8846 -0.7165
13615TIP3    H262261   0.338   0.270   4.578  1.7338  0.1959 -0.0243
13616TIP3   OH262262   1.407   5.982   6.251 -0.1881  0.7502 -0.0527
13616TIP3    H162263   1.422   6.016   6.162 -0.1321  0.4309 -0.1684
13616TIP3    H262264   1.455   5.899   6.253  0.3835  1.0888  0.5060
13617TIP3   OH262265   1.461   3.103  13.162  0.3851 -0.4233 -0.4957
13617TIP3    H162266   1.375   3.108  13.203 -0.3962 -1.2868 -1.9323
13617TIP3    H262267   1.521   3.087  13.234 -0.7626 -0.6140  0.4501
13618TIP3   OH262268   0.364   5.814   6.310 -0.5244  0.2895 -0.4488
13618TIP3    H162269   0.433   5.874   6.338  1.0300 -1.4054 -0.4204
13618TIP3    H262270   0.342   5.764   6.389  0.3718 -1.1646 -1.0620
13619TIP3   OH262271   2.923   5.856  11.792 -0.3193  0.3133 -0.0173
13619TIP3    H162272   2.923   5.893  11.881  0.7556 -1.4634  0.7724
13619TIP3    H262273   3.004   5.804  11.788 -2.0540 -2.5498 -0.7582
13620TIP3   OH262274   0.978   6.522  11.910  0.2254 -0.0917 -0.0639
13620TIP3    H162275   0.944   6.476  11.987  2.0279  0.0085  0.8397
13620TIP3    H262276   0.958   6.614  11.926  1.2221  0.0150  0.6607
13621TIP3   OH262277   3.481   2.654   3.906  0.2107  0.2864 -0.1663
13621TIP3    H162278   3.465   2.571   3.861 -1.0588  0.5919 -0.3165
13621TIP3    H262279   3.405   2.708   3.886  0.2593  0.9281  1.2169
13622TIP3   OH262280   4.391   3.246   0.860  0.2833 -0.1661 -0.3738
13622TIP3    H162281   4.354   3.307   0.925  1.3686  1.3802 -1.1543
13622TIP3    H262282   4.375   3.159   0.898  0.1417  0.6451  1.5646
13623TIP3   OH262283   2.269   0.176  17.185  0.0579  0.6139 -0.0360
13623TIP3    H162284   2.238   0.086  17.174 -0.1795  0.9104 -2.1307
13623TIP3    H262285   2.305   0.178  17.274 -0.5745 -1.3445  0.3073
13624TIP3   OH262286   6.709   3.998  16.325 -0.1398 -0.2407  0.0165
13624TIP3    H162287   6.797   3.999  16.286  0.4820 -3.6872  1.0156
13624TIP3    H262288   6.713   4.065  16.393  1.1157  0.8508 -1.0696
13625TIP3   OH262289   1.650   6.208   4.152  0.6649 -0.2726 -0.3714
13625TIP3    H162290   1.581   6.275   4.151  0.3446 -0.5484 -2.5499
13625TIP3    H262291   1.732   6.257   4.152  0.4557  0.0812 -0.0724
13626TIP3   OH262292   1.434   0.329   5.032 -0.7154  0.4632  0.4666
13626TIP3    H162293   1.469   0.412   5.001 -2.3556  0.1929 -2.5514
13626TIP3    H262294   1.509   0.282   5.068  0.5917  2.4898  0.5015
13627TIP3   OH262295   4.047   3.612  17.100  0.5885  0.2712 -0.0120
13627TIP3    H162296   3.985   3.596  17.171 -0.1463  0.1963 -0.6623
13627TIP3    H262297   4.018   3.695  17.061  1.0457  0.3631 -0.1606
13628TIP3   OH262298   6.105   4.487  12.534  0.5168 -0.1133  0.3737
13628TIP3    H162299   6.144   4.446  12.611 -2.4688  1.4982  2.9946
13628TIP3    H262300   6.011   4.471  12.543 -0.1177  1.6722 -1.9867
13629TIP3   OH262301   3.317   4.524  11.890  0.1271 -0.1839 -0.7833
13629TIP3    H162302   3.312   4.441  11.938  1.8366 -0.1874 -0.5261
13629TIP3    H262303   3.279   4.505  11.804  0.4978 -1.2441 -0.7251
13630TIP3   OH262304   5.801   2.729  11.696  0.4054 -0.3528 -0.2816
13630TIP3    H162305   5.734   2.711  11.762  0.8120 -3.0529 -0.5173
13630TIP3    H262306   5.754   2.728  11.613  0.2255  1.1431 -0.2312
13631TIP3   OH262307   0.861   4.182   2.433 -0.3204 -0.4310  0.3029
13631TIP3    H162308   0.935   4.138   2.393  0.1676  1.0219 -0.4713
13631TIP3    H262309   0.785   4.149   2.385 -0.1365 -1.4901  0.7109
13632TIP3   OH262310   4.790   6.698   2.468  0.0192 -0.0624  0.1175
13632TIP3    H162311   4.885   6.690   2.478  0.0168 -1.9105 -1.0317
13632TIP3    H262312   4.754   6.663   2.549  0.3079 -1.0993 -0.1842
13633TIP3   OH262313   2.615   6.261  12.723 -1.0155  0.6925 -0.4502
13633TIP3    H162314   2.621   6.316  12.801 -2.5450  0.9088 -0.4635
13633TIP3    H262315   2.672   6.304  12.659  0.8562  0.1055  0.7422
13634TIP3   OH262316   4.903   2.839   2.257  0.1584 -0.4132 -0.2732
13634TIP3    H162317   4.910   2.828   2.352 -0.7350 -0.1124 -0.1637
13634TIP3    H262318   4.831   2.901   2.245  2.2224  1.9960 -1.0265
13635TIP3   OH262319   4.713   3.256   1.687 -0.0107 -0.2329 -0.0492
13635TIP3    H162320   4.679   3.231   1.601 -0.5305  1.0235 -0.2413
13635TIP3    H262321   4.637   3.252   1.745 -0.0173  0.4153  0.0013
13636TIP3   OH262322   3.559   6.267   6.200  0.3986  0.2629 -0.1918
13636TIP3    H162323   3.628   6.201   6.200 -0.1232 -0.2874 -0.3704
13636TIP3    H262324   3.503   6.242   6.273 -0.1887  0.0942 -0.6943
13637TIP3   OH262325   3.735   2.190  13.090  0.8419 -0.6533 -0.5484
13637TIP3    H162326   3.769   2.166  13.004 -2.0133 -0.9848 -1.7024
13637TIP3    H262327   3.742   2.110  13.142  0.5341 -1.1121 -1.1977
13638TIP3   OH262328   4.220   3.356  16.770  0.4291  0.2810  0.2578
13638TIP3    H162329   4.214   3.311  16.854 -1.8231 -1.4322 -0.7268
13638TIP3    H262330   4.186   3.444  16.787 -0.1794 -0.1066  1.0846
13639TIP3   OH262331   3.165   5.019   3.508 -0.3038 -0.0766  0.0994
13639TIP3    H162332   3.195   4.949   3.566 -0.3646  0.5778  0.9481
13639TIP3    H262333   3.074   5.033   3.532 -0.3930  0.0496 -0.3070
13640TIP3   OH262334   3.056   1.627  14.273  0.1610 -0.2093  0.0599
13640TIP3    H162335   3.102   1.543  14.267  1.9281  0.8226 -2.0878
13640TIP3    H262336   3.096   1.671  14.348  1.4168 -0.0961 -0.6505
13641TIP3   OH262337   3.823   1.302   3.702  0.4721 -0.0549 -0.5723
13641TIP3    H162338   3.744   1.326   3.749  0.2577 -1.9148  0.1185
13641TIP3    H262339   3.874   1.382   3.697 -0.0511  0.4868  1.7481
13642TIP3   OH262340   4.186   4.901  12.406 -0.2956 -0.2293 -0.2141
13642TIP3    H162341   4.163   4.899  12.313  2.8583 -1.2085 -1.0710
13642TIP3    H262342   4.176   4.810  12.435 -0.6967 -0.0341  0.2807
13643TIP3   OH262343   3.963   0.624  12.549 -0.1558 -0.1515  0.9057
13643TIP3    H162344   4.014   0.704  12.536 -0.3933  0.0736  1.3234
13643TIP3    H262345   3.902   0.646  12.620  0.2494 -0.9289  1.5054
13644TIP3   OH262346   3.704   4.037  16.900 -0.1227 -0.0335  0.5139
13644TIP3    H162347   3.673   4.104  16.961 -0.8223  1.0181 -0.9275
13644TIP3    H262348   3.674   4.067  16.814 -0.6378 -2.3250 -0.1672
13645TIP3   OH262349   4.469   1.248  16.592 -0.4147 -0.1368 -0.1633
13645TIP3    H162350   4.541   1.251  16.655  0.4591  1.2745 -1.1584
13645TIP3    H262351   4.484   1.167  16.543 -0.5615 -0.7630  0.7985
13646TIP3   OH262352   2.519   5.463  12.071  0.1198  0.5264  0.0453
13646TIP3    H162353   2.504   5.402  12.144  0.1528  2.1976  1.5002
13646TIP3    H262354   2.610   5.446  12.045 -0.2612 -0.9285 -0.4724
13647TIP3   OH262355   1.004   1.066   2.935  0.2647  0.1376  0.1656
13647TIP3    H162356   0.936   1.002   2.913 -0.6691  1.0276  0.3823
13647TIP3    H262357   1.023   1.111   2.852 -1.4708  1.8010  0.6044
13648TIP3   OH262358   6.085   5.501   3.600  0.4553 -0.7360  0.6162
13648TIP3    H162359   6.048   5.571   3.546 -2.9671 -1.2730  1.9797
13648TIP3    H262360   6.127   5.442   3.538 -0.4433  0.3212 -1.0625
13649TIP3   OH262361   1.538   1.544   5.205 -0.2915 -0.6882  0.5430
13649TIP3    H162362   1.619   1.493   5.201  1.0934  1.4341  0.1743
13649TIP3    H262363   1.566   1.635   5.200 -2.8443  0.1114 -1.7866
13650TIP3   OH262364   5.303   3.799   1.491  0.3764  0.0627  0.1139
13650TIP3    H162365   5.310   3.729   1.556  0.4227  1.5332  1.7359
13650TIP3    H262366   5.227   3.850   1.518 -0.5333 -0.1446 -1.8862
13651TIP3   OH262367   4.849   3.635  13.169 -0.4424  0.5661 -0.0644
13651TIP3    H162368   4.780   3.586  13.125 -1.7071  1.4453  0.8776
13651TIP3    H262369   4.902   3.568  13.212 -0.6759 -0.1198 -0.8080
13652TIP3   OH262370   6.315   4.969  14.065 -0.1516  0.0050 -0.2320
13652TIP3    H162371   6.352   4.920  14.138  0.9971  0.7247 -0.3000
13652TIP3    H262372   6.377   5.040  14.051 -1.6477  1.3494 -0.2853
13653TIP3   OH262373   5.972   3.002  10.913 -0.0485 -0.1725 -0.1815
13653TIP3    H162374   5.954   3.017  11.006 -3.1058 -1.9382 -0.3775
13653TIP3    H262375   5.976   2.907  10.904  0.2119 -0.0271 -1.8680
13654TIP3   OH262376   2.092   6.469   1.137 -0.0563 -0.4145 -0.0750
13654TIP3    H162377   2.019   6.448   1.196  0.0825  1.0832  0.6846
13654TIP3    H262378   2.170   6.455   1.190  0.0354  2.3104  0.6594
13655TIP3   OH262379   6.180   3.668   3.114 -0.2298 -0.0736 -0.1217
13655TIP3    H162380   6.265   3.708   3.131  0.4313 -0.9621 -1.1449
13655TIP3    H262381   6.179   3.588   3.166  0.0918 -0.6869 -1.0235
13656TIP3   OH262382   5.445   1.321   4.810  0.3163  0.1817 -0.1694
13656TIP3    H162383   5.471   1.250   4.869  0.8448  0.5230  0.0102
13656TIP3    H262384   5.441   1.280   4.723 -1.9461 -0.7034  0.2673
13657TIP3   OH262385   0.714   6.090   6.830 -0.2567  0.6551  0.0967
13657TIP3    H162386   0.803   6.073   6.798  0.0690  0.1074  1.2553
13657TIP3    H262387   0.659   6.077   6.753  0.3053 -2.4886  0.0948
13658TIP3   OH262388   6.629   3.830  14.475  0.3450 -0.1187 -0.2668
13658TIP3    H162389   6.638   3.916  14.516  0.5192 -0.1747 -0.1826
13658TIP3    H262390   6.686   3.774  14.527 -0.7537 -0.5718  0.4889
13659TIP3   OH262391   1.951   2.162  13.088 -0.0523  0.1548  0.7045
13659TIP3    H162392   1.875   2.216  13.110 -0.0714 -0.1943  1.5233
13659TIP3    H262393   1.956   2.166  12.992 -0.9259  0.4159  0.6596
13660TIP3   OH262394   0.353   1.909   2.681  0.6399  0.5913  0.3588
13660TIP3    H162395   0.419   1.851   2.644  0.1766 -0.2398  0.8146
13660TIP3    H262396   0.399   1.959   2.747  1.2542  1.4093 -0.6563
13661TIP3   OH262397   3.772   4.464   3.249  0.1140 -0.0308  0.0464
13661TIP3    H162398   3.709   4.401   3.212 -2.9592  2.3647  0.7397
13661TIP3    H262399   3.766   4.540   3.192 -0.2850  1.5212  2.0336
13662TIP3   OH262400   3.298   1.236  15.631 -0.0815 -0.3204  0.3734
13662TIP3    H162401   3.258   1.317  15.663 -0.6129  0.7404 -2.6524
13662TIP3    H262402   3.381   1.264  15.593  0.3634 -1.4425  0.4752
13663TIP3   OH262403   4.159   4.448   2.279 -0.4954 -0.0250 -0.2589
13663TIP3    H162404   4.187   4.420   2.192  0.9256 -0.6273  0.3509
13663TIP3    H262405   4.196   4.536   2.289 -1.4467  0.4283 -0.5955
13664TIP3   OH262406   0.338   6.691  17.184 -0.5063  0.1799 -0.3046
13664TIP3    H162407   0.401   6.623  17.206 -0.8809 -0.0728 -0.0154
13664TIP3    H262408   0.266   6.645  17.141 -0.3025  0.5248 -1.0254
13665TIP3   OH262409   0.696   5.934   4.684 -0.7042 -0.8499 -0.1787
13665TIP3    H162410   0.699   6.012   4.627  2.4142  1.5552  2.8524
13665TIP3    H262411   0.782   5.893   4.673 -0.5501 -1.1108  1.7148
13666TIP3   OH262412   4.017   1.514   0.609  0.1501  0.5355  0.2348
13666TIP3    H162413   4.100   1.537   0.651  0.7982 -2.5038  0.8131
13666TIP3    H262414   3.952   1.520   0.679  0.4996 -0.4295  0.6499
13667TIP3   OH262415   5.747   0.614   4.169  0.1953 -0.0718 -0.1105
13667TIP3    H162416   5.825   0.620   4.225  1.2444 -3.3640 -0.9901
13667TIP3    H262417   5.778   0.641   4.082  0.1070 -0.3772 -0.2407
13668TIP3   OH262418   1.180   6.575   5.187  0.5086 -0.0832 -0.1742
13668TIP3    H162419   1.178   6.482   5.164 -0.2344  0.1112 -0.9247
13668TIP3    H262420   1.097   6.609   5.155 -0.3085  0.3541  2.2162
13669TIP3   OH262421   5.474   0.902   0.613 -0.2049  0.6442 -0.1234
13669TIP3    H162422   5.479   0.859   0.528 -0.1731 -1.5105  0.8971
13669TIP3    H262423   5.401   0.859   0.658  2.3149 -1.3197  2.4431
13670TIP3   OH262424   2.030   6.335   2.543 -0.6101  0.3811  0.1623
13670TIP3    H162425   2.051   6.358   2.453 -0.5483 -1.7030 -0.4148
13670TIP3    H262426   2.101   6.276   2.570 -0.9572  0.4681  1.3534
13671TIP3   OH262427   3.805   5.893   5.985 -0.0610 -0.5586  0.5897
13671TIP3    H162428   3.894   5.887   6.021 -0.0256 -1.9088  0.3212
13671TIP3    H262429   3.797   5.816   5.929 -0.9359  0.2647 -0.4619
13672TIP3   OH262430   3.369   5.279   1.051 -0.6285 -0.3685  0.3338
13672TIP3    H162431   3.397   5.370   1.044 -0.6368 -0.5039 -2.3089
13672TIP3    H262432   3.447   5.228   1.028 -0.8372 -1.0251  1.0366
13673TIP3   OH262433   0.775   3.000  14.229 -0.2073  0.1321  0.5929
13673TIP3    H162434   0.726   2.996  14.146 -0.1106 -0.5675  0.5690
13673TIP3    H262435   0.846   2.937  14.218  1.0708  1.5510  0.3946
13674TIP3   OH262436   5.551   5.961   1.920  0.4356 -0.1001  0.6444
13674TIP3    H162437   5.458   5.964   1.902  0.8915 -0.8237 -2.2678
13674TIP3    H262438   5.557   5.958   2.016 -2.4980 -0.2480  0.8999
13675TIP3   OH262439   2.347   2.761   0.986  0.3917  0.4288 -0.0990
13675TIP3    H162440   2.354   2.729   1.076 -0.5090  0.0786 -0.1409
13675TIP3    H262441   2.432   2.741   0.946  0.3293 -0.6619  0.2824
13676TIP3   OH262442   3.113   3.572   4.800 -0.4876  0.1076  0.9153
13676TIP3    H162443   3.095   3.581   4.893  0.7678 -0.8726  1.2771
13676TIP3    H262444   3.141   3.659   4.772 -1.2169  0.4928  1.3547
13677TIP3   OH262445   4.198   6.331  12.157 -0.1429  0.0352  0.5796
13677TIP3    H162446   4.160   6.270  12.094  1.4396  0.0788 -0.4734
13677TIP3    H262447   4.257   6.385  12.106  1.4163 -0.1000  2.1345
13678TIP3   OH262448   3.911   6.097   5.199  0.2427  0.0716 -0.1122
13678TIP3    H162449   3.902   6.043   5.120  0.3953  0.0044 -0.0830
13678TIP3    H262450   3.862   6.050   5.266  0.3985 -0.0440 -0.0798
13679TIP3   OH262451   5.368   3.218   2.152 -0.2382  0.1262  0.2546
13679TIP3    H162452   5.274   3.232   2.155  0.1040  2.7120  1.1790
13679TIP3    H262453   5.398   3.270   2.077  0.6225  0.5383  0.8743
13680TIP3   OH262454   5.089   1.348  12.483 -0.1641 -0.0705 -0.2693
13680TIP3    H162455   5.143   1.366  12.559  2.1694 -0.7030 -1.6883
13680TIP3    H262456   5.000   1.337  12.518  0.7108  0.3557  2.2194
13681TIP3   OH262457   0.278   2.613  12.625  0.0528  0.2433  0.1122
13681TIP3    H162458   0.300   2.661  12.545  0.4646  0.6855  0.4780
13681TIP3    H262459   0.268   2.682  12.692  1.4659 -0.2144  0.8330
13682TIP3   OH262460   2.173   1.966  11.415 -0.2074  0.0708  0.4879
13682TIP3    H162461   2.248   2.025  11.421 -0.8233  0.8404  0.8466
13682TIP3    H262462   2.173   1.937  11.324 -1.2995  2.5903 -0.4143
13683TIP3   OH262463   4.188   5.971   4.894  0.0821 -0.0663  0.3565
13683TIP3    H162464   4.117   5.979   4.830 -1.3549 -3.8721  1.1742
13683TIP3    H262465   4.167   6.036   4.962  0.0678  2.0629 -1.5779
13684TIP3   OH262466   4.500   4.704   3.282  0.6652 -0.4555  0.1725
13684TIP3    H162467   4.531   4.710   3.372  0.9384  0.8262  0.0083
13684TIP3    H262468   4.448   4.783   3.269 -1.4528 -1.8054 -0.0342
13685TIP3   OH262469   2.881   1.819  11.526 -0.2357 -0.1925 -0.2729
13685TIP3    H162470   2.892   1.893  11.466 -0.5572 -0.7669 -1.0660
13685TIP3    H262471   2.865   1.859  11.611  0.1073  0.6452 -0.5936
13686TIP3   OH262472   0.303   3.752  13.611  0.0676  0.3324 -0.8662
13686TIP3    H162473   0.333   3.699  13.536  0.1990  0.2340 -0.7442
13686TIP3    H262474   0.354   3.833  13.604  3.2846 -1.2714  1.5075
13687TIP3   OH262475   4.308   5.873  12.293  0.0668  0.1225 -0.3554
13687TIP3    H162476   4.255   5.841  12.365  0.7923 -0.8223 -0.2171
13687TIP3    H262477   4.336   5.794  12.247  0.5258  0.6534 -1.0166
13688TIP3   OH262478   2.724   0.286   6.624 -0.1447  0.7112  0.1218
13688TIP3    H162479   2.798   0.290   6.562  0.6471  0.7862  1.0489
13688TIP3    H262480   2.761   0.248   6.703 -0.4642  2.9836  1.4688
13689TIP3   OH262481   6.732   6.120  14.929 -0.0554  0.5609 -0.6791
13689TIP3    H162482   6.709   6.183  14.997 -3.2894 -0.5757 -0.5815
13689TIP3    H262483   6.778   6.050  14.975 -0.7754  0.5709  0.0600
13690TIP3   OH262484   3.497   6.421  13.179  0.7018 -0.3364 -0.5164
13690TIP3    H162485   3.569   6.451  13.235  0.9016 -0.3829 -0.7488
13690TIP3    H262486   3.425   6.406  13.240  0.4061  1.1756 -0.4548
13691TIP3   OH262487   6.410   3.015   0.549 -0.3931  0.3469 -0.3037
13691TIP3    H162488   6.376   3.060   0.472 -0.3962  1.0775  0.1138
13691TIP3    H262489   6.390   2.922   0.534  1.0699  0.2310 -1.9532
13692TIP3   OH262490   0.098   1.916   2.547 -0.5599  0.5202  0.2103
13692TIP3    H162491   0.096   2.012   2.546  2.1043  0.6696 -1.9563
13692TIP3    H262492   0.167   1.894   2.609  0.4597  0.1542 -1.0118
13693TIP3   OH262493   2.986   5.664   5.739  0.1930  0.4830 -0.4907
13693TIP3    H162494   2.953   5.662   5.829  1.2632 -0.5619 -0.1043
13693TIP3    H262495   2.913   5.631   5.686  0.1509 -0.5862  0.2037
13694TIP3   OH262496   5.644   3.250  10.618 -0.0075  0.2896 -0.0814
13694TIP3    H162497   5.601   3.297  10.689 -2.1202 -0.1283 -1.0317
13694TIP3    H262498   5.694   3.317  10.571  0.3782  0.7888  1.0176
13695TIP3   OH262499   2.416   5.988   0.140  0.0086  0.4990 -0.2044
13695TIP3    H162500   2.486   5.950   0.086  1.6953  0.1262  2.1052
13695TIP3    H262501   2.410   5.931   0.216 -1.7680  1.4163  0.4073
13696TIP3   OH262502   0.232   0.471  13.120  0.1906 -0.0375  0.4888
13696TIP3    H162503   0.220   0.415  13.197  1.0727 -0.5840  0.2505
13696TIP3    H262504   0.313   0.518  13.137  0.2274  0.0668  0.0353
13697TIP3   OH262505   4.483   2.878  14.001 -0.3752 -0.6475  0.0327
13697TIP3    H162506   4.534   2.883  14.082  2.3577  1.0236 -1.6261
13697TIP3    H262507   4.438   2.962  13.996  0.2914 -0.3146 -0.6235
13698TIP3   OH262508   2.321   4.243  14.387 -0.2659 -0.1762 -0.4373
13698TIP3    H162509   2.388   4.223  14.322 -1.0444 -1.5401 -0.8631
13698TIP3    H262510   2.354   4.206  14.469  0.0957  0.3511 -0.3367
13699TIP3   OH262511   1.292   0.442  12.885 -0.4971 -0.3862 -0.3590
13699TIP3    H162512   1.315   0.488  12.805  0.7022  0.4252  0.4247
13699TIP3    H262513   1.335   0.357  12.878  0.6786  0.1646 -0.0307
13700TIP3   OH262514   3.568   6.146  12.643  0.0180 -0.1342  0.2543
13700TIP3    H162515   3.485   6.128  12.687 -0.6846  1.2954 -0.4511
13700TIP3    H262516   3.627   6.078  12.676 -0.7445  0.2528  2.6442
13701TIP3   OH262517   6.242   2.061  14.852 -0.0717 -0.3274  0.2164
13701TIP3    H162518   6.273   2.102  14.771 -3.0202 -1.7978 -1.8465
13701TIP3    H262519   6.242   1.967  14.834  1.3079 -0.9217  2.8207
13702TIP3   OH262520   5.587   4.065  12.940  0.0582  0.2928 -0.5820
13702TIP3    H162521   5.588   3.970  12.929 -0.8343  0.0744  0.9022
13702TIP3    H262522   5.533   4.097  12.867 -0.3797 -0.4316 -0.5851
13703TIP3   OH262523   2.390   6.029   2.758 -0.0015 -0.5746 -0.0622
13703TIP3    H162524   2.467   6.029   2.701 -0.6427 -0.0045 -0.9474
13703TIP3    H262525   2.419   6.079   2.835  0.3176  0.2445 -0.6890
13704TIP3   OH262526   5.591   5.776   3.378  0.3221  0.1222 -0.2783
13704TIP3    H162527   5.590   5.766   3.474  0.8710 -1.3830 -0.3994
13704TIP3    H262528   5.597   5.870   3.364 -1.9843  0.5750  1.1504
13705TIP3   OH262529   5.773   5.100  14.064 -0.8305 -0.0374  0.5745
13705TIP3    H162530   5.856   5.107  14.111 -1.5247  0.3424  1.8051
13705TIP3    H262531   5.790   5.037  13.994  1.1362  1.7740 -0.7093
13706TIP3   OH262532   4.758   5.066   5.679  0.0561 -0.1217  0.1613
13706TIP3    H162533   4.761   5.153   5.719 -1.7197 -1.0510  2.5786
13706TIP3    H262534   4.804   5.010   5.742  0.3034 -1.1060 -0.8705
13707TIP3   OH262535   2.347   3.219   0.817 -0.0985  0.3232  0.0309
13707TIP3    H162536   2.348   3.177   0.904 -2.0789  0.9872  0.4345
13707TIP3    H262537   2.427   3.272   0.815 -0.1606  0.5357  1.5909
13708TIP3   OH262538   1.950   3.135  15.204  0.1012  0.1208  0.0846
13708TIP3    H162539   2.017   3.115  15.139  0.1625  0.9236 -0.1111
13708TIP3    H262540   1.944   3.056  15.258 -0.2479 -0.7149 -1.1323
13709TIP3   OH262541   0.539   3.466  16.306  0.3886 -0.0070  0.1169
13709TIP3    H162542   0.449   3.475  16.274  0.8128 -1.6720 -1.7105
13709TIP3    H262543   0.589   3.532  16.258  0.2581  0.5365  0.7161
13710TIP3   OH262544   2.757   3.315  12.936  0.0508  0.5651  0.2096
13710TIP3    H162545   2.743   3.369  13.014  3.1322 -0.1006  1.3653
13710TIP3    H262546   2.755   3.377  12.863 -1.9101  1.3502  0.8774
13711TIP3   OH262547   2.610   4.258   0.261 -0.2501 -0.1998  0.5906
13711TIP3    H162548   2.642   4.215   0.182 -0.5212  1.1425 -0.2854
13711TIP3    H262549   2.522   4.224   0.273 -0.8924  0.9116 -0.7489
13712TIP3   OH262550   2.339   0.873  12.772  0.4309  0.2975 -0.2813
13712TIP3    H162551   2.384   0.941  12.823 -1.2325  0.4908  1.0085
13712TIP3    H262552   2.343   0.795  12.827 -1.4746  0.5363  0.2872
13713TIP3   OH262553   2.100   5.824  13.025  0.4937  0.2784  0.1371
13713TIP3    H162554   2.071   5.750  12.972 -1.5394 -0.0141  1.5514
13713TIP3    H262555   2.114   5.787  13.112  0.4324  1.3617  0.6223
13714TIP3   OH262556   4.299   2.474  13.766 -0.3562  0.1377 -0.6438
13714TIP3    H162557   4.382   2.516  13.791  0.2815 -0.6323 -1.4049
13714TIP3    H262558   4.247   2.476  13.846  0.4857  0.4412 -0.0842
13715TIP3   OH262559   5.187   2.648  16.626 -0.4079  0.2848  0.8518
13715TIP3    H162560   5.177   2.618  16.535  0.6453 -1.9429  1.4194
13715TIP3    H262561   5.117   2.713  16.637 -0.5101  0.6885 -1.5566
13716TIP3   OH262562   0.381   1.116   0.032  0.1947 -0.1460 -0.2331
13716TIP3    H162563   0.432   1.055   0.085 -0.5790  0.2495  1.0274
13716TIP3    H262564   0.290   1.092   0.050 -0.1003  0.8513 -0.3337
13717TIP3   OH262565   5.248   6.255  14.359  0.2028 -0.8526 -0.3201
13717TIP3    H162566   5.261   6.177  14.304 -1.7511 -2.1253  0.9043
13717TIP3    H262567   5.198   6.223  14.434  0.0304  1.4653  0.6247
13718TIP3   OH262568   2.950   3.692   1.047 -0.0695  0.1733 -0.2164
13718TIP3    H162569   2.912   3.720   1.130  0.6601  1.8055 -0.3921
13718TIP3    H262570   2.877   3.697   0.984 -0.7227 -1.4470  0.3515
13719TIP3   OH262571   6.519   3.205  13.555 -0.3556  0.0809  0.2122
13719TIP3    H162572   6.445   3.265  13.557 -1.2991 -0.9156 -1.5958
13719TIP3    H262573   6.592   3.258  13.524 -1.2270  0.3083 -1.5971
13720TIP3   OH262574   2.688   3.855   1.624 -0.0679 -0.4716 -0.2616
13720TIP3    H162575   2.600   3.856   1.661  0.0234 -0.0082 -0.0548
13720TIP3    H262576   2.706   3.946   1.600  0.0955 -0.6708 -0.9278
13721TIP3   OH262577   4.417   0.924   3.973 -0.1082  0.0117  0.1043
13721TIP3    H162578   4.347   0.914   4.038  0.3029 -1.6811  0.3454
13721TIP3    H262579   4.387   0.876   3.897  1.2455 -1.8088  0.6399
13722TIP3   OH262580   1.551   4.576   3.028  0.2264 -0.4132  0.0254
13722TIP3    H162581   1.554   4.507   2.962  2.7426 -1.1431  0.8115
13722TIP3    H262582   1.638   4.615   3.027  0.4760 -0.6743  3.1029
13723TIP3   OH262583   4.917   2.378   5.669  0.0757 -0.3814 -0.3034
13723TIP3    H162584   4.843   2.378   5.730  1.5171  0.7182  1.5537
13723TIP3    H262585   4.940   2.286   5.660 -0.4674 -0.6035  0.4436
13724TIP3   OH262586   3.127   4.390  13.737 -0.5557  0.3739  0.0377
13724TIP3    H162587   3.088   4.418  13.820  1.0012  2.1634  0.2170
13724TIP3    H262588   3.158   4.301  13.754  1.0176  1.2097  1.8941
13725TIP3   OH262589   2.008   5.204  13.251  0.4700 -0.3308 -0.0082
13725TIP3    H162590   2.020   5.221  13.157  0.3269  0.5813  0.1318
13725TIP3    H262591   1.918   5.232  13.269  0.9279  0.7823  0.6641
13726TIP3   OH262592   1.674   2.951  12.793  0.2695 -0.2315  0.1722
13726TIP3    H162593   1.601   2.916  12.845  0.4839 -0.6374  0.2045
13726TIP3    H262594   1.726   3.001  12.856 -0.1918  0.3901  0.0667
13727TIP3   OH262595   0.733   4.575  14.901 -0.1348  0.1409 -0.1310
13727TIP3    H162596   0.766   4.613  14.982  1.4614  0.3635 -0.8490
13727TIP3    H262597   0.751   4.481  14.909 -0.1974  0.1276 -0.1406
13728TIP3   OH262598   1.142   5.320   2.025  0.1095 -0.2561 -0.0733
13728TIP3    H162599   1.234   5.337   2.005 -0.2970  0.6868 -1.2693
13728TIP3    H262600   1.144   5.243   2.082  1.6191 -0.4060 -0.2795
13729TIP3   OH262601   2.290   1.358  17.089  0.2572 -0.0399  0.5796
13729TIP3    H162602   2.335   1.279  17.120  1.9223  0.1596 -1.1493
13729TIP3    H262603   2.201   1.328  17.070 -0.0558 -0.7488  2.8130
13730TIP3   OH262604   2.976   5.199  11.430  0.0254 -0.2545 -0.0527
13730TIP3    H162605   3.004   5.158  11.348 -0.8572 -0.4676 -0.2569
13730TIP3    H262606   2.887   5.168  11.443 -0.0833  0.3245  0.6382
13731TIP3   OH262607   5.436   6.300   0.484  0.1371  0.1359 -0.1130
13731TIP3    H162608   5.366   6.360   0.458  0.8351  0.3378 -1.5812
13731TIP3    H262609   5.467   6.262   0.402  0.7994 -1.0349  0.6497
13732TIP3   OH262610   2.883   2.490  12.712  0.3403 -0.1855 -0.4689
13732TIP3    H162611   2.950   2.467  12.649  2.1916  3.1135  0.0568
13732TIP3    H262612   2.909   2.446  12.793  1.3001  0.1967 -0.5612
13733TIP3   OH262613   2.720   6.646   2.542  0.0551 -0.0907  0.5238
13733TIP3    H162614   2.711   6.556   2.509  0.0136  0.5704 -1.3826
13733TIP3    H262615   2.803   6.645   2.590  0.9303 -0.7916 -0.9024
13734TIP3   OH262616   5.797   3.372  16.148 -0.1901 -0.8841  0.4647
13734TIP3    H162617   5.847   3.340  16.222 -0.0312 -1.6768  0.0315
13734TIP3    H262618   5.824   3.316  16.075  0.8753  0.8947 -0.5889
13735TIP3   OH262619   0.311   4.498  14.716 -0.1562 -0.2236 -0.4368
13735TIP3    H162620   0.261   4.580  14.714  1.4448  0.7956 -0.7364
13735TIP3    H262621   0.301   4.461  14.629  0.1070  0.2909 -0.6882
13736TIP3   OH262622   2.267   5.856  15.443 -0.1965  0.1959 -0.8561
13736TIP3    H162623   2.208   5.912  15.495  1.4589 -0.1850  1.6498
13736TIP3    H262624   2.256   5.769  15.481  2.0359  0.1549 -0.1883
13737TIP3   OH262625   2.892   6.319   3.713 -0.4115  0.2509  0.2911
13737TIP3    H162626   2.806   6.315   3.755 -0.1522  0.2173  0.8253
13737TIP3    H262627   2.938   6.389   3.759 -0.5904  1.1210 -0.8351
13738TIP3   OH262628   3.456   3.509  12.416  0.3326 -0.2455 -0.2486
13738TIP3    H162629   3.418   3.529  12.502  1.9794  0.9652  0.2526
13738TIP3    H262630   3.482   3.595  12.382 -1.6453 -0.4956 -2.6768
13739TIP3   OH262631   2.043   6.728  16.477 -0.0847 -0.0009  0.4800
13739TIP3    H162632   2.091   6.649  16.453 -0.5965 -0.7140  1.6865
13739TIP3    H262633   1.951   6.705  16.467 -0.3485 -0.4710  3.3031
13740TIP3   OH262634   5.866   1.870  11.182 -0.2230  0.1525  0.0145
13740TIP3    H162635   5.893   1.886  11.091 -1.4252 -0.0960 -0.4033
13740TIP3    H262636   5.889   1.951  11.227 -0.4877  0.6565 -0.7262
13741TIP3   OH262637   1.327   5.388   4.236  0.0014 -1.0408 -0.1526
13741TIP3    H162638   1.234   5.368   4.228 -0.2089 -0.0363 -0.3881
13741TIP3    H262639   1.340   5.402   4.330 -0.3526 -0.0134 -0.2451
13742TIP3   OH262640   2.487   3.561   5.186 -0.4253  0.1900 -0.6772
13742TIP3    H162641   2.557   3.617   5.153 -0.9273  1.6364  0.5397
13742TIP3    H262642   2.432   3.620   5.238 -1.1097 -1.4113  0.5184
13743TIP3   OH262643   5.183   1.486   4.004  0.2380  0.1533  0.2733
13743TIP3    H162644   5.118   1.435   3.956  0.9920 -1.4489  0.8720
13743TIP3    H262645   5.156   1.479   4.095  2.9129 -3.4111  1.0197
13744TIP3   OH262646   1.781   4.589   2.699  0.4401 -0.4228 -0.9651
13744TIP3    H162647   1.867   4.581   2.659  0.9035  2.2695 -0.7276
13744TIP3    H262648   1.723   4.539   2.642  1.8477 -0.7560 -2.1727
13745TIP3   OH262649   0.220   1.394   1.258  0.2400 -0.1760 -0.3950
13745TIP3    H162650   0.228   1.471   1.202 -1.1235  0.4043  0.1850
13745TIP3    H262651   0.285   1.409   1.327  0.3031  0.2271 -0.5369
13746TIP3   OH262652   1.526   5.532  11.400  1.1883  0.5774 -0.3558
13746TIP3    H162653   1.543   5.620  11.366  0.8652  0.9685  0.4791
13746TIP3    H262654   1.611   5.490  11.402  1.5167  1.2596  0.3148
13747TIP3   OH262655   6.008   3.476   0.551 -0.3309  0.5305 -0.3775
13747TIP3    H162656   5.991   3.528   0.630 -0.1221 -0.3076  0.2310
13747TIP3    H262657   5.935   3.498   0.493 -1.9471 -0.7793  1.0603
13748TIP3   OH262658   4.342   0.817  12.007 -0.3157 -0.0258  0.0275
13748TIP3    H162659   4.307   0.775  12.086  1.9071  0.8493  1.5851
13748TIP3    H262660   4.266   0.826  11.949 -1.7794 -1.8549  1.5275
13749TIP3   OH262661   6.424   6.388  12.681  0.5132 -0.2609 -0.3264
13749TIP3    H162662   6.478   6.368  12.605 -0.0214 -1.9432 -0.3111
13749TIP3    H262663   6.452   6.325  12.747  0.9478  1.1526  0.8828
13750TIP3   OH262664   1.550   0.427  12.480  0.7860  0.9480 -0.2105
13750TIP3    H162665   1.545   0.414  12.385 -0.3089 -0.4724  0.0085
13750TIP3    H262666   1.509   0.513  12.494 -1.2163  0.1678 -0.8503
13751TIP3   OH262667   2.040   3.951  10.640 -0.2307 -0.0629  0.2562
13751TIP3    H162668   1.982   3.912  10.705 -0.5512  0.5856  0.3690
13751TIP3    H262669   1.985   4.014  10.593  0.0414 -0.3959 -0.5252
13752TIP3   OH262670   0.882   5.513  16.618 -0.1122  0.2440  0.3571
13752TIP3    H162671   0.880   5.608  16.630  0.7522  0.1271  1.6231
13752TIP3    H262672   0.794   5.484  16.645  0.1555  0.5386  1.6471
13753TIP3   OH262673   1.346   6.336   0.361 -0.2885  0.5413 -0.1248
13753TIP3    H162674   1.284   6.319   0.431 -0.1587 -0.3158 -0.2062
13753TIP3    H262675   1.293   6.370   0.289 -0.9890 -1.8103 -0.8228
13754TIP3   OH262676   2.383   3.231  14.693 -0.1946 -0.2342 -0.1599
13754TIP3    H162677   2.305   3.176  14.690 -0.9794  0.8017  0.5793
13754TIP3    H262678   2.424   3.221  14.607 -2.0481  0.4961 -1.1644
13755TIP3   OH262679   2.340   5.833   1.032  0.6533  0.0305 -0.5453
13755TIP3    H162680   2.426   5.813   0.995  1.1315  0.8250  0.1145
13755TIP3    H262681   2.356   5.905   1.093 -0.5121  0.3046 -0.5458
13756TIP3   OH262682   3.241   5.139  12.957 -0.3078  0.7314  0.0800
13756TIP3    H162683   3.330   5.106  12.959  0.3394  2.2719  3.3212
13756TIP3    H262684   3.188   5.069  12.994 -0.1264  0.5738  0.0384
13757TIP3   OH262685   3.479   2.262  14.001  0.9337  0.0449  0.1791
13757TIP3    H162686   3.416   2.274  13.930 -0.6252  0.2213  1.5129
13757TIP3    H262687   3.528   2.345  14.004  1.0679  0.0041 -0.7239
13758TIP3   OH262688   3.772   3.370   1.505  0.6594  0.0429  0.0879
13758TIP3    H162689   3.808   3.447   1.462  0.9221 -0.4963 -0.6671
13758TIP3    H262690   3.733   3.404   1.586  1.2871  0.8806  0.0505
13759TIP3   OH262691   2.203   6.667   3.402  0.1236  0.2460 -0.3637
13759TIP3    H162692   2.119   6.679   3.356  0.2351  0.3539 -0.5382
13759TIP3    H262693   2.207   6.740   3.463 -0.2728 -0.1901  0.1960
13760TIP3   OH262694   2.715   2.496   1.124  0.5625  0.4472 -0.5572
13760TIP3    H162695   2.809   2.491   1.103  0.5562 -0.5500 -0.4132
13760TIP3    H262696   2.697   2.416   1.173  0.3885  2.2526  2.6167
13761TIP3   OH262697   5.777   6.542   6.351 -0.4303 -0.0356 -0.6061
13761TIP3    H162698   5.688   6.562   6.381 -0.2044 -1.3731  1.0921
13761TIP3    H262699   5.834   6.592   6.409 -0.0519  0.4336 -1.3745
13762TIP3   OH262700   1.845   3.916  15.750 -0.5294 -0.3986  0.2450
13762TIP3    H162701   1.933   3.941  15.724 -0.4096 -2.4761 -1.5578
13762TIP3    H262702   1.788   3.951  15.681 -0.6817 -2.1920 -0.5892
13763TIP3   OH262703   1.594   5.660  13.264 -0.3259 -0.4966 -0.0874
13763TIP3    H162704   1.546   5.592  13.216  0.0047  0.1404 -1.3824
13763TIP3    H262705   1.614   5.620  13.348 -2.2911 -1.1237  0.1488
13764TIP3   OH262706   6.591   1.713   4.959  0.5454 -1.0930  0.0342
13764TIP3    H162707   6.610   1.799   4.996 -0.0103 -1.3891  1.0556
13764TIP3    H262708   6.495   1.709   4.957  0.5521 -1.0952 -1.4645
13765TIP3   OH262709   3.363   5.010  11.990 -0.3554  0.3754 -0.2262
13765TIP3    H162710   3.420   5.076  11.951  0.0668 -0.7192 -1.5656
13765TIP3    H262711   3.276   5.030  11.956 -0.2372  0.3056 -0.5819
13766TIP3   OH262712   0.063   1.046  11.780 -0.2982 -0.1708  0.4251
13766TIP3    H162713   0.019   1.042  11.865 -1.3827  1.3167 -0.0262
13766TIP3    H262714   0.065   1.139  11.758 -0.7338 -0.5743 -1.5144
13767TIP3   OH262715   5.757   3.183  14.493  0.0244  0.2294  0.2227
13767TIP3    H162716   5.744   3.214  14.583 -0.7980  1.7050 -0.3796
13767TIP3    H262717   5.831   3.233  14.460  0.0405  0.0131 -0.0775
13768TIP3   OH262718   5.040   5.706  11.279 -0.2566  0.7307  0.2920
13768TIP3    H162719   5.099   5.741  11.212  0.6461 -1.0207  0.1203
13768TIP3    H262720   5.079   5.734  11.362  0.2699  0.4231  0.1521
13769TIP3   OH262721   2.033   3.249  16.946 -0.4327 -0.5319 -0.0232
13769TIP3    H162722   1.943   3.271  16.970 -0.3725 -1.5915  1.2846
13769TIP3    H262723   2.038   3.154  16.954  1.0314 -0.4168  0.7607
13770TIP3   OH262724   4.139   3.006  10.870 -0.2001 -0.1801  0.1898
13770TIP3    H162725   4.167   3.041  10.785  1.3014 -0.8994  0.3504
13770TIP3    H262726   4.109   3.083  10.918  0.9097  0.5715 -0.2638
13771TIP3   OH262727   6.276   4.534   5.842 -0.4269 -0.6663 -0.0903
13771TIP3    H162728   6.190   4.526   5.882 -1.1317  1.3097 -1.0605
13771TIP3    H262729   6.301   4.444   5.821 -2.0936 -1.3167  0.5322
13772TIP3   OH262730   0.529   3.440   2.834 -0.6403 -0.2156 -0.4968
13772TIP3    H162731   0.591   3.377   2.799  0.3470  0.4207  0.0529
13772TIP3    H262732   0.469   3.388   2.888 -1.2614 -0.9822 -1.8943
13773TIP3   OH262733   6.519   6.441   3.593  0.6304 -0.0186 -0.5772
13773TIP3    H162734   6.445   6.381   3.594  1.1184 -0.6333 -0.8656
13773TIP3    H262735   6.594   6.387   3.618  0.6711  1.0591  1.8948
13774TIP3   OH262736   4.370   0.875   1.963 -0.4864 -0.3871 -0.1713
13774TIP3    H162737   4.346   0.945   1.902 -2.0202 -0.3049  0.5000
13774TIP3    H262738   4.415   0.919   2.034  0.0496 -0.3073 -0.5542
13775TIP3   OH262739   3.675   1.480  14.349  0.8946 -0.1360  0.1279
13775TIP3    H162740   3.615   1.541  14.392  1.3813  0.2476  0.2776
13775TIP3    H262741   3.631   1.459  14.266  0.0147 -0.7851  0.7366
13776TIP3   OH262742   5.726   2.222  12.278  0.1867 -0.1416  0.8151
13776TIP3    H162743   5.720   2.311  12.245 -0.6390 -0.3641  0.3531
13776TIP3    H262744   5.803   2.223  12.336  0.4096  0.7623  0.5110
13777TIP3   OH262745   6.251   6.733   5.758 -0.2864 -0.0329 -0.4787
13777TIP3    H162746   6.233   6.762   5.669 -0.7860 -1.4932 -0.8838
13777TIP3    H262747   6.172   6.755   5.807  0.0871  1.0014 -0.3188
13778TIP3   OH262748   5.386   1.570   4.276  0.2925 -0.9487 -0.5067
13778TIP3    H162749   5.297   1.607   4.274 -0.0925 -1.4987  2.4816
13778TIP3    H262750   5.375   1.481   4.240 -0.8969 -1.8373  1.8475
13779TIP3   OH262751   2.145   4.480  13.503  0.0130 -0.0063 -0.8652
13779TIP3    H162752   2.159   4.395  13.543 -0.1888  0.0051 -0.7667
13779TIP3    H262753   2.049   4.490  13.500 -0.0030 -0.2841 -1.9396
13780TIP3   OH262754   5.744   6.135   4.469  0.0263  0.0092  0.8227
13780TIP3    H162755   5.698   6.219   4.463 -0.3101 -0.1186  1.4908
13780TIP3    H262756   5.753   6.106   4.378 -0.5176  0.4139  0.6328
13781TIP3   OH262757   4.061   1.082   6.171 -0.2212 -0.5036 -0.0268
13781TIP3    H162758   4.011   1.004   6.196  1.4273 -1.7724 -0.4501
13781TIP3    H262759   4.149   1.066   6.206 -0.4527  2.4938  2.3332
13782TIP3   OH262760   5.944   0.978  14.572  0.1150  0.2454 -0.5124
13782TIP3    H162761   5.973   0.972  14.481 -0.7714 -1.7655 -0.7330
13782TIP3    H262762   6.021   0.955  14.624  0.7383  1.8151 -0.7030
13783TIP3   OH262763   0.186   2.944  15.632 -0.0975  0.3799  0.2768
13783TIP3    H162764   0.171   2.947  15.538  1.1072 -0.1822  0.0459
13783TIP3    H262765   0.196   3.035  15.658  0.3818  0.4997 -0.2997
13784TIP3   OH262766   4.148   0.039   0.391 -0.2005 -0.7373 -0.0424
13784TIP3    H162767   4.076   0.071   0.445  0.3535  2.6049 -0.9905
13784TIP3    H262768   4.225   0.088   0.423  0.4586  0.0875 -2.6398
13785TIP3   OH262769   6.061   0.965   0.686 -0.0102  0.2788  0.6558
13785TIP3    H162770   6.017   0.888   0.721  1.4521 -0.3895  1.0897
13785TIP3    H262771   6.124   0.990   0.754 -0.3608  1.7942  0.4738
13786TIP3   OH262772   4.773   6.734  15.679  0.0199  0.0718  0.0731
13786TIP3    H162773   4.795   6.737  15.772 -0.8459 -0.8466  0.3330
13786TIP3    H262774   4.856   6.716  15.635  0.6975  1.8797  0.5132
13787TIP3   OH262775   0.705   5.307   5.183 -0.7151  0.0551  0.0552
13787TIP3    H162776   0.616   5.333   5.206 -1.3327 -1.0581 -0.9570
13787TIP3    H262777   0.697   5.215   5.157  0.5681  0.1802 -0.8773
13788TIP3   OH262778   2.018   6.559  11.712 -0.3664 -0.4841  0.1276
13788TIP3    H162779   1.974   6.475  11.706 -0.6029 -0.3406 -0.1357
13788TIP3    H262780   2.027   6.588  11.622 -2.8300  1.0949  0.3037
13789TIP3   OH262781   4.353   1.566  16.161 -0.1501 -0.0411  0.3281
13789TIP3    H162782   4.433   1.607  16.130 -0.0013 -1.4718 -1.3446
13789TIP3    H262783   4.285   1.632  16.148  0.1402 -0.0910 -1.9583
13790TIP3   OH262784   2.038   3.705  16.895 -0.3849  0.3103 -0.0944
13790TIP3    H162785   1.991   3.658  16.826 -0.1677  1.2687 -0.9215
13790TIP3    H262786   2.116   3.652  16.912  0.7315  1.1645 -2.2060
13791TIP3   OH262787   6.195   0.035   2.651 -0.1491  1.3494  0.0139
13791TIP3    H162788   6.113   0.006   2.690 -0.4973  2.9057  0.5273
13791TIP3    H262789   6.215  -0.031   2.584  0.5785 -1.5176  2.8452
13792TIP3   OH262790   5.081   5.080  14.818 -0.1910 -0.1596  0.8467
13792TIP3    H162791   5.153   5.092  14.879 -1.1133 -0.2885  1.9824
13792TIP3    H262792   5.124   5.053  14.736  0.9961 -1.2107  1.7671
13793TIP3   OH262793   0.891   1.305  15.725  0.4772 -0.2356  0.6137
13793TIP3    H162794   0.874   1.394  15.756 -0.1427  0.1227 -0.6742
13793TIP3    H262795   0.809   1.278  15.685  1.4062 -0.4176 -1.2542
13794TIP3   OH262796   5.039   6.624  15.641 -0.7246 -0.1515 -0.5126
13794TIP3    H162797   5.069   6.608  15.552  1.4220 -2.1365  0.4631
13794TIP3    H262798   5.106   6.682  15.678 -0.4140 -1.0530  0.3909
13795TIP3   OH262799   4.197   3.356   5.479 -0.4775  0.8836  0.2138
13795TIP3    H162800   4.272   3.371   5.537 -1.7711  0.8384  1.9712
13795TIP3    H262801   4.169   3.266   5.500 -0.5141  0.5837 -1.0600
13796TIP3   OH262802   6.267   4.030  10.667 -0.0671 -0.6367  0.0046
13796TIP3    H162803   6.284   3.941  10.637 -0.0883 -0.4100 -0.7018
13796TIP3    H262804   6.314   4.037  10.750  2.9942 -0.1727 -1.6189
13797TIP3   OH262805   3.268   1.051   0.429 -0.5513 -0.4001  0.0598
13797TIP3    H162806   3.265   0.956   0.441  0.2801 -0.6875 -1.6643
13797TIP3    H262807   3.360   1.070   0.407 -0.6352  0.8471  0.7027
13798TIP3   OH262808   3.023   3.328   3.741  0.4521  0.2776 -0.1124
13798TIP3    H162809   2.991   3.341   3.651  0.5577  0.8846 -0.0645
13798TIP3    H262810   2.979   3.248   3.770 -1.9578  1.6772  0.3562
13799TIP3   OH262811   1.012   1.491  12.406  0.0535  0.6705  0.0668
13799TIP3    H162812   1.010   1.540  12.324 -0.4073 -0.3023 -0.5354
13799TIP3    H262813   0.921   1.492  12.437 -1.0755 -3.4668 -2.3063
13800TIP3   OH262814   0.199   4.282  12.211 -0.4255  0.2193  0.3856
13800TIP3    H162815   0.255   4.204  12.216  0.9500  1.0820 -0.6583
13800TIP3    H262816   0.184   4.307  12.302 -0.4716 -0.9730  0.7193
13801TIP3   OH262817   5.077   6.011  11.189  0.6119 -0.3024  0.2100
13801TIP3    H162818   4.989   5.996  11.154  1.2291 -0.7413 -1.2072
13801TIP3    H262819   5.133   5.949  11.143  1.3711 -1.5650  2.6339
13802TIP3   OH262820   4.926   0.499   2.197 -0.8025  0.1796 -0.0441
13802TIP3    H162821   4.880   0.443   2.135 -0.9678 -0.7383  0.8850
13802TIP3    H262822   5.011   0.516   2.156  0.4509 -3.1908  0.8649
13803TIP3   OH262823   4.460   4.005  13.538 -0.6289  0.5955 -0.7097
13803TIP3    H162824   4.410   4.057  13.602 -0.7297  1.6140 -1.5795
13803TIP3    H262825   4.442   4.048  13.454  0.8385  0.3057 -1.1952
13804TIP3   OH262826   2.884   5.238   0.122  0.5785  0.2667  0.3628
13804TIP3    H162827   2.813   5.198   0.173  1.0798 -0.1406  0.7429
13804TIP3    H262828   2.852   5.326   0.102 -0.4760 -0.2512 -0.3408
13805TIP3   OH262829   4.703   4.232   4.169  0.5834 -0.1248  0.5084
13805TIP3    H162830   4.627   4.176   4.187 -0.0066  0.5097  0.0500
13805TIP3    H262831   4.736   4.202   4.085  0.2295  0.2387  0.2325
13806TIP3   OH262832   4.421   2.160   4.185 -0.0697  0.4054 -0.3201
13806TIP3    H162833   4.495   2.214   4.212  1.9519 -1.9782 -0.6935
13806TIP3    H262834   4.364   2.156   4.262  0.7451  1.4164  0.3552
13807TIP3   OH262835   0.864   2.418  15.476  0.1533  0.5386 -0.0106
13807TIP3    H162836   0.928   2.355  15.510 -0.5597 -0.9431 -1.2520
13807TIP3    H262837   0.877   2.416  15.381 -1.0243  1.0062 -0.1997
13808TIP3   OH262838   2.271   1.691   3.533  0.3271 -0.5497  0.4715
13808TIP3    H162839   2.334   1.644   3.479  1.4116  0.5339  0.7279
13808TIP3    H262840   2.278   1.650   3.619  2.3358  0.9038  1.0863
13809TIP3   OH262841   5.310   0.426  11.593  0.5609 -0.0589  0.0607
13809TIP3    H162842   5.256   0.499  11.564  1.3791  0.5038 -0.1056
13809TIP3    H262843   5.395   0.466  11.614  1.0147 -0.9522 -0.0003
13810TIP3   OH262844   0.854   1.560  15.814 -0.3002  0.9549  0.8168
13810TIP3    H162845   0.875   1.615  15.890 -1.4787  2.4918  0.0815
13810TIP3    H262846   0.808   1.618  15.754 -1.9347 -0.9199  0.1256
13811TIP3   OH262847   6.499   3.639   4.748 -0.3411 -0.3996  0.0007
13811TIP3    H162848   6.564   3.698   4.787  1.9099 -1.6807 -1.6026
13811TIP3    H262849   6.435   3.697   4.708  0.3841  0.9357  0.7126
13812TIP3   OH262850   2.728   0.103   0.299 -0.3071  0.1729 -0.2394
13812TIP3    H162851   2.807   0.155   0.285  0.1587 -0.5537 -0.3533
13812TIP3    H262852   2.719   0.097   0.394  2.7592 -4.0621  0.0639
13813TIP3   OH262853   0.064   3.466  12.252 -0.6967 -1.0200 -0.3906
13813TIP3    H162854   0.095   3.427  12.170  1.0304 -2.6370  0.9512
13813TIP3    H262855   0.117   3.424  12.320  0.5296  2.8160  1.3008
13814TIP3   OH262856   5.034   5.404  16.611 -0.7513 -0.2623  0.1607
13814TIP3    H162857   5.053   5.395  16.704 -1.2764 -0.2326  0.2762
13814TIP3    H262858   5.019   5.314  16.580  3.3877 -0.7968 -0.8132
13815TIP3   OH262859   3.821   5.148   5.456  0.1742 -0.1110  0.0225
13815TIP3    H162860   3.838   5.156   5.362 -0.6748 -1.9867 -0.3484
13815TIP3    H262861   3.905   5.168   5.498  2.2820 -4.5070 -1.4735
13816TIP3   OH262862   4.972   2.990  13.091  0.5629 -0.7047  0.2970
13816TIP3    H162863   4.951   2.930  13.162 -0.0656  1.1104  1.7331
13816TIP3    H262864   5.021   3.061  13.133 -1.1386  1.2016 -0.7430
13817TIP3   OH262865   0.940   3.416  12.524 -0.0292  0.4587  0.2158
13817TIP3    H162866   1.022   3.427  12.475 -0.0251 -0.0923  0.0909
13817TIP3    H262867   0.920   3.504  12.557 -1.0011  1.2865 -2.3225
13818TIP3   OH262868   2.022   3.732   2.532  0.0295  0.0114  0.1150
13818TIP3    H162869   2.096   3.746   2.473 -0.2200 -0.8238 -0.4040
13818TIP3    H262870   1.972   3.662   2.492 -1.9782  1.6719 -0.4226
13819TIP3   OH262871   1.788   3.502   1.745  1.0101 -0.2248  0.2854
13819TIP3    H162872   1.706   3.475   1.788  0.7060  1.6243  0.9370
13819TIP3    H262873   1.769   3.495   1.651 -0.3962  1.4673  0.3975
13820TIP3   OH262874   2.228   3.723  14.791  0.1268 -0.2340 -0.1782
13820TIP3    H162875   2.259   3.642  14.751 -2.2705 -0.9331 -0.7622
13820TIP3    H262876   2.134   3.724  14.774  0.3768  4.3086 -3.2254
13821TIP3   OH262877   6.335   2.607   3.340 -0.3072 -0.1451 -0.0404
13821TIP3    H162878   6.262   2.546   3.346  0.8923 -1.6328 -0.2094
13821TIP3    H262879   6.329   2.642   3.251 -1.2941  0.4188  0.2205
13822TIP3   OH262880   4.535   1.731  13.831 -0.0408 -0.0816  0.4124
13822TIP3    H162881   4.505   1.731  13.740 -3.2871  1.3842  1.3479
13822TIP3    H262882   4.556   1.640  13.849 -0.8086 -0.6537 -1.3744
13823TIP3   OH262883   2.391   1.808   3.184 -0.0395 -0.2040 -0.0471
13823TIP3    H162884   2.466   1.866   3.179  0.3498 -0.6348  0.6152
13823TIP3    H262885   2.370   1.804   3.278  1.0838 -2.5273  0.1742
13824TIP3   OH262886   5.088   0.127  12.049  0.5745  0.0349 -0.5256
13824TIP3    H162887   5.126   0.049  12.089 -1.1057 -0.7452 -0.3324
13824TIP3    H262888   5.111   0.199  12.108  0.8606 -0.5634  0.1006
13825TIP3   OH262889   0.909   1.454   4.789 -0.4361  0.0639  0.0966
13825TIP3    H162890   0.885   1.448   4.882 -0.1155 -0.7286  0.1318
13825TIP3    H262891   0.825   1.456   4.743 -0.6336 -1.8485  0.2760
13826TIP3   OH262892   3.687   0.154  16.196 -0.0540 -0.0750 -0.4611
13826TIP3    H162893   3.607   0.103  16.183 -0.8883  1.0019  0.3225
13826TIP3    H262894   3.661   0.226  16.253  1.7477 -0.3780  0.8140
13827TIP3   OH262895   5.968   0.642   1.567 -0.3676 -0.2908 -0.9247
13827TIP3    H162896   5.878   0.659   1.540 -0.6200 -0.8169 -0.4417
13827TIP3    H262897   5.976   0.546   1.565  0.2267 -0.2414 -1.1044
13828TIP3   OH262898   6.217   5.455  13.715  0.2477  0.0032  0.0982
13828TIP3    H162899   6.303   5.485  13.684  0.2793  0.0547  0.2354
13828TIP3    H262900   6.155   5.497  13.656  0.3293 -0.2625 -0.1836
13829TIP3   OH262901   2.865   3.821  13.304  0.0613  0.1838  0.1066
13829TIP3    H162902   2.929   3.806  13.234  1.6111 -1.1304  1.7116
13829TIP3    H262903   2.857   3.916  13.310  0.3562  0.3291 -1.4112
13830TIP3   OH262904   5.786   3.611   4.959  0.2334 -0.0716  0.2791
13830TIP3    H162905   5.859   3.646   4.908 -0.1820 -1.9039 -1.7401
13830TIP3    H262906   5.824   3.589   5.044  1.9749 -0.6031 -0.5863
13831TIP3   OH262907   0.373   0.027  16.598 -0.2108  0.4620  0.1599
13831TIP3    H162908   0.416  -0.040  16.652 -3.1078 -0.9696  0.9158
13831TIP3    H262909   0.362   0.102  16.657  0.6326  0.5975  0.1535
13832TIP3   OH262910   3.323   3.716   3.672 -0.5812  0.2227 -0.0601
13832TIP3    H162911   3.229   3.704   3.659 -0.8136 -1.3267  2.5336
13832TIP3    H262912   3.330   3.776   3.746  0.4020 -1.1631  1.0219
13833TIP3   OH262913   4.395   6.340  10.868 -0.5879  0.2334  0.3012
13833TIP3    H162914   4.306   6.373  10.855 -0.4181  0.8366  0.6191
13833TIP3    H262915   4.436   6.404  10.926 -0.2839 -0.6181  1.0408
13834TIP3   OH262916   5.960   0.165   2.324 -0.1598  0.1135 -0.0650
13834TIP3    H162917   5.909   0.186   2.402  1.9491 -0.9663  1.7642
13834TIP3    H262918   5.926   0.080   2.295 -1.5149  0.9118 -0.8777
13835TIP3   OH262919   4.657   2.980   2.205  0.0211  0.3544  0.8179
13835TIP3    H162920   4.638   3.074   2.204 -0.6132  0.2851 -2.4464
13835TIP3    H262921   4.571   2.939   2.200  0.4030 -0.3337 -0.1960
13836TIP3   OH262922   0.540   1.792   3.068  0.0120  0.3052 -0.2967
13836TIP3    H162923   0.635   1.793   3.054 -0.0305  0.2363 -0.5929
13836TIP3    H262924   0.530   1.808   3.162  0.3423 -0.2586 -0.1548
13837TIP3   OH262925   2.676   5.517   1.702  0.0225  0.3128 -0.1460
13837TIP3    H162926   2.753   5.560   1.666  0.9105 -1.1249 -0.0790
13837TIP3    H262927   2.638   5.469   1.628 -2.3650  2.9746 -0.8286
13838TIP3   OH262928   6.270   4.084  12.861 -0.2674 -0.1118  0.5722
13838TIP3    H162929   6.242   4.042  12.942 -0.3098 -0.7471  0.2417
13838TIP3    H262930   6.289   4.011  12.802 -0.2752  0.3402 -0.0024
13839TIP3   OH262931   5.428   3.573  13.184  0.6222 -0.2428 -0.6658
13839TIP3    H162932   5.424   3.564  13.089 -4.6357  1.1029 -0.9065
13839TIP3    H262933   5.423   3.667  13.199 -0.0734 -0.4990  0.8654
13840TIP3   OH262934   4.808   4.040   4.369 -0.1844  0.1405 -0.4269
13840TIP3    H162935   4.781   4.110   4.309 -2.6653  0.9062  1.4274
13840TIP3    H262936   4.798   4.078   4.456  1.3528 -1.6075  0.5860
13841TIP3   OH262937   5.295   6.204   2.277 -0.2761  0.4483 -0.1430
13841TIP3    H162938   5.212   6.177   2.238  0.4552 -0.5396 -1.1006
13841TIP3    H262939   5.277   6.211   2.371 -1.5736  0.8396 -0.4023
13842TIP3   OH262940   5.884   3.468  11.181  0.1477 -0.0362  0.3128
13842TIP3    H162941   5.979   3.470  11.194  0.6044  0.8031 -2.5024
13842TIP3    H262942   5.864   3.550  11.137 -1.7431 -0.6361 -0.0484
13843TIP3   OH262943   5.284   4.207   3.462 -0.4039  0.0371  0.0926
13843TIP3    H162944   5.370   4.168   3.445 -0.0165  0.0745  1.7631
13843TIP3    H262945   5.265   4.259   3.384 -0.0962 -1.9879 -1.4084
13844TIP3   OH262946   5.134   4.407   3.345  0.0644  0.5284 -0.0761
13844TIP3    H162947   5.062   4.413   3.409 -0.5521  1.8067 -0.8667
13844TIP3    H262948   5.143   4.495   3.310 -0.1666 -0.2897 -2.3562
13845TIP3   OH262949   2.082   5.132   1.640  0.0951 -0.2747 -0.0558
13845TIP3    H162950   2.106   5.225   1.636 -0.3261  0.0881  3.1258
13845TIP3    H262951   2.165   5.085   1.636  0.2621  0.1062 -2.5847
13846TIP3   OH262952   2.270   4.998   2.784  0.1024  0.3321 -0.2451
13846TIP3    H162953   2.258   4.928   2.849 -0.8557 -0.8164 -1.5900
13846TIP3    H262954   2.350   4.973   2.737  1.6621  1.9588  1.3802
13847TIP3   OH262955   3.226   5.787   1.739 -0.4256 -0.3001  0.0909
13847TIP3    H162956   3.318   5.765   1.756 -0.7372 -0.5659  1.5398
13847TIP3    H262957   3.176   5.718   1.782 -1.3172 -0.0165 -0.4586
13848TIP3   OH262958   4.901   5.772  15.673 -0.1117  0.4038  0.8470
13848TIP3    H162959   4.918   5.684  15.708  0.3932  0.4438  0.7034
13848TIP3    H262960   4.805   5.780  15.675 -0.2062 -0.4565  0.1029
13849TIP3   OH262961   3.160   3.790  16.705  0.2855  0.1810 -0.4834
13849TIP3    H162962   3.067   3.768  16.712 -0.2667  1.7345 -2.2585
13849TIP3    H262963   3.203   3.725  16.760 -2.0163  1.1040  2.7288
13850TIP3   OH262964   2.243   1.813  14.224  0.4148 -0.5267 -0.0246
13850TIP3    H162965   2.155   1.802  14.188 -0.0339 -2.7275  1.5653
13850TIP3    H262966   2.229   1.842  14.314  1.3014 -0.8572  0.2355
13851TIP3   OH262967   3.859   5.796  17.133  0.9752 -0.9072 -0.6041
13851TIP3    H162968   3.863   5.890  17.120  1.8158 -1.0588 -1.5971
13851TIP3    H262969   3.905   5.759  17.057  3.0786 -2.0121  1.0741
13852TIP3   OH262970   6.336   4.133   4.353 -0.3697 -0.6474 -0.1544
13852TIP3    H162971   6.286   4.203   4.394  0.7040 -0.6568  1.2466
13852TIP3    H262972   6.427   4.152   4.376  0.1185 -1.5182 -1.2703
13853TIP3   OH262973   6.522   4.573  15.967 -0.0917 -0.2794 -0.0802
13853TIP3    H162974   6.443   4.575  15.913  1.3471 -1.8118 -2.3877
13853TIP3    H262975   6.590   4.610  15.911  1.1126 -0.2304  1.3650
13854TIP3   OH262976   0.360   5.877   0.980  1.1293  0.2697  0.5282
13854TIP3    H162977   0.447   5.844   0.957  0.8871  0.8552 -1.4215
13854TIP3    H262978   0.311   5.799   1.008  2.1662 -0.1131  1.3101
13855TIP3   OH262979   5.226   4.289   4.654  0.8834 -0.0005  0.3611
13855TIP3    H162980   5.307   4.253   4.617  0.2450 -0.0222 -1.0888
13855TIP3    H262981   5.231   4.383   4.635  1.6166  0.4151  2.3608
13856TIP3   OH262982   1.183   4.493  14.721  0.0689  0.6272  0.2619
13856TIP3    H162983   1.274   4.520  14.728 -0.2322  1.3951  1.7182
13856TIP3    H262984   1.139   4.538  14.794 -1.0560 -1.4009  0.9260
13857TIP3   OH262985   5.379   1.212   5.626  0.5407  0.4958 -0.2389
13857TIP3    H162986   5.398   1.263   5.705 -0.3376  1.4161 -0.5894
13857TIP3    H262987   5.371   1.277   5.557 -1.3244 -0.0131 -0.5715
13858TIP3   OH262988   0.496   2.999   1.993  0.4385  0.2607 -0.0662
13858TIP3    H162989   0.408   2.977   1.965  0.5211  1.1106 -1.0683
13858TIP3    H262990   0.552   2.937   1.947  0.3293 -0.8591  1.2542
13859TIP3   OH262991   0.653   1.161  15.194  0.0207 -0.0683  0.1367
13859TIP3    H162992   0.603   1.080  15.196  0.0531 -0.0855  2.0634
13859TIP3    H262993   0.600   1.224  15.242  0.5379  0.7212 -0.3024
13860TIP3   OH262994   6.699   3.743   5.387 -0.2936  0.3102  0.3235
13860TIP3    H162995   6.719   3.650   5.383 -1.0675  0.1829 -1.4314
13860TIP3    H262996   6.747   3.775   5.463 -0.2827 -1.5800  1.1624
13861TIP3   OH262997   1.096   0.606   5.030  0.2069  0.3348 -0.0349
13861TIP3    H162998   1.061   0.533   4.978  0.6551  0.2064 -0.1566
13861TIP3    H262999   1.030   0.675   5.020  0.0546  0.1457 -0.3843
13862TIP3   OH263000   2.758   6.336   2.638  0.1331 -0.0988 -0.5933
13862TIP3    H163001   2.669   6.359   2.612  0.2219 -0.8188 -1.6126
13862TIP3    H263002   2.761   6.353   2.732 -1.5597 -1.4772 -0.2345
13863TIP3   OH263003   3.073   2.100   4.339  0.0766  0.0008 -0.1108
13863TIP3    H163004   3.165   2.084   4.317  0.2075  0.4012  0.1360
13863TIP3    H263005   3.055   2.187   4.304  0.9628  1.7298  3.2810
13864TIP3   OH263006   6.113   2.330  12.997  0.2751 -0.3778 -0.5953
13864TIP3    H163007   6.124   2.272  13.072  0.7749 -0.5335 -0.7916
13864TIP3    H263008   6.018   2.345  12.993  0.1933 -0.7741 -0.2438
13865TIP3   OH263009   5.369   4.071  14.366  0.2714 -0.2695  0.6158
13865TIP3    H163010   5.290   4.087  14.418  0.2188  2.3948 -0.0955
13865TIP3    H263011   5.336   4.050  14.278  0.3067  0.6560  0.3660
13866TIP3   OH263012   3.275   5.153  12.235 -0.2825 -0.6218  0.3275
13866TIP3    H163013   3.314   5.094  12.171  0.0731 -0.6350  0.5508
13866TIP3    H263014   3.276   5.103  12.317 -1.2445 -0.8178  0.2325
13867TIP3   OH263015   5.216   4.159   0.976 -0.6666 -0.1995  0.1719
13867TIP3    H163016   5.230   4.082   1.031  0.4080 -1.0081 -1.1577
13867TIP3    H263017   5.237   4.129   0.887  0.5225  1.8125 -0.2871
13868TIP3   OH263018   4.993   0.982  16.140  0.0684  0.4655 -0.5078
13868TIP3    H163019   5.022   0.896  16.172 -0.5540  0.3025 -0.3714
13868TIP3    H263020   4.907   0.966  16.102 -0.8765  1.3299  1.1350
13869TIP3   OH263021   4.765   6.175   3.826 -0.2243  0.1422 -0.1183
13869TIP3    H163022   4.819   6.242   3.786 -2.4721  1.8530 -0.5053
13869TIP3    H263023   4.742   6.210   3.912  0.6531 -1.3395  0.7651
13870TIP3   OH263024   4.947   1.819   2.364  0.0131  0.2756  0.5740
13870TIP3    H163025   5.014   1.776   2.418  1.8332  0.5431 -1.3459
13870TIP3    H263026   4.918   1.750   2.304 -0.2483  0.5925  0.3366
13871TIP3   OH263027   2.753   0.318   2.702  0.0392  0.2751  0.2865
13871TIP3    H163028   2.771   0.405   2.738 -0.0274  0.5528 -0.3401
13871TIP3    H263029   2.685   0.333   2.636  0.4535 -0.1539 -0.2514
13872TIP3   OH263030   0.928   6.788   1.909  0.0313  0.2335 -0.1407
13872TIP3    H163031   1.017   6.784   1.945  0.0717  1.2353 -0.1092
13872TIP3    H263032   0.871   6.768   1.983  0.2541 -1.3511 -0.3708
13873TIP3   OH263033   0.911   1.773   5.999 -0.5273  0.4969 -0.1086
13873TIP3    H163034   0.981   1.764   6.063 -1.4004  1.4161  1.0019
13873TIP3    H263035   0.894   1.683   5.969 -0.6496 -0.0508  1.5441
13874TIP3   OH263036   0.932   5.500   5.256 -0.0490  0.4359  0.1857
13874TIP3    H163037   0.852   5.454   5.235  0.5700 -0.3014 -0.6063
13874TIP3    H263038   0.963   5.534   5.172  0.6686  0.3803  0.4231
13875TIP3   OH263039   0.334   0.714  14.992 -0.2931  0.0971  0.4282
13875TIP3    H163040   0.385   0.633  14.988 -0.5845 -0.1615  1.6149
13875TIP3    H263041   0.314   0.734  14.900  0.0705 -0.9872  0.0941
13876TIP3   OH263042   4.243   4.297  15.126 -0.0713 -0.2297 -0.5489
13876TIP3    H163043   4.310   4.348  15.080 -1.3136  1.3248 -0.7287
13876TIP3    H263044   4.282   4.211  15.139  1.7980  0.5172 -0.9921
13877TIP3   OH263045   0.960   3.442  16.990 -0.5471  0.1700 -0.2144
13877TIP3    H163046   1.006   3.417  16.910 -0.8462 -1.3340  0.0605
13877TIP3    H263047   0.891   3.377  17.000 -0.2793  0.0904  1.4903
13878TIP3   OH263048   2.146   3.193  15.435  0.4929 -0.3070 -0.3255
13878TIP3    H163049   2.217   3.128  15.430  0.8200  0.0046 -5.3364
13878TIP3    H263050   2.092   3.164  15.508  3.7806 -2.6856  1.4481
13879TIP3   OH263051   1.092   1.649  15.438 -0.0355  0.1103 -0.1607
13879TIP3    H163052   1.089   1.554  15.437  0.2595  0.0988 -0.7433
13879TIP3    H263053   1.176   1.670  15.480 -1.2682  0.1776  2.4658
13880TIP3   OH263054   4.782   2.055   3.812  0.8628 -0.1907  0.0811
13880TIP3    H163055   4.863   2.016   3.778 -0.1022 -1.4680 -0.8770
13880TIP3    H263056   4.712   1.998   3.778 -0.5016  1.3222  0.2305
13881TIP3   OH263057   1.665   2.283   4.886  0.5017  0.1279 -0.1938
13881TIP3    H163058   1.653   2.369   4.926  0.5654  1.7024 -3.3109
13881TIP3    H263059   1.746   2.250   4.926  0.4416  1.4506  1.1111
13882TIP3   OH263060   0.629   4.065   2.360 -0.2002 -0.3456  0.2378
13882TIP3    H163061   0.638   4.036   2.269  2.1424  0.8814 -0.0023
13882TIP3    H263062   0.603   3.986   2.407 -1.5606 -0.9896 -1.4922
13883TIP3   OH263063   6.294   1.342  13.345  0.2229 -0.0075 -0.3606
13883TIP3    H163064   6.273   1.284  13.272  2.8538 -0.5495 -0.7871
13883TIP3    H263065   6.303   1.429  13.304  1.0543 -0.1969 -0.6058
13884TIP3   OH263066   3.354   6.318  11.118  0.2932  0.4148 -0.1184
13884TIP3    H163067   3.266   6.342  11.089  0.7044  2.5577  0.2027
13884TIP3    H263068   3.411   6.343  11.045  0.6979 -0.3640 -0.0734
13885TIP3   OH263069   5.415   5.412  14.337  0.4431 -0.0485 -0.5881
13885TIP3    H163070   5.494   5.423  14.391  1.2597  0.0939 -1.7674
13885TIP3    H263071   5.377   5.329  14.367  0.8408  0.0539  0.2375
13886TIP3   OH263072   4.789   4.402  13.625 -0.1665 -0.4666 -0.1458
13886TIP3    H163073   4.781   4.466  13.695  0.0629 -1.0067  0.3911
13886TIP3    H263074   4.721   4.337  13.644  0.4479 -1.0631  0.0757
13887TIP3   OH263075   4.436   3.378  12.973 -0.2500  0.1163  0.0336
13887TIP3    H163076   4.414   3.367  13.066  1.1558 -0.3998  0.3338
13887TIP3    H263077   4.365   3.334  12.926 -0.4633 -0.4950  0.8999
13888TIP3   OH263078   3.530   3.736  14.744  0.6728 -0.2334 -0.8825
13888TIP3    H163079   3.614   3.744  14.789 -0.5608  1.8279  1.2369
13888TIP3    H263080   3.518   3.820  14.699 -1.2726  0.4903  0.8507
13889TIP3   OH263081   1.984   5.198   5.145 -0.0370 -0.1409  0.2475
13889TIP3    H163082   1.999   5.292   5.152  2.9924 -0.4224 -1.0167
13889TIP3    H263083   2.005   5.164   5.232  0.1501  0.1990  0.3389
13890TIP3   OH263084   2.816   1.842  16.487 -0.3133 -0.2071  0.1934
13890TIP3    H163085   2.852   1.772  16.541 -0.1905 -0.0533  0.3134
13890TIP3    H263086   2.722   1.833  16.495 -0.4011 -2.1955 -2.1315
13891TIP3   OH263087   2.179   4.233   4.435  0.7468  0.3369 -0.1621
13891TIP3    H163088   2.221   4.304   4.483 -0.9910  3.2748 -2.6801
13891TIP3    H263089   2.175   4.161   4.499  1.4366  2.8480  2.9926
13892TIP3   OH263090   0.962   2.814   2.449 -0.9713 -0.2713 -0.3711
13892TIP3    H163091   1.008   2.764   2.516  0.3483  0.7119 -0.5152
13892TIP3    H263092   0.874   2.825   2.484 -0.0633  1.0174  1.6711
13893TIP3   OH263093   5.771   1.149   2.815 -0.2200  0.4881 -0.1295
13893TIP3    H163094   5.769   1.141   2.720  0.1787 -1.1025 -0.0290
13893TIP3    H263095   5.822   1.228   2.831  0.0962  0.5240 -1.2186
13894TIP3   OH263096   1.366   4.483   2.672 -1.2379  0.6812  0.3766
13894TIP3    H163097   1.443   4.453   2.721 -0.2000 -0.5386 -1.8553
13894TIP3    H263098   1.377   4.578   2.667  0.7144  0.4535 -0.7258
13895TIP3   OH263099   2.204   2.237  14.325 -0.2076  0.1489  0.1569
13895TIP3    H163100   2.166   2.194  14.402 -0.7395 -1.1963 -0.8267
13895TIP3    H263101   2.289   2.194  14.313 -0.7688 -0.7274 -0.8678
13896TIP3   OH263102   2.989   2.888   1.005 -1.0014 -0.0986 -0.7402
13896TIP3    H163103   2.923   2.928   0.949  0.0631  1.2276 -1.0895
13896TIP3    H263104   3.038   2.961   1.042 -1.0481 -0.9630  1.2032
13897TIP3   OH263105   6.575   4.274  13.755  0.0876 -0.4240 -0.4157
13897TIP3    H163106   6.651   4.304  13.704 -0.0812 -0.9487 -0.9889
13897TIP3    H263107   6.505   4.267  13.691 -0.1471 -1.0307 -0.0943
13898TIP3   OH263108   0.150   5.494   2.288 -0.1652  0.1626 -0.1125
13898TIP3    H163109   0.077   5.472   2.346  0.2588 -2.0864 -0.3539
13898TIP3    H263110   0.185   5.410   2.259  0.4320  1.1724 -2.6757
13899TIP3   OH263111   3.110   1.426   0.525 -0.6678  0.3476 -0.3148
13899TIP3    H163112   3.114   1.483   0.602 -2.4929 -1.1056  0.9301
13899TIP3    H263113   3.198   1.432   0.487 -0.0422  1.9669  1.2320
13900TIP3   OH263114   2.382   1.409  13.598  0.1616  0.0540  0.1012
13900TIP3    H163115   2.369   1.360  13.678  0.0720 -0.2783 -0.1140
13900TIP3    H263116   2.312   1.474  13.598  2.1966  2.4346  2.0397
13901TIP3   OH263117   5.110   6.566  11.595 -0.0345  0.4233 -0.4414
13901TIP3    H163118   5.099   6.495  11.658  0.5485  1.1422  0.4940
13901TIP3    H263119   5.116   6.645  11.648  1.8824  0.9075 -1.3004
13902TIP3   OH263120   6.373   6.445  17.190  0.2462  0.0588  0.7233
13902TIP3    H163121   6.425   6.504  17.136 -1.8410  0.6878 -0.6929
13902TIP3    H263122   6.283   6.475  17.180 -0.4792 -1.1250  2.9128
13903TIP3   OH263123   3.720   4.722   3.924 -0.4481 -0.3514  0.2249
13903TIP3    H163124   3.681   4.714   3.837 -1.1504  1.0356  0.3942
13903TIP3    H263125   3.811   4.746   3.908 -0.5229 -0.3017 -0.1284
13904TIP3   OH263126   3.817   3.030  15.340  0.2011  0.4285 -0.2992
13904TIP3    H163127   3.751   3.087  15.301  0.2917 -0.3688 -1.6829
13904TIP3    H263128   3.770   2.982  15.408 -0.3097  0.8401 -0.3544
13905TIP3   OH263129   5.961   5.296  12.385  0.3357 -0.1070 -0.2416
13905TIP3    H163130   5.909   5.226  12.346  1.7338 -1.7338  0.6391
13905TIP3    H263131   5.995   5.258  12.466  1.9388  1.2502 -0.2181
13906TIP3   OH263132   1.661   0.844  13.939  0.0588 -0.3154 -0.0380
13906TIP3    H163133   1.681   0.764  13.891  0.5242  0.0774 -0.5110
13906TIP3    H263134   1.744   0.869  13.981  0.4015  0.8827 -1.3529
13907TIP3   OH263135   5.503   0.361  15.098 -0.0272  0.4063  0.0936
13907TIP3    H163136   5.426   0.327  15.054  0.3339  1.8243 -1.7540
13907TIP3    H263137   5.490   0.338  15.190 -1.4989 -1.4180 -0.5049
13908TIP3   OH263138   4.650   0.337  16.563 -0.0742  0.0553  0.0778
13908TIP3    H163139   4.722   0.274  16.566 -0.0997  0.0427  0.4858
13908TIP3    H263140   4.583   0.294  16.510  0.5546  0.4219 -1.0233
13909TIP3   OH263141   3.985   3.413  15.750 -0.0887  0.3948  0.2146
13909TIP3    H163142   3.894   3.399  15.776  0.2044  0.2499  1.1909
13909TIP3    H263143   4.021   3.325  15.742 -0.0321  0.4523 -0.1832
13910TIP3   OH263144   1.606   3.650   2.806  0.4462  0.2587  0.0848
13910TIP3    H163145   1.640   3.726   2.852 -0.5330  0.0608  1.1699
13910TIP3    H263146   1.682   3.613   2.761  0.9733  1.7482 -0.3135
13911TIP3   OH263147   1.431   5.648   1.145  0.8435 -0.6676 -0.0570
13911TIP3    H163148   1.500   5.629   1.209  0.6978  0.8655  0.6032
13911TIP3    H263149   1.469   5.717   1.090 -0.8127  1.6768  1.5647
13912TIP3   OH263150   5.384   6.239  11.668 -0.2181  0.0573 -0.7693
13912TIP3    H163151   5.397   6.276  11.581 -2.8038 -0.2466 -1.3792
13912TIP3    H263152   5.291   6.217  11.671  0.4931 -3.5726  0.6368
13913TIP3   OH263153   6.637   3.104  12.741 -0.4220  0.1808 -0.3256
13913TIP3    H163154   6.713   3.115  12.797 -0.2148  0.3753 -0.6408
13913TIP3    H263155   6.610   3.193  12.718  0.0574  0.0898 -1.2775
13914TIP3   OH263156   5.002   4.031   4.038 -0.6104  0.3477 -0.5089
13914TIP3    H163157   5.033   4.118   4.065 -1.9869  1.3313 -1.9510
13914TIP3    H263158   4.999   4.035   3.943  0.0800 -1.5947 -0.6586
13915TIP3   OH263159   0.938   2.158   5.934  0.3411  0.0464  0.1952
13915TIP3    H163160   0.933   2.218   6.008 -0.0989  0.0715  0.1497
13915TIP3    H263161   1.025   2.117   5.941  1.2108  1.6782 -0.5510
13916TIP3   OH263162   1.859   0.701   2.548  0.4551 -0.3542 -1.0017
13916TIP3    H163163   1.881   0.755   2.472  0.9191 -0.1011 -0.6961
13916TIP3    H263164   1.941   0.659   2.572  0.3051 -0.4522 -0.6578
13917TIP3   OH263165   1.264   4.135   5.298 -0.0702  0.5478  0.0878
13917TIP3    H163166   1.331   4.070   5.277 -0.7494 -0.4291  0.8466
13917TIP3    H263167   1.305   4.219   5.278  0.5866 -0.1244 -1.5990
13918TIP3   OH263168   2.730   4.599   3.434  0.0388  0.6240 -0.4632
13918TIP3    H163169   2.759   4.509   3.448 -1.6650  0.1118 -0.0894
13918TIP3    H263170   2.805   4.642   3.392  1.4331 -0.5487  0.7279
13919TIP3   OH263171   3.375   5.934  11.860 -0.1747 -0.5252  0.1870
13919TIP3    H163172   3.336   5.964  11.778  1.0383  0.0897 -0.1959
13919TIP3    H263173   3.343   5.995  11.926  1.1622  0.8408 -0.3553
13920TIP3   OH263174   0.642   5.048   5.117 -0.3712  0.2915  0.4685
13920TIP3    H163175   0.696   4.971   5.102 -1.3730 -0.1992 -0.7765
13920TIP3    H263176   0.586   5.023   5.191 -0.9601 -0.3524 -0.1742
13921TIP3   OH263177   2.884   4.430  11.983  0.0562  0.5281 -0.4460
13921TIP3    H163178   2.909   4.422  12.075 -0.8834 -0.2121 -0.2380
13921TIP3    H263179   2.794   4.461  11.985 -1.1043 -2.4380 -0.9817
13922TIP3   OH263180   5.474   3.133   4.737 -0.2076  0.4655  0.7026
13922TIP3    H163181   5.415   3.208   4.742  0.1719  0.7076  2.0041
13922TIP3    H263182   5.433   3.066   4.791 -0.3159 -0.1201 -0.0819
13923TIP3   OH263183   1.395   3.811  14.087  0.0902 -0.2988  0.1859
13923TIP3    H163184   1.325   3.799  14.151  0.6207 -1.1992  0.6073
13923TIP3    H263185   1.400   3.906  14.076 -0.0114 -0.1231  1.4861
13924TIP3   OH263186   1.016   0.410   6.023 -0.1929  0.3136 -0.0235
13924TIP3    H163187   1.048   0.347   6.087  2.2501  1.6749  0.2043
13924TIP3    H263188   0.932   0.373   5.994 -0.1754 -1.6274  2.0461
13925TIP3   OH263189   4.450   2.234  12.283 -0.3033 -0.2406  0.5597
13925TIP3    H163190   4.400   2.187  12.217 -0.3998 -1.4842  1.4886
13925TIP3    H263191   4.415   2.205  12.367  1.0471 -0.1157  1.2110
13926TIP3   OH263192   3.717   6.503  14.379 -0.2916 -0.3491  0.0721
13926TIP3    H163193   3.752   6.558  14.308  0.1412 -0.2455  0.3599
13926TIP3    H263194   3.672   6.565  14.437  1.2782 -0.0717  1.0749
13927TIP3   OH263195   1.999   5.331   0.589 -0.1133 -0.2016 -0.1904
13927TIP3    H163196   2.072   5.386   0.563  0.8285 -0.4427  1.7747
13927TIP3    H263197   2.033   5.241   0.584 -1.3605 -0.6269 -2.5126
13928TIP3   OH263198   4.277   5.275   3.564  0.1500 -0.0564 -0.2216
13928TIP3    H163199   4.210   5.224   3.518  1.3513 -0.5588 -1.4833
13928TIP3    H263200   4.359   5.228   3.548  1.1516  1.6968 -0.5480
13929TIP3   OH263201   1.172   6.218   3.686 -1.0182  0.5081 -0.4865
13929TIP3    H163202   1.095   6.162   3.677  0.5160 -2.0155  0.9409
13929TIP3    H263203   1.245   6.162   3.661  0.6424  1.7827  1.2621
13930TIP3   OH263204   2.427   0.332  12.847  0.3723 -0.0226 -0.2313
13930TIP3    H163205   2.362   0.290  12.790  0.2098 -0.5796  0.3527
13930TIP3    H263206   2.466   0.401  12.793 -0.3858  0.0189 -0.7348
13931TIP3   OH263207   0.454   3.759  16.304 -0.0121 -0.0539 -0.7433
13931TIP3    H163208   0.375   3.788  16.257 -1.0315 -1.0041  0.3571
13931TIP3    H263209   0.501   3.706  16.240 -0.7874 -0.3450 -1.0846
13932TIP3   OH263210   0.328   2.750  15.832 -0.4517  0.2603  0.4971
13932TIP3    H163211   0.273   2.751  15.754  0.4155  0.6781 -0.1275
13932TIP3    H263212   0.377   2.668  15.827  0.4932  0.8301 -0.0658
13933TIP3   OH263213   0.831   6.279  15.590 -0.2134  0.4130 -0.6568
13933TIP3    H163214   0.900   6.272  15.656 -1.2132 -1.1905  0.3047
13933TIP3    H263215   0.759   6.324  15.635 -1.1951 -1.3931 -0.3365
13934TIP3   OH263216   2.662   1.953  15.727 -0.3468 -0.1729  0.0863
13934TIP3    H163217   2.600   1.937  15.655 -0.7154 -0.5387  0.4769
13934TIP3    H263218   2.683   1.866  15.759  1.8919 -0.1981 -1.2845
13935TIP3   OH263219   0.736   2.881   4.247 -0.5759 -0.4972  0.3670
13935TIP3    H163220   0.728   2.900   4.153 -0.6278 -1.3980  0.1774
13935TIP3    H263221   0.794   2.805   4.251 -0.6758 -0.5417  1.0571
13936TIP3   OH263222   6.675   6.315   5.534  0.1257 -0.0372 -0.1744
13936TIP3    H163223   6.662   6.407   5.556  1.8200  0.2824 -0.4318
13936TIP3    H263224   6.761   6.311   5.493  1.4938 -2.1760  2.5472
13937TIP3   OH263225   3.294   3.537  11.452 -0.1721 -0.0778 -0.0719
13937TIP3    H163226   3.383   3.516  11.479 -0.3389  0.3054  0.8229
13937TIP3    H263227   3.261   3.456  11.412 -0.4620 -1.2600  2.3668
13938TIP3   OH263228   6.577   0.960  12.547  0.8413  0.0699  0.0408
13938TIP3    H163229   6.545   1.050  12.548 -0.0794 -0.2551  0.7149
13938TIP3    H263230   6.519   0.912  12.606  0.8404 -1.1314 -0.8816
13939TIP3   OH263231   3.530   4.398  12.389 -0.0885  0.4739  0.1043
13939TIP3    H163232   3.563   4.347  12.316 -0.0494  1.6585 -0.7230
13939TIP3    H263233   3.591   4.379  12.461  2.1202  2.1497 -1.2079
13940TIP3   OH263234   6.564   0.349  13.536 -0.5384 -0.3437  0.1236
13940TIP3    H163235   6.478   0.307  13.539 -0.0756 -1.2833  2.4695
13940TIP3    H263236   6.614   0.307  13.606  1.9327  0.0202 -1.2741
13941TIP3   OH263237   0.557   0.030  15.282  0.6146 -0.5326 -0.3659
13941TIP3    H163238   0.540   0.042  15.376  0.1849 -1.0077 -0.3805
13941TIP3    H263239   0.600  -0.056  15.277  0.9151 -0.3705 -0.5749
13942TIP3   OH263240   2.149   3.788  14.228 -0.5956  0.1762 -0.8108
13942TIP3    H163241   2.137   3.693  14.230 -1.4107  0.2532 -1.6049
13942TIP3    H263242   2.201   3.807  14.306  0.1307 -0.9935 -0.9923
13943TIP3   OH263243   1.349   1.157  12.099  0.0051 -0.0902 -0.1082
13943TIP3    H163244   1.351   1.080  12.156  2.0125  0.6662  0.9411
13943TIP3    H263245   1.375   1.125  12.013 -1.2492 -0.9236 -0.1996
13944TIP3   OH263246   1.186   4.837   4.642 -0.1190  0.0561 -0.1583
13944TIP3    H163247   1.254   4.891   4.682 -0.6188  1.3882 -1.0451
13944TIP3    H263248   1.162   4.883   4.562 -0.9847 -1.1945 -0.6596
13945TIP3   OH263249   2.341   4.747  11.702 -0.1147  0.0996  0.5767
13945TIP3    H163250   2.395   4.743  11.781  1.0918  0.7313 -0.1752
13945TIP3    H263251   2.266   4.801  11.727 -0.4592 -0.8516  1.6665
13946TIP3   OH263252   0.244   1.038  13.199 -0.2359 -0.4024 -0.3093
13946TIP3    H163253   0.275   1.085  13.277  1.1348 -1.7687  0.0059
13946TIP3    H263254   0.195   1.104  13.150 -0.2341  0.7728  1.1800
13947TIP3   OH263255   2.445   4.478  11.348  0.5193  0.7409  0.4435
13947TIP3    H163256   2.473   4.446  11.262  0.8368  0.0706  0.7931
13947TIP3    H263257   2.525   4.479  11.400  0.3452  1.2443  0.7122
13948TIP3   OH263258   5.803   0.956   0.524 -0.0109  0.4022  0.4847
13948TIP3    H163259   5.763   0.921   0.604 -0.0495 -0.4255  0.1147
13948TIP3    H263260   5.898   0.948   0.539  0.0097  1.1766  0.8410
13949TIP3   OH263261   2.904   4.581  16.329 -0.3984 -0.3191  0.1794
13949TIP3    H163262   2.950   4.554  16.249 -1.9136 -0.0043 -0.8480
13949TIP3    H263263   2.899   4.501  16.381 -0.5987 -0.8931 -0.6831
13950TIP3   OH263264   3.965   4.314   5.270 -0.1393 -0.0276 -0.3883
13950TIP3    H163265   4.013   4.291   5.190  1.5951 -0.6214  0.7603
13950TIP3    H263266   3.942   4.406   5.259 -0.0897 -0.1442 -1.6309
13951TIP3   OH263267   5.398   6.291  15.338  0.2446 -0.3280  0.1613
13951TIP3    H163268   5.321   6.244  15.306  0.3384  0.0421 -0.6239
13951TIP3    H263269   5.395   6.278  15.433 -2.1191  1.6363  0.4703
13952TIP3   OH263270   2.713   4.726   0.982  0.2996 -0.0002  0.0346
13952TIP3    H163271   2.703   4.821   0.984  0.2868 -0.0099  0.9287
13952TIP3    H263272   2.709   4.703   0.889 -0.0391  0.8335 -0.1647
13953TIP3   OH263273   5.784   1.634   5.329 -0.3881 -0.0866  0.1995
13953TIP3    H163274   5.768   1.674   5.415 -0.9090  1.3971 -0.5632
13953TIP3    H263275   5.860   1.681   5.295 -0.5391 -0.2685 -0.3913
13954TIP3   OH263276   1.035   4.685  14.494 -0.7063  0.0957 -0.0160
13954TIP3    H163277   0.958   4.654  14.540 -1.2571 -0.1223 -1.0476
13954TIP3    H263278   1.073   4.752  14.551 -0.5439 -1.1501  1.4030
13955TIP3   OH263279   3.690   2.402   2.166  0.0398 -0.2543  0.5388
13955TIP3    H163280   3.730   2.395   2.252  0.0627 -1.9774  0.4375
13955TIP3    H263281   3.610   2.349   2.172 -0.2725  0.0935 -0.3225
13956TIP3   OH263282   1.565   5.148  10.372 -0.3726 -0.2303 -0.1450
13956TIP3    H163283   1.529   5.228  10.409 -1.5560  0.0497 -1.8279
13956TIP3    H263284   1.592   5.171  10.283 -0.7900 -1.7069 -0.6921
13957TIP3   OH263285   0.894   4.508  14.679 -0.2632 -0.5539  0.0385
13957TIP3    H163286   0.952   4.457  14.734  1.6365  0.3040 -1.0552
13957TIP3    H263287   0.826   4.539  14.738  1.8074  0.5540  2.0098
13958TIP3   OH263288   4.612   2.054   4.828 -0.1038 -0.1557 -0.1789
13958TIP3    H163289   4.699   2.087   4.849  0.4486  0.2386 -2.6705
13958TIP3    H263290   4.553   2.127   4.847  0.1966 -0.1437  0.7598
13959TIP3   OH263291   3.950   3.350   6.000  0.2153 -0.2582  0.2752
13959TIP3    H163292   3.856   3.351   6.014 -0.0225  0.8461 -1.2040
13959TIP3    H263293   3.974   3.441   5.984  1.3284 -0.6669 -0.5864
13960TIP3   OH263294   4.467   5.711  15.311  0.0361  0.4529  0.2258
13960TIP3    H163295   4.539   5.684  15.368  0.8684 -0.5908 -1.2205
13960TIP3    H263296   4.443   5.631  15.263 -0.5684  1.2812 -0.9114
13961TIP3   OH263297   1.321   1.116  15.685  0.0887  0.0187 -0.0260
13961TIP3    H163298   1.247   1.157  15.729 -0.5842 -1.7891  0.5695
13961TIP3    H263299   1.319   1.025  15.713  1.9090 -0.3161 -0.8432
13962TIP3   OH263300   2.267   4.686   4.931 -0.0721 -0.0153 -0.0361
13962TIP3    H163301   2.284   4.625   5.003  0.9034 -0.1799 -0.3891
13962TIP3    H263302   2.314   4.649   4.856 -2.2275 -0.6114 -1.1657
13963TIP3   OH263303   4.881   0.509   3.104 -0.3094  0.2346  0.4786
13963TIP3    H163304   4.958   0.455   3.117 -1.1233 -0.5661  2.2098
13963TIP3    H263305   4.845   0.522   3.191 -1.8915  0.9653 -0.2327
13964TIP3   OH263306   4.411   1.356  12.521 -0.3939  0.4103  0.8216
13964TIP3    H163307   4.402   1.315  12.435  0.2385  0.4042  0.7498
13964TIP3    H263308   4.352   1.306  12.578 -0.1562 -0.1501  0.5832
13965TIP3   OH263309   6.500   0.262   3.164  0.3483  0.0932  0.2925
13965TIP3    H163310   6.580   0.261   3.111  0.3114  0.4661  0.2271
13965TIP3    H263311   6.517   0.199   3.233  0.4783 -0.2491 -0.0459
13966TIP3   OH263312   5.798   4.078   5.516  0.6239  0.3007 -0.1003
13966TIP3    H163313   5.807   4.124   5.599 -2.0481  0.4807  0.1830
13966TIP3    H263314   5.704   4.082   5.496  1.0430 -0.5099 -2.6881
13967TIP3   OH263315   1.217   3.855   2.262 -0.0481 -0.1854  0.2092
13967TIP3    H163316   1.152   3.812   2.206  0.2919 -1.1923  0.5698
13967TIP3    H263317   1.166   3.893   2.334 -0.5137  1.2874 -0.8323
13968TIP3   OH263318   1.191   1.402  15.372  0.6051 -0.5437  0.3535
13968TIP3    H163319   1.211   1.376  15.462 -0.1083  0.2960  0.7786
13968TIP3    H263320   1.107   1.359  15.354  0.6744 -0.5881  0.1404
13969TIP3   OH263321   3.130   2.251  14.721  0.2235  0.0280  0.4237
13969TIP3    H163322   3.088   2.236  14.636  0.5636  0.7632  0.1218
13969TIP3    H263323   3.112   2.343  14.741 -0.3196 -0.2785  1.4086
13970TIP3   OH263324   3.604   4.185   3.489 -0.7472 -0.1803 -0.1024
13970TIP3    H163325   3.688   4.171   3.532  1.3275  0.8289 -3.4229
13970TIP3    H263326   3.619   4.259   3.430 -3.7053 -0.5485 -1.5253
13971TIP3   OH263327   1.298   1.762  14.056  0.0182 -0.3811  1.0576
13971TIP3    H163328   1.273   1.772  13.965  3.6113  0.0685 -0.0376
13971TIP3    H263329   1.266   1.675  14.081 -0.9920 -0.5285 -0.6329
13972TIP3   OH263330   6.512   2.357   3.209  0.1100  0.1166  0.1875
13972TIP3    H163331   6.498   2.353   3.114  1.5300 -0.0652 -0.0390
13972TIP3    H263332   6.441   2.304   3.246 -0.8308  0.7098 -0.7226
13973TIP3   OH263333   0.185   1.909  14.588  0.6063 -0.0897 -0.0587
13973TIP3    H163334   0.153   1.975  14.650 -0.7713 -0.7502 -0.0315
13973TIP3    H263335   0.168   1.825  14.631 -0.2412 -0.5555 -1.2464
13974TIP3   OH263336   5.321   1.593   5.793 -0.4143  0.7402  0.4175
13974TIP3    H163337   5.329   1.647   5.715 -0.5135  0.0473 -0.0747
13974TIP3    H263338   5.259   1.641   5.849 -1.0507  0.7858 -0.3159
13975TIP3   OH263339   1.027   2.261  17.176 -0.5856 -0.1621 -0.1151
13975TIP3    H163340   0.987   2.175  17.175 -0.9192 -0.0064 -0.0970
13975TIP3    H263341   0.968   2.316  17.124 -1.0815  0.3771  0.9858
13976TIP3   OH263342   1.642   2.356   6.070 -0.5348  0.1868 -0.1252
13976TIP3    H163343   1.624   2.356   6.164  0.2901  2.3623  0.0819
13976TIP3    H263344   1.693   2.276   6.056  2.9111  1.7779  2.0846
13977TIP3   OH263345   4.257   3.631  14.889 -0.1562  0.0793  0.6892
13977TIP3    H163346   4.182   3.652  14.834  0.7929  2.1831  0.0874
13977TIP3    H263347   4.276   3.539  14.870 -1.5071 -0.0031 -0.4426
13978TIP3   OH263348   0.090   4.984   1.430  0.5058 -0.7414 -0.1064
13978TIP3    H163349   0.125   5.068   1.401  1.1738 -0.3954  1.5889
13978TIP3    H263350   0.001   5.004   1.459  0.9160 -0.4625  0.9789
13979TIP3   OH263351   1.153   2.476   3.088  0.0109 -0.8020  0.0272
13979TIP3    H163352   1.124   2.566   3.071 -1.1328 -1.2810 -0.7069
13979TIP3    H263353   1.248   2.483   3.099 -0.1457  0.6089  0.8569
13980TIP3   OH263354   1.676   6.604  17.187  0.5438 -0.0009  0.1613
13980TIP3    H163355   1.628   6.543  17.243 -4.5624 -0.0550 -3.5044
13980TIP3    H263356   1.665   6.689  17.230  0.0769 -0.5114  1.0899
13981TIP3   OH263357   6.334   2.866   4.622 -0.1773  0.3639 -0.1997
13981TIP3    H163358   6.355   2.952   4.586  0.9561 -0.2050 -0.9795
13981TIP3    H263359   6.329   2.809   4.545 -2.0580 -0.0797  0.1882
13982TIP3   OH263360   0.092   2.581  11.247 -0.2862  0.2230 -0.1415
13982TIP3    H163361   0.008   2.550  11.283 -0.5049  3.3417  2.4575
13982TIP3    H263362   0.140   2.614  11.323  3.9546 -2.4499 -1.3018
13983TIP3   OH263363   5.991   3.279  16.473  0.3172 -0.7424  0.1782
13983TIP3    H163364   6.012   3.287  16.380 -1.4792  1.0224 -0.1413
13983TIP3    H263365   6.062   3.324  16.518 -0.5601  1.6285 -0.6284
13984TIP3   OH263366   2.022   0.172  15.047  0.3551 -0.0265 -0.3834
13984TIP3    H163367   2.088   0.150  14.980 -0.1759 -2.6643 -0.1653
13984TIP3    H263368   1.945   0.198  14.997  1.1007  1.7781 -0.6653
13985TIP3   OH263369   6.306   1.736  12.619 -0.0801 -0.0082 -0.6022
13985TIP3    H163370   6.372   1.782  12.670 -0.6160  0.4668 -0.3439
13985TIP3    H263371   6.353   1.661  12.582  0.8613  0.8615 -1.2267
13986TIP3   OH263372   3.396   6.667  14.320  0.3756 -0.0163  0.3598
13986TIP3    H163373   3.453   6.691  14.392 -0.9983  0.0832  1.4682
13986TIP3    H263374   3.407   6.572  14.311  1.7475  0.1989 -0.3968
13987TIP3   OH263375   0.056   3.169  13.425  0.7284  0.6188 -0.2356
13987TIP3    H163376   0.026   3.236  13.487 -0.2812 -0.8244  0.8921
13987TIP3    H263377   0.135   3.132  13.465  0.4769  0.1703 -0.1514
13988TIP3   OH263378   3.581   0.366   2.093  0.2432  0.1255  0.4266
13988TIP3    H163379   3.577   0.283   2.142 -0.6750 -0.7919 -1.1312
13988TIP3    H263380   3.661   0.359   2.042 -0.9606 -0.8693 -1.4334
13989TIP3   OH263381   5.177   2.640  12.245  0.2555 -0.1646  0.4493
13989TIP3    H163382   5.099   2.637  12.189  0.0385  0.1580  0.7376
13989TIP3    H263383   5.147   2.605  12.329  0.0771  1.2043  0.9768
13990TIP3   OH263384   1.670   0.202   5.123 -0.0783 -0.6041  0.4030
13990TIP3    H163385   1.661   0.117   5.166 -1.4354 -0.5410  0.2907
13990TIP3    H263386   1.729   0.251   5.180 -1.7459 -0.5636  2.1806
13991TIP3   OH263387   5.614   0.297   4.568  0.9308 -0.3908 -0.6837
13991TIP3    H163388   5.686   0.354   4.539  0.6414 -0.4550 -1.5630
13991TIP3    H263389   5.545   0.312   4.503  0.8756 -1.8031 -0.9701
13992TIP3   OH263390   3.065   6.692   2.123 -0.6022  0.4951  0.3043
13992TIP3    H163391   3.042   6.717   2.212 -1.2911  1.5689 -0.1533
13992TIP3    H263392   3.005   6.743   2.067 -1.3093 -1.3434 -0.7213
13993TIP3   OH263393   4.713   3.525  15.934  0.0707  0.6160  0.0523
13993TIP3    H163394   4.675   3.493  16.015 -0.7792 -0.9213 -0.9081
13993TIP3    H263395   4.735   3.616  15.953  1.1706 -0.0638  2.4144
13994TIP3   OH263396   5.128   0.444   1.343 -0.2692 -0.0271  0.2155
13994TIP3    H163397   5.064   0.374   1.330 -3.5089  2.9447 -1.4260
13994TIP3    H263398   5.194   0.429   1.276 -1.3590 -1.0694 -0.6662
13995TIP3   OH263399   1.439   4.360   5.228  0.0808  0.0370 -0.2200
13995TIP3    H163400   1.426   4.452   5.249 -0.7622 -0.7066  3.0964
13995TIP3    H263401   1.532   4.345   5.245  0.2540  0.2700 -0.9151
13996TIP3   OH263402   3.099   3.180   2.532 -0.2050 -0.7160 -0.0545
13996TIP3    H163403   3.187   3.143   2.527 -0.1442 -0.6407  0.4220
13996TIP3    H263404   3.041   3.110   2.503  0.1225 -0.2614 -1.9489
13997TIP3   OH263405   0.098   5.177   1.789  1.0245 -0.1358 -0.4919
13997TIP3    H163406   0.080   5.267   1.761 -0.0503  0.4502  1.8103
13997TIP3    H263407   0.040   5.164   1.864  2.8549 -1.9388  0.7119
13998TIP3   OH263408   1.735   0.623  14.703 -0.6965 -0.0085 -0.1090
13998TIP3    H163409   1.778   0.544  14.669 -0.5164 -0.2056  0.5719
13998TIP3    H263410   1.642   0.607  14.689 -0.5814  0.2705 -1.2703
13999TIP3   OH263411   5.088   4.524   4.089  0.4780 -0.6699  0.0025
13999TIP3    H163412   5.028   4.535   4.163  1.5810  2.0566  0.6015
13999TIP3    H263413   5.031   4.525   4.012 -0.4219  0.0656  0.6476
14000TIP3   OH263414   0.038   5.381  11.785 -0.7316 -0.6660  0.4204
14000TIP3    H163415   0.024   5.399  11.692 -0.8610 -2.1603  0.1213
14000TIP3    H263416  -0.050   5.376  11.822 -0.6633  1.3264  0.9478
14001TIP3   OH263417   5.170   2.352  13.686 -0.3186  0.0492  0.3633
14001TIP3    H163418   5.108   2.340  13.758 -0.4979  0.1796  0.2283
14001TIP3    H263419   5.200   2.443  13.695 -0.4146  0.0963  0.2159
14002TIP3   OH263420   4.351   5.924  16.363 -0.1002 -0.2172  0.1345
14002TIP3    H163421   4.391   6.001  16.404 -0.2785  0.1371 -0.3554
14002TIP3    H263422   4.416   5.854  16.375  0.9891  0.5026 -1.2418
14003TIP3   OH263423   3.118   0.925   0.752 -0.3062 -0.1057 -0.6699
14003TIP3    H163424   3.148   0.980   0.680  1.2685  0.7630  0.6093
14003TIP3    H263425   3.043   0.972   0.789  0.0579  0.3803 -0.5574
14004TIP3   OH263426   0.322   5.856   5.900 -0.0845  0.6813 -0.2648
14004TIP3    H163427   0.334   5.927   5.962  2.5071  1.1976 -1.2656
14004TIP3    H263428   0.324   5.898   5.814  0.4303 -0.4589 -0.8358
14005TIP3   OH263429   2.131   2.484   0.250  0.2306  0.6887  0.1989
14005TIP3    H163430   2.164   2.407   0.297  0.4136 -0.0484 -1.0897
14005TIP3    H263431   2.064   2.520   0.308  2.5761  1.6936  2.4769
14006TIP3   OH263432   3.399   2.412  12.903 -0.5340 -0.0495  0.0677
14006TIP3    H163433   3.384   2.333  12.954  2.7652 -1.5148 -0.9285
14006TIP3    H263434   3.377   2.387  12.813  0.7620  0.0406 -0.2927
14007TIP3   OH263435   3.997   4.513  15.633  0.1515 -0.5480 -0.0599
14007TIP3    H163436   4.085   4.534  15.664 -0.5834  1.1549  1.0796
14007TIP3    H263437   3.982   4.573  15.560 -0.1140 -0.7165 -0.1472
14008TIP3   OH263438   3.168   2.118  11.722 -0.1242 -0.3388  0.4161
14008TIP3    H163439   3.230   2.106  11.793 -0.2514 -1.7157  0.3125
14008TIP3    H263440   3.082   2.115  11.764 -0.1563  1.6427  0.5720
14009TIP3   OH263441   0.627   2.620  14.117  0.3677  0.4139  0.3272
14009TIP3    H163442   0.718   2.631  14.088  0.2342 -0.7758 -0.6130
14009TIP3    H263443   0.596   2.544  14.069 -1.7275  1.9043 -0.8437
14010TIP3   OH263444   3.986   0.075   5.872  0.4711  0.5319  0.6869
14010TIP3    H163445   3.893   0.057   5.859  0.9067 -0.8822 -0.9125
14010TIP3    H263446   4.025  -0.012   5.886  1.5869  1.0786  1.0615
14011TIP3   OH263447   3.508   0.780   2.664  0.2415 -0.1270 -0.3323
14011TIP3    H163448   3.529   0.724   2.589 -1.4662  1.5724 -2.2129
14011TIP3    H263449   3.514   0.722   2.740  0.4413 -2.3368 -1.9330
14012TIP3   OH263450   4.352   3.332  17.079  0.5398 -0.5438 -0.0594
14012TIP3    H163451   4.270   3.287  17.099  0.6730 -0.8133 -0.1095
14012TIP3    H263452   4.330   3.425  17.078  0.8479 -0.3388  3.0920
14013TIP3   OH263453   1.023   4.324   2.577  0.3604 -0.2694 -0.1877
14013TIP3    H163454   0.953   4.265   2.549 -0.5585  0.7090 -0.0519
14013TIP3    H263455   1.090   4.267   2.614 -0.9795 -1.1716  0.9664
14014TIP3   OH263456   3.721   3.711  15.783 -0.2317 -0.2733 -0.4325
14014TIP3    H163457   3.745   3.618  15.787  1.9691  0.2520 -0.1118
14014TIP3    H263458   3.800   3.755  15.753 -2.1646  1.2121 -3.9885
14015TIP3   OH263459   0.713   5.035   2.551 -0.3207 -0.2520  0.2472
14015TIP3    H163460   0.641   5.032   2.614 -1.7016 -1.9355 -1.3231
14015TIP3    H263461   0.678   4.996   2.471  2.0085 -0.1137 -0.9433
14016TIP3   OH263462   6.233   5.991  16.628 -0.4432  0.0240 -0.1367
14016TIP3    H163463   6.171   6.063  16.625 -0.7243 -0.1944  0.3419
14016TIP3    H263464   6.223   5.947  16.543 -1.6548 -0.5925  0.3063
14017TIP3   OH263465   0.391   0.908   4.182 -0.4641  0.0727  0.1748
14017TIP3    H163466   0.420   0.956   4.105 -0.3581 -1.1459 -0.5783
14017TIP3    H263467   0.471   0.878   4.224 -0.5364  0.0525  0.2988
14018TIP3   OH263468   2.002   5.774   1.086 -0.1716 -0.2997  0.5281
14018TIP3    H163469   1.963   5.859   1.109 -0.8451 -0.8635  1.5657
14018TIP3    H263470   2.091   5.778   1.122 -0.2375 -0.0794  0.6694
14019TIP3   OH263471   5.960   4.496  14.000 -0.5357 -0.2316  0.2314
14019TIP3    H163472   5.868   4.520  13.995 -0.3538  0.6626  0.9106
14019TIP3    H263473   6.006   4.567  13.955 -0.2707 -1.5496 -1.7090
14020TIP3   OH263474   2.087   0.580  12.037 -0.4507  0.5034 -0.1926
14020TIP3    H163475   2.062   0.591  11.946  0.4424  1.5315 -0.3326
14020TIP3    H263476   2.180   0.601  12.040 -0.4919  0.6051  0.9701
14021TIP3   OH263477   5.307   1.984   0.938  0.2004  0.3486 -0.8168
14021TIP3    H163478   5.236   1.933   0.900  0.5587  0.0445 -1.0750
14021TIP3    H263479   5.348   2.028   0.863  0.5398  0.2054 -0.7168
14022TIP3   OH263480   2.794   4.347  14.645 -0.3188  0.1288  0.3833
14022TIP3    H163481   2.886   4.365  14.664  0.1758  0.2224 -1.8788
14022TIP3    H263482   2.789   4.251  14.636 -0.6638  0.0340  1.4083
14023TIP3   OH263483   1.892   3.788   1.482 -0.1056  0.2849  0.2714
14023TIP3    H163484   1.801   3.779   1.510  0.0211  0.9418  0.9361
14023TIP3    H263485   1.888   3.851   1.409 -0.1798  0.3895  0.3642
14024TIP3   OH263486   2.946   2.395   0.858 -0.6185  0.3858  0.5315
14024TIP3    H163487   3.030   2.363   0.826 -0.0671  2.4674 -0.2881
14024TIP3    H263488   2.952   2.390   0.953  0.8030  1.2902  0.5136
14025TIP3   OH263489   6.191   5.786   0.845 -0.2808 -0.0928 -0.2565
14025TIP3    H163490   6.202   5.770   0.939 -2.7095  0.5339  0.1926
14025TIP3    H263491   6.237   5.713   0.804  0.8553 -0.3778  1.3966
14026TIP3   OH263492   0.180   2.896   3.854  0.2295  0.9728  0.4630
14026TIP3    H163493   0.093   2.921   3.823 -0.0447 -1.0629 -0.6136
14026TIP3    H263494   0.168   2.876   3.947 -0.6594 -0.0271  0.1514
14027TIP3   OH263495   3.167   1.436  16.239 -0.1177  0.0471  0.1704
14027TIP3    H163496   3.198   1.351  16.270 -0.2637 -0.2562 -0.4937
14027TIP3    H263497   3.247   1.489  16.232 -0.0543  0.0351  0.7993
14028TIP3   OH263498   3.822   6.488  11.786 -0.2804 -0.7333 -0.4841
14028TIP3    H163499   3.793   6.555  11.724 -0.3602 -1.0674 -0.8098
14028TIP3    H263500   3.908   6.462  11.755 -0.9255 -1.9584 -1.3312
14029TIP3   OH263501   3.416   3.278   2.862 -0.5101  0.5999 -0.0472
14029TIP3    H163502   3.506   3.311   2.856 -0.4023  0.4937  0.8459
14029TIP3    H263503   3.387   3.270   2.771  0.8318 -0.6130 -0.3938
14030TIP3   OH263504   0.592   3.698  12.415 -0.6664 -0.2831  0.3339
14030TIP3    H163505   0.522   3.658  12.468 -0.1143 -1.5118  0.1665
14030TIP3    H263506   0.594   3.645  12.335 -0.3645  0.5248 -0.2007
14031TIP3   OH263507   0.730   0.962  17.142 -0.9285 -0.1341 -0.5205
14031TIP3    H163508   0.720   1.009  17.225  0.3767 -0.5552 -0.0995
14031TIP3    H263509   0.707   1.026  17.075 -0.5206  0.6877  0.1011
14032TIP3   OH263510   3.688   1.668   1.805 -0.0702  0.2252  0.1577
14032TIP3    H163511   3.764   1.695   1.752 -0.4783 -0.2038 -0.6562
14032TIP3    H263512   3.708   1.578   1.830 -0.6760 -0.1717 -0.7493
14033TIP3   OH263513   3.765   4.647  11.362 -0.2467 -0.0482 -0.1906
14033TIP3    H163514   3.705   4.648  11.287 -1.4461  0.9106  0.7411
14033TIP3    H263515   3.771   4.555  11.386 -0.3078 -0.2994 -1.1053
14034TIP3   OH263516   6.396   3.380   2.270 -0.5220 -0.3261  0.5820
14034TIP3    H163517   6.334   3.348   2.335 -1.5307 -0.4640 -0.4243
14034TIP3    H263518   6.360   3.352   2.186 -1.5191  3.3429 -0.4200
14035TIP3   OH263519   6.734   2.594   2.557 -0.0883  1.2614  0.1939
14035TIP3    H163520   6.653   2.638   2.582 -1.3543 -1.0372  0.4811
14035TIP3    H263521   6.710   2.543   2.480  0.5142 -0.9071  1.3537
14036TIP3   OH263522   3.287   3.721   5.269 -0.3334 -0.2456 -0.3127
14036TIP3    H163523   3.333   3.711   5.353  0.4675  1.3404 -0.5070
14036TIP3    H263524   3.334   3.792   5.225 -2.2505  0.6477 -1.0437
14037TIP3   OH263525   1.500   1.020  11.869 -0.2357 -0.1173  0.5163
14037TIP3    H163526   1.588   0.998  11.839 -0.0311 -0.9258  1.6403
14037TIP3    H263527   1.462   0.936  11.894 -1.4128  0.2002 -0.1427
14038TIP3   OH263528   2.486   2.212  16.593 -0.7086  0.2189  0.1037
14038TIP3    H163529   2.420   2.248  16.652 -0.5631 -1.2659  1.2223
14038TIP3    H263530   2.436   2.158  16.532 -0.9598  2.3534 -1.7478
14039TIP3   OH263531   5.793   2.769  10.233  0.1355  0.4975  0.3929
14039TIP3    H163532   5.864   2.831  10.251  0.3068  0.6200 -0.6191
14039TIP3    H263533   5.827   2.684  10.260  1.8882  0.0428 -2.7237
14040TIP3   OH263534   1.023   0.801   4.289  0.3487 -0.3787 -0.8522
14040TIP3    H163535   1.095   0.838   4.238  0.5226  1.6104  0.7028
14040TIP3    H263536   0.992   0.874   4.343 -0.9656 -1.9173  0.5848
14041TIP3   OH263537   2.229   1.948  12.661 -0.1237  0.4986 -0.4723
14041TIP3    H163538   2.157   1.926  12.720 -0.4980 -0.3025 -1.2089
14041TIP3    H263539   2.207   2.034  12.627 -0.7995  0.2105 -0.7752
14042TIP3   OH263540   3.474   4.535  11.470  0.0345  0.4372  0.0172
14042TIP3    H163541   3.417   4.474  11.423  0.5122 -0.0645  0.0807
14042TIP3    H263542   3.486   4.495  11.556  1.2164  0.0875 -0.3059
14043TIP3   OH263543   3.240   4.374   0.246 -0.2218  0.2915 -0.4971
14043TIP3    H163544   3.277   4.301   0.195  1.2025  0.0847  0.7399
14043TIP3    H263545   3.315   4.408   0.295 -1.0635  2.0124 -0.3534
14044TIP3   OH263546   3.791   6.452  17.122 -0.2551  0.1287 -0.1220
14044TIP3    H163547   3.820   6.388  17.057 -0.7390 -0.3327  0.1076
14044TIP3    H263548   3.857   6.521  17.120  0.0221 -0.1522 -0.7079
14045TIP3   OH263549   4.778   6.630   0.007 -0.0409 -0.1874  0.7377
14045TIP3    H163550   4.788   6.659  -0.084  1.2067  2.3224  1.5838
14045TIP3    H263551   4.832   6.551   0.012 -1.7001 -1.5556 -1.1134
14046TIP3   OH263552   3.658   5.989   2.043  0.1747  0.8471 -0.1211
14046TIP3    H163553   3.642   6.013   2.135  1.5795  1.4266 -0.0054
14046TIP3    H263554   3.602   6.047   1.993 -0.8126  0.3391  0.3680
14047TIP3   OH263555   0.174   4.153  13.018  0.5274 -0.1172  0.3583
14047TIP3    H163556   0.189   4.221  12.952  0.9941 -0.4610  0.1119
14047TIP3    H263557   0.099   4.186  13.068  1.4157  1.1020  0.9338
14048TIP3   OH263558   1.878   0.615   2.193 -0.5287 -0.0743  0.3182
14048TIP3    H163559   1.873   0.698   2.241 -1.9269 -1.0653  2.0012
14048TIP3    H263560   1.795   0.571   2.213  0.7512 -2.5008  0.6565
14049TIP3   OH263561   1.390   0.044   3.855 -0.3232  0.1704 -0.3780
14049TIP3    H163562   1.295   0.040   3.839 -0.4864  0.0021  0.6054
14049TIP3    H263563   1.412   0.137   3.849 -0.6840  0.2916  0.1128
14050TIP3   OH263564   6.497   0.184  12.335 -0.5294  0.4083 -0.2372
14050TIP3    H163565   6.428   0.218  12.279 -0.9571  0.7352  0.4763
14050TIP3    H263566   6.537   0.262  12.373  0.3066  0.2285 -0.7169
14051TIP3   OH263567   1.984   3.055  16.645  0.6444 -0.4621  0.1091
14051TIP3    H163568   1.901   3.073  16.602 -0.0790 -1.2719  1.1042
14051TIP3    H263569   1.959   3.015  16.729  2.0519 -1.6686 -0.0047
14052TIP3   OH263570   5.772   3.897  14.056  0.3547 -0.5184  0.4321
14052TIP3    H163571   5.837   3.920  14.122 -0.4991  1.5697  0.6153
14052TIP3    H263572   5.695   3.870  14.107 -0.2688  0.9939  0.3481
14053TIP3   OH263573   4.320   0.535  10.976  0.5728 -0.0348  0.2059
14053TIP3    H163574   4.248   0.584  10.938  1.1032  2.3662  2.0533
14053TIP3    H263575   4.279   0.454  11.007 -0.3248 -0.9099 -2.9031
14054TIP3   OH263576   5.334   1.390  16.892 -0.0627  0.0846 -0.1638
14054TIP3    H163577   5.297   1.366  16.977  1.0593  0.5300  0.4774
14054TIP3    H263578   5.260   1.424  16.842 -0.7986 -0.4941  0.5123
14055TIP3   OH263579   6.135   5.825  13.674  0.0857 -0.0604  0.2075
14055TIP3    H163580   6.126   5.748  13.617  0.9032  0.0140 -0.0259
14055TIP3    H263581   6.053   5.873  13.661 -0.2761 -0.6979  0.0727
14056TIP3   OH263582   2.064   2.910   2.804 -0.0564 -0.3449  0.0771
14056TIP3    H163583   2.003   2.888   2.875 -0.2103 -1.7290 -0.4520
14056TIP3    H263584   2.143   2.860   2.825 -0.9230 -2.7601 -1.9416
14057TIP3   OH263585   5.030   5.266  12.159 -0.4426 -0.1927 -0.0876
14057TIP3    H163586   5.108   5.317  12.181  0.6716 -1.3478 -1.1814
14057TIP3    H263587   5.024   5.273  12.064 -3.1025  1.8268  0.1234
14058TIP3   OH263588   0.112   5.641  11.276  0.0834  0.7271  0.3428
14058TIP3    H163589   0.163   5.721  11.287  0.7174  0.4707 -0.5829
14058TIP3    H263590   0.097   5.635  11.182 -2.4347  1.2458  0.6549
14059TIP3   OH263591   4.723   2.314  11.791  0.1283 -0.6497  0.3138
14059TIP3    H163592   4.700   2.375  11.862 -1.7453 -1.8154  0.7780
14059TIP3    H263593   4.726   2.369  11.713 -0.1145  0.2632  0.9193
14060TIP3   OH263594   3.052   3.336  12.917  0.1466  0.0452 -0.1994
14060TIP3    H163595   3.057   3.405  12.851 -0.8447  1.7308  1.3965
14060TIP3    H263596   2.959   3.318  12.926  0.2800 -0.2766  0.6295
14061TIP3   OH263597   3.831   2.000   2.485 -0.0300  0.2729 -0.2342
14061TIP3    H163598   3.917   1.959   2.499 -1.7530 -3.0664  2.0302
14061TIP3    H263599   3.816   1.993   2.391  0.5444 -2.9880 -0.1993
14062TIP3   OH263600   5.989   6.301  15.897 -0.0829 -0.4109  0.1801
14062TIP3    H163601   6.058   6.258  15.948 -0.5053 -0.3161  0.8413
14062TIP3    H263602   5.930   6.230  15.872 -0.7066 -0.2486  1.1542
14063TIP3   OH263603   4.173   4.990   4.480  0.0959  0.4210  0.0667
14063TIP3    H163604   4.232   4.928   4.524 -0.1791  0.0089 -0.1318
14063TIP3    H263605   4.121   4.935   4.421 -0.0461  0.8676 -0.2301
14064TIP3   OH263606   0.462   2.998  13.222  0.7315 -0.1680  0.2103
14064TIP3    H163607   0.417   3.081  13.238  0.7207 -0.0575 -0.3714
14064TIP3    H263608   0.487   2.967  13.309 -1.3081 -0.7055  0.6450
14065TIP3   OH263609   5.474   6.154   3.561  0.2096  0.1251  0.9911
14065TIP3    H163610   5.474   6.219   3.632  0.7593  0.1512  0.9780
14065TIP3    H263611   5.403   6.180   3.503  1.1533  1.4166  0.3660
14066TIP3   OH263612   2.952   4.782   5.400  0.2992 -0.2520  0.0370
14066TIP3    H163613   3.032   4.834   5.411  0.5961 -0.4445 -1.0795
14066TIP3    H263614   2.923   4.801   5.311  0.1596 -1.6362 -0.2360
14067TIP3   OH263615   0.886   1.157  12.450 -0.1311 -0.3031  0.0802
14067TIP3    H163616   0.816   1.182  12.389  0.0969 -0.9116 -0.4419
14067TIP3    H263617   0.966   1.166  12.398  0.1977  0.4806  0.7044
14068TIP3   OH263618   0.652   4.710  13.552 -0.0580  0.8812 -0.3508
14068TIP3    H163619   0.556   4.713  13.556 -0.1413 -1.0398  0.0300
14068TIP3    H263620   0.680   4.739  13.639 -0.5023 -2.6290  1.1002
14069TIP3   OH263621   2.667   0.762   6.091  0.2618  0.1312  0.2633
14069TIP3    H163622   2.606   0.715   6.148 -0.4164 -1.3571 -1.5880
14069TIP3    H263623   2.749   0.764   6.140 -0.7280  0.4564  1.9931
14070TIP3   OH263624   3.849   3.893  16.121  0.7369  0.1137  0.3118
14070TIP3    H163625   3.764   3.850  16.117  1.5443 -1.6529  1.3252
14070TIP3    H263626   3.907   3.829  16.162  2.7127  1.0463 -0.8822
14071TIP3   OH263627   2.724   6.428   5.177  0.7529  0.5363  0.6183
14071TIP3    H163628   2.732   6.498   5.242 -0.4824  1.4938 -0.2059
14071TIP3    H263629   2.716   6.474   5.094  0.2584 -0.6096  0.0112
14072TIP3   OH263630   5.755   6.424  11.096  0.2691 -0.2846 -0.7906
14072TIP3    H163631   5.812   6.398  11.023  1.3406  0.7076 -0.3193
14072TIP3    H263632   5.721   6.510  11.071  3.4299  1.7871  1.3326
14073TIP3   OH263633   0.775   4.378   3.930 -0.7087 -0.3849  0.2266
14073TIP3    H163634   0.691   4.423   3.918 -1.0191 -1.3588 -1.6994
14073TIP3    H263635   0.841   4.446   3.920 -1.2391  0.1270  0.1880
14074TIP3   OH263636   1.426   0.692  15.463 -0.1798 -0.7267  0.0949
14074TIP3    H163637   1.369   0.729  15.395 -0.7200 -1.2422  0.2524
14074TIP3    H263638   1.366   0.668  15.534  0.0922 -2.2215 -0.1425
14075TIP3   OH263639   2.753   1.698   2.327 -0.1613  0.8345 -0.0625
14075TIP3    H163640   2.688   1.685   2.258 -1.1358 -1.0305  1.1140
14075TIP3    H263641   2.709   1.668   2.407  1.9764 -0.0389  0.8665
14076TIP3   OH263642   3.403   3.433   3.639 -0.0418 -0.0576  0.2951
14076TIP3    H163643   3.370   3.523   3.650  0.5356  0.2959 -0.7514
14076TIP3    H263644   3.344   3.393   3.575  0.8524  0.2233 -0.7391
14077TIP3   OH263645   0.686   6.191   1.625 -1.1767 -0.4443  0.5652
14077TIP3    H163646   0.751   6.205   1.555 -1.0530  0.3463  0.8232
14077TIP3    H263647   0.631   6.120   1.593  0.4080 -1.8404  0.7627
14078TIP3   OH263648   5.575   5.093  13.118 -0.3213  0.5028  0.0112
14078TIP3    H163649   5.543   5.170  13.167  0.0230  1.5125 -1.3024
14078TIP3    H263650   5.663   5.117  13.092 -0.3452 -0.2024 -0.7268
14079TIP3   OH263651   5.104   1.528  11.546 -0.2804  0.3058  0.6011
14079TIP3    H163652   5.042   1.495  11.611 -1.5695  2.6079  0.6475
14079TIP3    H263653   5.147   1.602  11.590  0.4333  0.5056 -0.4086
14080TIP3   OH263654   5.257   1.331   1.563  0.2242 -0.5172  0.0469
14080TIP3    H163655   5.234   1.311   1.653 -1.7601 -0.1163 -0.3274
14080TIP3    H263656   5.276   1.424   1.562 -1.5278 -0.1245 -0.2303
14081TIP3   OH263657   0.683   5.187   0.230  0.0412  0.1210 -0.6967
14081TIP3    H163658   0.643   5.138   0.302  1.0365  0.2646 -0.0199
14081TIP3    H263659   0.671   5.278   0.254 -1.5652  0.2501 -1.8218
14082TIP3   OH263660   0.636   2.031  15.805 -1.0534  0.8030 -0.1839
14082TIP3    H163661   0.723   2.052  15.770  0.0142 -1.6055  0.8199
14082TIP3    H263662   0.591   1.988  15.732  0.0440 -1.4096  0.3715
14083TIP3   OH263663   0.479   5.380  14.785  0.6080  0.1883  0.0051
14083TIP3    H163664   0.564   5.381  14.828 -0.3783  2.4244  2.2487
14083TIP3    H263665   0.424   5.328  14.843  0.1125  0.0189 -0.6101
14084TIP3   OH263666   4.978   0.295  10.910  0.1671 -0.3916 -0.6307
14084TIP3    H163667   4.957   0.337  10.826  1.4930 -0.4954 -1.0256
14084TIP3    H263668   4.952   0.204  10.899 -1.9923  0.0892 -0.0391
14085TIP3   OH263669   1.766   0.499  15.000  0.0859  0.0763 -0.3725
14085TIP3    H163670   1.744   0.543  14.918 -1.5777  0.1447  0.0719
14085TIP3    H263671   1.762   0.569  15.066  2.4876  0.2503 -0.3339
14086TIP3   OH263672   3.215   6.202   6.675 -0.3517  0.5025  0.1252
14086TIP3    H163673   3.193   6.151   6.598  2.2882 -0.7452  0.1090
14086TIP3    H263674   3.147   6.181   6.738 -2.7306  1.7518 -1.8425
14087TIP3   OH263675   6.551   3.360  16.940 -0.0556 -0.2310  0.3857
14087TIP3    H163676   6.643   3.335  16.946  0.0037 -0.1947 -0.3708
14087TIP3    H263677   6.527   3.344  16.849 -0.0988  2.1996 -0.0966
14088TIP3   OH263678   0.711   2.477  16.218 -0.4767 -0.2077  0.3823
14088TIP3    H163679   0.704   2.550  16.280 -1.3909 -0.4295  0.5566
14088TIP3    H263680   0.792   2.494  16.171 -1.4793  1.8574 -0.7664
14089TIP3   OH263681   2.552   1.030  15.130  0.2040  0.3796  0.1796
14089TIP3    H163682   2.593   0.945  15.148  0.5941  0.2397 -1.2085
14089TIP3    H263683   2.589   1.088  15.196 -0.7177 -0.6880  1.6969
14090TIP3   OH263684   1.722   6.418   5.401  0.0887 -0.2775  0.1081
14090TIP3    H163685   1.785   6.444   5.468 -0.2217  0.0504  0.2745
14090TIP3    H263686   1.731   6.323   5.395  1.5685 -0.1230 -0.8305
14091TIP3   OH263687   1.264   4.272  13.002  0.0529  0.2630  0.7006
14091TIP3    H163688   1.171   4.293  13.010  0.0507  0.1535  0.9554
14091TIP3    H263689   1.287   4.231  13.085  0.0762 -0.6890  0.2392
14092TIP3   OH263690   4.764   5.914   5.833  0.5211 -0.6922  0.4097
14092TIP3    H163691   4.829   5.909   5.763  0.0460 -0.5591 -0.0423
14092TIP3    H263692   4.804   5.865   5.905  0.6612 -1.5616 -0.2359
14093TIP3   OH263693   3.980   0.733  12.215  0.2435 -1.0949 -0.0182
14093TIP3    H163694   3.928   0.811  12.196  1.6185 -0.1279  0.0470
14093TIP3    H263695   3.922   0.660  12.192 -1.4772 -0.1089  0.9551
14094TIP3   OH263696   6.776   6.433  11.959 -0.4742  0.1721 -0.1699
14094TIP3    H163697   6.747   6.363  11.899  0.7998  0.7097 -1.4583
14094TIP3    H263698   6.783   6.510  11.903  1.0294  0.6247  0.6215
14095TIP3   OH263699   2.554   0.652   2.103  0.3103 -0.4148 -0.9103
14095TIP3    H163700   2.501   0.702   2.040 -0.4897  0.7692  0.6025
14095TIP3    H263701   2.643   0.658   2.070 -0.0514  0.4404 -1.7887
14096TIP3   OH263702   4.247   2.705   5.750 -0.2927 -0.6607  0.0830
14096TIP3    H163703   4.202   2.785   5.776 -1.3701 -0.9606 -0.7883
14096TIP3    H263704   4.300   2.730   5.674  0.5667 -0.4549  0.7243
14097TIP3   OH263705   5.660   0.128   5.001  0.0442 -0.4198  0.1406
14097TIP3    H163706   5.654   0.078   4.919 -0.2502 -4.7008  2.4553
14097TIP3    H263707   5.609   0.207   4.985 -1.9371 -2.1342 -3.1264
14098TIP3   OH263708   4.642   0.100   1.741 -0.0645 -0.2310  0.2847
14098TIP3    H163709   4.605   0.135   1.660 -0.8798 -3.0727 -0.7014
14098TIP3    H263710   4.599   0.015   1.751  1.9369 -1.0800  2.3225
14099TIP3   OH263711   0.462   4.715   4.889 -0.3319  0.7620 -0.3689
14099TIP3    H163712   0.533   4.779   4.875 -0.3346  0.8317 -0.0635
14099TIP3    H263713   0.454   4.670   4.805  1.7518 -0.9534  0.2680
14100TIP3   OH263714   0.167   3.897  16.639  0.5439 -0.1415  0.4239
14100TIP3    H163715   0.144   3.989  16.623 -0.6840 -0.2882  1.2393
14100TIP3    H263716   0.242   3.881  16.581 -1.2109  0.4592 -2.1576
14101TIP3   OH263717   4.411   3.539   2.039 -0.0805  0.1653  0.3992
14101TIP3    H163718   4.344   3.535   2.107  0.6181 -1.9037  1.0427
14101TIP3    H263719   4.454   3.623   2.051 -0.5559  0.2056  1.9556
14102TIP3   OH263720   5.368   0.964  16.161 -0.1691  0.2199  0.3242
14102TIP3    H163721   5.365   1.027  16.089  1.7432  0.2410  0.2068
14102TIP3    H263722   5.309   1.001  16.227 -0.2265  1.3680 -0.3318
14103TIP3   OH263723   2.821   1.985   2.203  0.5882  0.0165 -0.2625
14103TIP3    H163724   2.823   2.029   2.288  0.1929 -1.4047  0.5190
14103TIP3    H263725   2.888   1.917   2.210  0.7960  0.1023 -1.2297
14104TIP3   OH263726   2.724   6.526  13.241  0.1789 -0.3773 -0.0630
14104TIP3    H163727   2.752   6.536  13.150  3.3966 -2.5433  0.5215
14104TIP3    H263728   2.652   6.463  13.237  1.0194 -1.3306 -1.1096
14105TIP3   OH263729   6.215   2.239   0.992 -0.5141 -0.3799 -0.1565
14105TIP3    H163730   6.303   2.210   0.967  0.1768  0.9166  0.6639
14105TIP3    H263731   6.191   2.183   1.066  0.7460  0.9348  1.3217
14106TIP3   OH263732   4.710   0.379   4.498  0.4090 -0.3961  0.0458
14106TIP3    H163733   4.731   0.416   4.584  0.7735 -2.7394  1.0220
14106TIP3    H263734   4.637   0.320   4.514  0.9380 -1.4113 -1.1048
14107TIP3   OH263735   1.949   3.031   1.222 -0.3700 -0.5109  0.0699
14107TIP3    H163736   1.915   2.981   1.148  0.0351 -2.1642  0.9704
14107TIP3    H263737   2.026   2.983   1.251  0.3957  0.9739  0.6108
14108TIP3   OH263738   6.463   5.627  14.938 -0.1819 -0.1980  0.2695
14108TIP3    H163739   6.444   5.677  15.018  0.6129 -1.1168  1.0652
14108TIP3    H263740   6.378   5.618  14.895 -0.2844  2.2025 -0.1490
14109TIP3   OH263741   6.547   1.671   1.184  0.3500 -0.3690 -0.0113
14109TIP3    H163742   6.516   1.707   1.267 -1.3471 -0.3710 -0.6121
14109TIP3    H263743   6.623   1.724   1.162 -3.1387  4.6018 -1.9614
14110TIP3   OH263744   1.614   5.798   5.198 -0.0493 -0.8212  0.5639
14110TIP3    H163745   1.576   5.885   5.215 -0.2940 -0.4778 -1.5010
14110TIP3    H263746   1.544   5.750   5.154  0.3554 -1.8306  0.9951
14111TIP3   OH263747   3.566   0.249  13.124  0.3124  0.9082  0.5277
14111TIP3    H163748   3.607   0.336  13.126 -0.7709  1.4243  1.3206
14111TIP3    H263749   3.627   0.195  13.074  2.0010  1.6362  1.6786
14112TIP3   OH263750   3.490   1.013   0.058  0.8020  0.3097 -0.2937
14112TIP3    H163751   3.441   0.932   0.073 -0.3882  1.3598  1.9842
14112TIP3    H263752   3.563   1.010   0.120  0.2340  1.3353  0.4626
14113TIP3   OH263753   6.118   2.625   0.994  0.1038 -0.1144 -0.1860
14113TIP3    H163754   6.144   2.636   0.902  1.2639  0.1400  0.1523
14113TIP3    H263755   6.039   2.678   1.003 -0.3672 -0.6211 -1.1789
14114TIP3   OH263756   5.102   2.662  10.949  0.3154  0.0858  0.2920
14114TIP3    H163757   5.179   2.713  10.927 -0.1558  0.8268  0.3232
14114TIP3    H263758   5.031   2.727  10.956 -0.0995 -0.4533  1.2724
14115TIP3   OH263759   1.832   5.577  16.086  0.2900 -0.3660 -0.7168
14115TIP3    H163760   1.920   5.554  16.116 -0.4072 -1.3495  0.6631
14115TIP3    H263761   1.784   5.597  16.166 -0.9823 -0.6633 -1.3789
14116TIP3   OH263762   3.055   0.005   4.113  0.3184  0.0143 -0.5786
14116TIP3    H163763   3.137   0.031   4.155  0.4138  0.0745 -0.7994
14116TIP3    H263764   2.988   0.017   4.180  0.2794  1.3152 -0.8258
14117TIP3   OH263765   0.939   5.246   1.504  0.5578 -0.0388  0.5372
14117TIP3    H163766   0.901   5.308   1.567  2.0692 -0.0697  1.5120
14117TIP3    H263767   1.014   5.292   1.466  1.5690 -1.1714  1.1072
14118TIP3   OH263768   4.346   6.668   3.854  0.2193  0.1631  0.6987
14118TIP3    H163769   4.337   6.619   3.773  0.8987  1.1274  0.0278
14118TIP3    H263770   4.427   6.718   3.844 -0.8276  2.0309  1.0015
14119TIP3   OH263771   3.347   6.370   0.141  0.3388 -0.3948  0.0447
14119TIP3    H163772   3.368   6.449   0.191 -1.1608 -0.2216  0.4277
14119TIP3    H263773   3.402   6.377   0.063 -0.2732  1.4126 -0.2931
14120TIP3   OH263774   4.791   4.992  13.009 -0.1388 -0.1155  0.7335
14120TIP3    H163775   4.730   4.921  12.992  1.4493 -1.5454  0.7651
14120TIP3    H263776   4.829   4.972  13.094  1.2442  0.0718  0.1900
14121TIP3   OH263777   5.205   2.295   4.801 -0.5523 -0.1709  0.0494
14121TIP3    H163778   5.289   2.282   4.844 -0.4746  1.2162  0.3773
14121TIP3    H263779   5.158   2.213   4.814  1.2426 -1.4841 -1.3377
14122TIP3   OH263780   3.299   4.682  15.632 -0.0774 -0.1195 -1.1186
14122TIP3    H163781   3.260   4.622  15.695 -0.4672 -1.1586 -2.3184
14122TIP3    H263782   3.348   4.745  15.686 -0.4105 -0.9638  0.2067
14123TIP3   OH263783   4.987   3.993   3.000 -0.2765 -0.3670  0.1948
14123TIP3    H163784   5.019   3.906   2.975  1.1893  0.1986 -0.0287
14123TIP3    H263785   4.996   3.997   3.095  1.5316  0.2016  0.0339
14124TIP3   OH263786   6.681   6.699   2.579 -0.1732  0.2248  0.5861
14124TIP3    H163787   6.712   6.780   2.538  1.2716 -0.4941  0.2006
14124TIP3    H263788   6.758   6.643   2.582 -1.3816 -1.5495 -0.1369
14125TIP3   OH263789   5.310   2.512  10.065  0.1880  0.3440 -0.2400
14125TIP3    H163790   5.284   2.592  10.112  1.0198  0.6741 -0.3410
14125TIP3    H263791   5.402   2.500  10.086  0.4003  0.1147 -1.2497
14126TIP3   OH263792   0.847   0.926   4.458  0.6544  0.4240 -0.5972
14126TIP3    H163793   0.821   1.007   4.501  0.1099  0.3162 -0.7089
14126TIP3    H263794   0.873   0.868   4.530 -1.8415 -0.3405 -0.1761
14127TIP3   OH263795   4.034   6.732  16.136 -0.2787 -0.1001 -0.3105
14127TIP3    H163796   4.026   6.637  16.123  0.8401 -0.3258  0.5266
14127TIP3    H263797   4.119   6.743  16.179 -0.3417  1.2992 -0.5158
14128TIP3   OH263798   2.777   4.397  14.123  0.2520  0.1407  0.8284
14128TIP3    H163799   2.776   4.305  14.100  1.0176  0.0899  0.9588
14128TIP3    H263800   2.714   4.438  14.064 -1.9714 -0.8245  2.4143
14129TIP3   OH263801   2.414   6.265  15.355 -0.4249 -0.0017 -0.8284
14129TIP3    H163802   2.410   6.357  15.379  2.2389 -0.1084  0.2826
14129TIP3    H263803   2.322   6.237  15.355 -1.2974  2.5990 -1.1772
14130TIP3   OH263804   1.322   4.036   3.394  0.0157 -0.0575  0.1962
14130TIP3    H163805   1.323   3.961   3.334 -1.1780 -0.1103  0.2218
14130TIP3    H263806   1.262   4.098   3.354 -0.4724  0.0860  1.1227
14131TIP3   OH263807   6.282   4.309  12.673 -0.0422  0.1341  0.3221
14131TIP3    H163808   6.301   4.275  12.586 -0.7685 -0.8603  0.5299
14131TIP3    H263809   6.248   4.233  12.721 -0.9863  0.9834  1.0358
14132TIP3   OH263810   1.263   3.420   4.876 -0.2660  0.0866 -0.1554
14132TIP3    H163811   1.286   3.340   4.925  1.1042 -0.3000 -1.3654
14132TIP3    H263812   1.305   3.408   4.791  1.8420  3.0581  0.3378
14133TIP3   OH263813   1.258   6.547  16.291  0.3905  0.5321  0.1397
14133TIP3    H163814   1.334   6.600  16.269  0.5793  0.9471  1.6494
14133TIP3    H263815   1.206   6.544  16.211  1.2896  1.4432 -0.4950
14134TIP3   OH263816   4.300   6.166   6.549  0.5742 -0.1757 -0.2409
14134TIP3    H163817   4.259   6.213   6.622  0.5961 -1.5093  0.6867
14134TIP3    H263818   4.365   6.226   6.514 -0.6732  1.1814 -0.3486
14135TIP3   OH263819   3.903   1.716  15.443  0.1045 -0.2391 -0.9752
14135TIP3    H163820   3.993   1.739  15.423  0.8006 -0.3284  1.6772
14135TIP3    H263821   3.880   1.771  15.518 -2.5756  0.8171 -2.4151
14136TIP3   OH263822   0.858   4.050   3.609 -0.2780  0.0179 -0.1397
14136TIP3    H163823   0.936   3.995   3.612  0.5186  1.1336  1.6075
14136TIP3    H263824   0.786   3.991   3.628 -0.0383 -1.2067 -2.6385
14137TIP3   OH263825   2.551   1.922   6.388 -0.1227  0.5431 -0.1418
14137TIP3    H163826   2.539   1.830   6.362  0.2894  0.5424 -0.3349
14137TIP3    H263827   2.614   1.957   6.325 -0.6445  1.0961 -0.3670
14138TIP3   OH263828   5.356   2.659   5.567 -0.1017  0.1838  0.2012
14138TIP3    H163829   5.437   2.611   5.587 -0.3826  0.0753  1.1125
14138TIP3    H263830   5.287   2.610   5.611 -0.9194 -0.6275 -1.8500
14139TIP3   OH263831   0.546   1.303   0.471 -0.4920 -0.1904  0.4765
14139TIP3    H163832   0.619   1.356   0.505  2.7039 -4.3187  0.7733
14139TIP3    H263833   0.557   1.218   0.513 -4.2930 -1.7176 -1.2073
14140TIP3   OH263834   0.689   5.948  16.986 -0.0729  0.4786 -0.2109
14140TIP3    H163835   0.608   5.999  16.990 -1.5102 -1.6915  0.4940
14140TIP3    H263836   0.740   5.978  17.062 -1.2113  0.3619  0.6266
14141TIP3   OH263837   6.660   6.040   5.310 -0.1629  0.1005 -0.0113
14141TIP3    H163838   6.650   6.110   5.374 -0.0219  2.6204 -2.5460
14141TIP3    H263839   6.755   6.031   5.298 -0.1108 -1.6137  1.3135
14142TIP3   OH263840   5.973   3.039   5.217  0.3210  0.7592  0.1381
14142TIP3    H163841   6.017   3.113   5.260  0.1516  0.1668  1.3699
14142TIP3    H263842   6.044   2.989   5.178  0.5657  0.8322  0.4824
14143TIP3   OH263843   1.622   4.581  15.911 -0.7711 -0.3265 -0.1530
14143TIP3    H163844   1.712   4.612  15.925  0.3267 -1.9616 -2.7167
14143TIP3    H263845   1.604   4.527  15.988  1.3343 -1.6743 -0.4992
14144TIP3   OH263846   3.044   4.447  14.494  0.2179  0.0745  0.3561
14144TIP3    H163847   2.986   4.511  14.453  0.0943  0.9480  1.8018
14144TIP3    H263848   3.132   4.478  14.474  0.3990 -2.0837 -3.1599
14145TIP3   OH263849   6.572   2.322   5.386  0.1175  0.0917  0.0560
14145TIP3    H163850   6.567   2.247   5.445  0.2107  0.5852  0.6949
14145TIP3    H263851   6.622   2.290   5.311  1.0682 -0.1861  0.7858
14146TIP3   OH263852   4.476   2.534   6.268  0.5375  0.3943 -0.0874
14146TIP3    H163853   4.516   2.620   6.257 -2.2922  1.7621 -0.4540
14146TIP3    H263854   4.395   2.538   6.217  0.2836 -2.4980 -0.0783
14147TIP3   OH263855   3.040   1.188  10.900  0.4484 -0.5354 -0.2912
14147TIP3    H163856   2.952   1.212  10.929  0.6649  2.5737 -1.7785
14147TIP3    H263857   3.026   1.110  10.846 -1.4117 -0.1837 -0.4016
14148TIP3   OH263858   3.057   5.055   5.414  0.0044 -0.2550 -0.4859
14148TIP3    H163859   3.049   5.106   5.334 -1.1680  1.9534  0.9604
14148TIP3    H263860   3.139   5.085   5.454  0.0128 -0.5207 -0.3001
14149TIP3   OH263861   3.687   3.953  12.635  0.0740  1.0924 -0.5249
14149TIP3    H163862   3.680   3.859  12.649 -1.0946  1.2706  0.2330
14149TIP3    H263863   3.637   3.992  12.707  0.3322  2.2832 -0.9666
14150TIP3   OH263864   3.336   6.143  13.088  0.0092 -0.2317 -0.1582
14150TIP3    H163865   3.367   6.232  13.074 -0.8838  0.4645  1.9548
14150TIP3    H263866   3.396   6.107  13.154 -1.9202  0.2200  1.9588
14151TIP3   OH263867   4.463   5.806  11.854  0.8433 -0.2531  0.0519
14151TIP3    H163868   4.511   5.823  11.934  1.9052 -0.2081 -0.5726
14151TIP3    H263869   4.377   5.775  11.883  0.3439  2.0090  1.2096
14152TIP3   OH263870   5.057   2.804  14.610  0.0759 -0.2052  0.1200
14152TIP3    H163871   5.060   2.744  14.535  1.1468  0.1619 -0.1404
14152TIP3    H263872   5.083   2.889  14.574 -0.0248  0.1163  0.7887
14153TIP3   OH263873   1.919   4.072  13.478 -0.1064 -0.1994  0.0982
14153TIP3    H163874   1.969   3.999  13.515  0.7954 -0.0962 -0.8543
14153TIP3    H263875   1.830   4.040  13.472 -0.7902  0.4157  4.1010
14154TIP3   OH263876   2.334   4.726   6.609  0.1513 -0.5546 -0.0947
14154TIP3    H163877   2.274   4.783   6.657  0.5257 -1.4457  1.4974
14154TIP3    H263878   2.346   4.770   6.525 -0.3889  1.1636  0.6797
14155TIP3   OH263879   5.584   0.110  12.416  0.0809 -0.3252  0.2478
14155TIP3    H163880   5.498   0.145  12.439 -0.2303 -2.0279  1.9280
14155TIP3    H263881   5.628   0.097  12.500  1.5105 -0.6319 -0.5160
14156TIP3   OH263882   3.544   3.325   3.230  0.0871 -0.3765  0.3925
14156TIP3    H163883   3.538   3.352   3.139  1.1042 -2.6802 -0.4264
14156TIP3    H263884   3.506   3.398   3.279 -1.5604  0.4215 -1.9083
14157TIP3   OH263885   2.008   4.149   3.017  0.7649  0.4513 -0.2249
14157TIP3    H163886   1.992   4.059   2.988 -0.9125  0.0344  1.7795
14157TIP3    H263887   2.095   4.146   3.057 -0.2139 -0.9714  2.0218
14158TIP3   OH263888   4.765   1.019   0.958  0.7572 -0.2988 -0.1597
14158TIP3    H163889   4.833   1.018   1.026  1.9137 -0.7038 -1.2719
14158TIP3    H263890   4.812   0.999   0.878 -0.9267 -2.0662 -0.7690
14159TIP3   OH263891   6.421   1.184  15.979  0.0257 -0.1802  0.1955
14159TIP3    H163892   6.515   1.194  15.989  0.1927 -0.9791 -0.5423
14159TIP3    H263893   6.396   1.118  16.043  0.1323 -0.7498 -0.3505
14160TIP3   OH263894   5.921   4.262   4.656  0.3757 -0.1630 -0.0353
14160TIP3    H163895   5.979   4.187   4.669  1.7500  0.6901 -0.9089
14160TIP3    H263896   5.932   4.314   4.735 -0.9662 -1.0924  0.7955
14161TIP3   OH263897   0.805   1.123  11.795  0.1575 -0.3381 -0.4453
14161TIP3    H163898   0.889   1.144  11.834  0.6243 -3.6451  0.6484
14161TIP3    H263899   0.765   1.208  11.775  2.2094  1.3965  2.2417
14162TIP3   OH263900   5.915   5.524   2.058 -0.2308 -0.3166 -0.3500
14162TIP3    H163901   5.911   5.448   1.999  0.3463 -0.4471 -0.2282
14162TIP3    H263902   5.998   5.567   2.036  0.0092 -0.3884  0.3890
14163TIP3   OH263903   0.218   1.949   4.848 -0.1611 -0.2722 -0.2091
14163TIP3    H163904   0.256   1.865   4.821 -0.9717  0.3695 -3.8802
14163TIP3    H263905   0.261   2.014   4.793 -0.6210  1.5841  1.5201
14164TIP3   OH263906   1.615   0.398  11.665 -0.5345 -0.3040  0.2248
14164TIP3    H163907   1.557   0.370  11.736 -0.5035  2.4468  1.4477
14164TIP3    H263908   1.597   0.491  11.654  0.7611 -0.2593 -2.1842
14165TIP3   OH263909   0.470   2.244  14.358  0.3760 -0.3152 -0.2155
14165TIP3    H163910   0.428   2.173  14.310 -0.8373  0.9606 -1.1161
14165TIP3    H263911   0.537   2.278  14.298  1.0122 -0.7303  0.2444
14166TIP3   OH263912   5.072   1.564  11.124 -0.1460  0.0688 -0.4484
14166TIP3    H163913   5.085   1.658  11.112 -1.5556  0.3262 -0.1658
14166TIP3    H263914   5.051   1.532  11.036 -0.9135  0.2605 -0.3474
14167TIP3   OH263915   5.872   5.622  16.617 -0.5851 -0.4441  0.0305
14167TIP3    H163916   5.829   5.599  16.534 -0.2802 -2.8312  0.4603
14167TIP3    H263917   5.956   5.659  16.591 -2.0567  2.6820 -0.7679
14168TIP3   OH263918   2.259   1.659   2.653  0.0308  0.6604 -0.1136
14168TIP3    H163919   2.212   1.583   2.688  1.9613 -0.6520 -0.1477
14168TIP3    H263920   2.337   1.666   2.709  1.3729  0.7342 -1.8756
14169TIP3   OH263921   2.145   2.761  16.481 -0.2845  0.6107  0.5814
14169TIP3    H163922   2.162   2.830  16.546  0.9975  0.7865  0.0894
14169TIP3    H263923   2.231   2.742  16.443 -0.9820  0.4231 -0.9832
14170TIP3   OH263924   4.616   1.478  17.137 -0.6626 -0.2728  0.2301
14170TIP3    H163925   4.615   1.389  17.172 -0.9788 -0.3067  0.1341
14170TIP3    H263926   4.533   1.488  17.091 -1.0991  0.4209  1.1225
14171TIP3   OH263927   1.956   3.872  13.673 -0.2259 -0.1918  0.5176
14171TIP3    H163928   1.875   3.871  13.724 -1.3606 -1.5088 -1.2060
14171TIP3    H263929   2.022   3.834  13.731 -0.7723  0.9348  1.9589
14172TIP3   OH263930   2.326   5.028   0.509 -0.6636  0.0262 -0.1790
14172TIP3    H163931   2.360   5.035   0.599  0.2657 -2.6393 -0.2394
14172TIP3    H263932   2.233   5.013   0.520 -0.6977  0.5155  0.2866
14173TIP3   OH263933   3.328   2.708  12.229  0.7089 -0.0427 -0.3489
14173TIP3    H163934   3.248   2.760  12.239  0.6387 -0.1936 -0.0905
14173TIP3    H263935   3.364   2.734  12.145  0.1612 -0.2794 -0.6666
14174TIP3   OH263936   0.995   2.526   6.036  0.3175  0.6019 -0.0984
14174TIP3    H163937   1.013   2.435   6.060 -0.2124 -0.6098 -3.6073
14174TIP3    H263938   0.914   2.548   6.081 -1.0944 -1.7382 -1.2736
14175TIP3   OH263939   1.837   4.348   4.683 -0.0235 -0.1420  0.0475
14175TIP3    H163940   1.898   4.274   4.674  0.6994  0.4084  0.3394
14175TIP3    H263941   1.751   4.309   4.669  0.3659 -0.9939 -0.0752
14176TIP3   OH263942   0.755   3.644   1.893  0.0062  0.5011  0.3462
14176TIP3    H163943   0.796   3.564   1.925  1.4247  0.7618 -0.7099
14176TIP3    H263944   0.663   3.622   1.880  0.0496 -0.4856  1.5525
14177TIP3   OH263945   2.529   4.078   1.732 -0.2291  0.3614  0.3170
14177TIP3    H163946   2.470   4.151   1.752 -1.2523 -0.6441  1.0431
14177TIP3    H263947   2.591   4.077   1.806 -0.2648  0.4309  0.3480
14178TIP3   OH263948   5.229   1.380  11.866  0.2108 -0.4097 -0.0672
14178TIP3    H163949   5.277   1.401  11.946  1.7814  0.4198 -1.1565
14178TIP3    H263950   5.282   1.312  11.824  0.8484  0.9389 -1.5812
14179TIP3   OH263951   5.586   3.586  12.618 -0.1218  0.0897 -0.0207
14179TIP3    H163952   5.661   3.624  12.572  0.5998 -1.3722 -0.0908
14179TIP3    H263953   5.609   3.494  12.631 -1.2835 -0.0534  1.2634
14180TIP3   OH263954   2.365   6.235   3.064 -0.4420 -0.2832  0.2824
14180TIP3    H163955   2.311   6.159   3.041  0.2534 -0.4285 -0.9722
14180TIP3    H263956   2.302   6.301   3.092 -1.1904 -0.8353 -0.0537
14181TIP3   OH263957   0.828   0.896  14.868 -0.4848  0.0541 -0.0624
14181TIP3    H163958   0.881   0.820  14.846 -1.0210 -0.6397  0.9838
14181TIP3    H263959   0.741   0.860  14.886 -1.4261  1.1840 -1.9661
14182TIP3   OH263960   0.559   0.235   2.613  0.0536  0.0216 -0.2594
14182TIP3    H163961   0.583   0.149   2.649 -2.0368 -0.9354 -0.9573
14182TIP3    H263962   0.490   0.267   2.672  0.9298  1.3220  0.0836
14183TIP3   OH263963   3.529   5.185  14.088 -0.0088 -0.5830 -0.1486
14183TIP3    H163964   3.475   5.208  14.012 -0.0713 -1.0321 -0.2443
14183TIP3    H263965   3.618   5.208  14.062 -0.0434 -0.6467 -0.3245
14184TIP3   OH263966   5.895   2.911  15.999  0.4653  0.0215  0.3281
14184TIP3    H163967   5.984   2.884  16.021  0.0859 -2.8665 -1.1847
14184TIP3    H263968   5.884   2.885  15.908 -1.9260  0.3390  0.4584
14185TIP3   OH263969   1.767   2.886   1.066  0.3021  0.9198 -0.0696
14185TIP3    H163970   1.708   2.833   1.119 -1.6161  4.0950  1.2759
14185TIP3    H263971   1.715   2.911   0.990  0.2030  2.8659  0.5921
14186TIP3   OH263972   5.387   3.699   1.250 -0.4127 -0.0257  0.4775
14186TIP3    H163973   5.346   3.765   1.194  2.7584  2.1851  0.5139
14186TIP3    H263974   5.373   3.730   1.339 -1.7325 -1.2479  0.7340
14187TIP3   OH263975   1.891   5.925   3.606  0.2320 -0.0967  0.0862
14187TIP3    H163976   1.946   5.868   3.659 -0.7611 -0.9937  0.1897
14187TIP3    H263977   1.803   5.914   3.641 -0.3907 -0.3802 -1.4497
14188TIP3   OH263978   3.071   1.374  11.996  0.3850 -0.2698  0.3402
14188TIP3    H163979   3.091   1.389  11.903  0.5544 -0.5481  0.3305
14188TIP3    H263980   2.996   1.432  12.014 -0.4103 -1.0725 -0.2807
14189TIP3   OH263981   2.243   5.199  15.597 -0.2809  0.8788 -0.2699
14189TIP3    H163982   2.207   5.130  15.541  1.0983  0.8251 -1.1448
14189TIP3    H263983   2.186   5.201  15.673 -0.5014 -1.0602 -0.3463
14190TIP3   OH263984   3.250   2.079  12.480  0.4130  0.1490  0.6788
14190TIP3    H163985   3.242   1.986  12.455  0.7807  0.1851  0.4082
14190TIP3    H263986   3.261   2.077  12.575 -0.9631  0.0026  0.8571
14191TIP3   OH263987   2.986   6.089  12.402  0.4053  0.3173  0.2940
14191TIP3    H163988   2.984   6.184  12.401  1.1952  0.3769  1.7005
14191TIP3    H263989   3.079   6.067  12.392  0.1650 -0.3487 -0.7348
14192TIP3   OH263990   3.284   6.621   5.198 -0.1890  0.0087 -0.5585
14192TIP3    H163991   3.344   6.680   5.153  1.7461 -0.7899  0.8293
14192TIP3    H263992   3.336   6.582   5.268 -2.4146 -0.5399  0.9303
14193TIP3   OH263993   2.081   6.041   3.415 -0.2557 -0.6684  0.4739
14193TIP3    H163994   2.010   6.006   3.469 -0.9805 -2.2670 -1.3902
14193TIP3    H263995   2.157   6.042   3.473 -1.0617 -2.0171  1.6215
14194TIP3   OH263996   5.717   0.817  16.065  0.1810 -0.4327  0.4325
14194TIP3    H163997   5.746   0.805  16.155  1.3783 -0.9245  0.0020
14194TIP3    H263998   5.731   0.731  16.024  0.3759 -0.0115 -0.4093
14195TIP3   OH263999   4.114   1.692  15.931  0.2526 -0.6257  0.1517
14195TIP3    H164000   4.029   1.731  15.911  0.3860 -0.3932  0.0365
14195TIP3    H264001   4.122   1.698  16.026  0.9968  1.1540  0.0099
14196TIP3   OH264002   1.730   0.598  16.440 -0.2099 -0.4885  0.0259
14196TIP3    H164003   1.801   0.536  16.424  0.1497  0.0009 -0.3152
14196TIP3    H264004   1.774   0.682  16.455 -0.7129 -0.1636 -0.2583
14197TIP3   OH264005   1.742   0.231  16.669  0.0536 -0.0579  0.9330
14197TIP3    H164006   1.685   0.304  16.645 -0.3904  0.2100  2.6978
14197TIP3    H264007   1.727   0.165  16.601  0.8253  1.6345 -0.9836
14198TIP3   OH264008   0.341   0.156   0.635 -0.3462  0.1245 -0.0140
14198TIP3    H164009   0.367   0.188   0.722  0.1947  0.1513 -0.1771
14198TIP3    H264010   0.303   0.233   0.592 -0.8567  0.0415  0.2957
14199TIP3   OH264011   1.776   6.715  13.075  0.3684 -0.2132 -0.2563
14199TIP3    H164012   1.724   6.670  13.142 -0.1933 -2.1381 -1.8689
14199TIP3    H264013   1.754   6.808  13.085 -1.8702 -0.7564  0.4059
14200TIP3   OH264014   4.478   3.196  14.028 -0.0642 -0.0649 -0.0853
14200TIP3    H164015   4.527   3.213  13.948  0.3575 -0.0594  0.1736
14200TIP3    H264016   4.413   3.266  14.032  0.2759  0.2541 -0.1370
14201TIP3   OH264017   2.414   2.464  13.074  0.2034 -0.3531 -0.2000
14201TIP3    H164018   2.442   2.419  13.154  0.3008 -0.2803 -0.1933
14201TIP3    H264019   2.485   2.448  13.011  0.7457  0.6710  0.1222
14202TIP3   OH264020   5.212   3.997   1.969  0.5367 -0.3739  0.4374
14202TIP3    H164021   5.205   3.930   1.902 -1.6377  0.8152 -0.6206
14202TIP3    H264022   5.167   3.959   2.045  0.8645 -0.7690  0.4403
14203TIP3   OH264023   6.765   4.679   0.418  0.0359 -0.5316  0.1290
14203TIP3    H164024   6.700   4.611   0.433  0.4713 -1.2399 -1.0151
14203TIP3    H264025   6.849   4.635   0.426  0.3192 -0.3683 -1.4607
14204TIP3   OH264026   1.944   4.413   2.106 -0.0948 -0.8510 -0.1535
14204TIP3    H164027   2.007   4.448   2.169 -0.8529  1.6787 -0.6935
14204TIP3    H264028   1.984   4.427   2.021 -0.4310 -1.3112 -0.3920
14205TIP3   OH264029   6.061   2.361  16.899 -0.3172  0.6472 -0.3077
14205TIP3    H164030   6.141   2.406  16.924 -0.7237  0.6502  1.0955
14205TIP3    H264031   6.018   2.420  16.837  0.7053  0.6754 -1.0091
14206TIP3   OH264032   0.506   4.226   1.011  0.1162  0.0818 -0.2099
14206TIP3    H164033   0.455   4.146   1.018 -0.3644  0.4489  0.5564
14206TIP3    H264034   0.542   4.224   0.922 -1.3889 -0.0884 -0.8394
14207TIP3   OH264035   6.360   5.382   0.980 -0.0980  0.4970  0.0795
14207TIP3    H164036   6.299   5.322   1.024  2.0782 -1.8949  0.0672
14207TIP3    H264037   6.377   5.341   0.896  1.1539  1.3650 -0.1167
14208TIP3   OH264038   5.744   6.406   4.406  0.1044  0.0545 -0.0789
14208TIP3    H164039   5.730   6.460   4.484  0.8033 -2.0201  1.5916
14208TIP3    H264040   5.798   6.459   4.349  0.7540  1.1278  1.4788
14209TIP3   OH264041   5.640   5.455  14.493 -0.1938 -0.6071 -0.4403
14209TIP3    H164042   5.729   5.424  14.508 -0.5878 -0.8636  1.7394
14209TIP3    H264043   5.645   5.550  14.503  0.1719 -0.3866 -2.4137
14210TIP3   OH264044   5.045   5.172   4.627  0.1570 -0.1027 -0.0629
14210TIP3    H164045   5.021   5.110   4.696 -0.5939  0.1636 -0.0844
14210TIP3    H264046   5.030   5.124   4.546  0.4526 -0.2011 -0.0628
14211TIP3   OH264047   1.461   2.890  13.612  0.6636  0.4931  0.0602
14211TIP3    H164048   1.495   2.874  13.701 -0.6515 -1.2752  0.2852
14211TIP3    H264049   1.474   2.807  13.566 -0.0184  0.9321 -0.9494
14212TIP3   OH264050   6.405   6.640  14.832  0.0226 -0.1852 -0.0493
14212TIP3    H164051   6.349   6.565  14.811  0.2842 -0.6995  1.0347
14212TIP3    H264052   6.346   6.704  14.871 -0.0396 -0.1810 -0.1490
14213TIP3   OH264053   1.272   2.082  17.023  0.4344  0.3504  0.0187
14213TIP3    H164054   1.184   2.079  17.062  1.8018 -1.5212  3.4615
14213TIP3    H264055   1.298   2.174  17.031 -0.2460  0.4514  1.5720
14214TIP3   OH264056   4.346   1.358   0.204 -0.3523  0.1635 -0.8549
14214TIP3    H164057   4.326   1.445   0.240  3.5207  1.5435 -1.5922
14214TIP3    H264058   4.340   1.370   0.109  1.1281 -0.0572 -0.9932
14215TIP3   OH264059   4.285   1.663  16.471  0.4240  0.1053  0.2919
14215TIP3    H164060   4.222   1.714  16.521  1.7581  0.9979  1.1311
14215TIP3    H264061   4.232   1.602  16.419 -1.1392  1.5059  0.1927
14216TIP3   OH264062   6.313   6.111   5.743  0.0124 -0.5408  0.1561
14216TIP3    H164063   6.401   6.076   5.724  0.5809  1.0312 -0.2239
14216TIP3    H264064   6.323   6.206   5.735 -1.1488 -0.1490  2.4297
14217TIP3   OH264065   2.664   5.702  13.483 -0.1508  0.3578  0.3251
14217TIP3    H164066   2.591   5.722  13.424  1.2789 -2.3440 -2.6232
14217TIP3    H264067   2.742   5.731  13.436  0.9903 -0.7296  1.4706
14218TIP3   OH264068   0.907   4.092  12.461  0.0055  0.6451  0.3608
14218TIP3    H164069   0.884   4.032  12.389 -0.4328  1.8694 -0.5412
14218TIP3    H264070   0.940   4.170  12.417 -0.6742  1.5783  1.4818
14219TIP3   OH264071   2.615   1.550   0.158  0.6722  0.5693 -0.0712
14219TIP3    H164072   2.674   1.524   0.088  0.4597 -0.3851  0.0854
14219TIP3    H264073   2.667   1.608   0.213  0.7161  1.6553 -1.2293
14220TIP3   OH264074   5.329   2.200   2.415 -0.0575 -0.2238  0.3415
14220TIP3    H164075   5.415   2.159   2.406 -0.5354 -1.0325 -0.7973
14220TIP3    H264076   5.269   2.127   2.423 -0.8186  0.2835 -0.6093
14221TIP3   OH264077   1.799   4.009   5.485 -0.5122 -0.0275 -0.0151
14221TIP3    H164078   1.828   4.043   5.400  0.2667 -0.1972  0.1693
14221TIP3    H264079   1.723   3.954   5.465  0.5608 -1.2953 -0.8226
14222TIP3   OH264080   5.241   6.093   6.424  0.4349 -0.7077  0.1113
14222TIP3    H164081   5.195   6.121   6.345  1.6166  0.2569 -0.2841
14222TIP3    H264082   5.180   6.035   6.469 -1.5011  1.1780  0.0774
14223TIP3   OH264083   4.920   5.621   6.246 -0.5873  0.1192  0.0454
14223TIP3    H164084   4.856   5.559   6.281 -0.0633 -0.4018  0.0975
14223TIP3    H264085   4.975   5.645   6.321 -0.5558  0.3570 -0.0522
14224TIP3   OH264086   5.760   1.756  17.033 -0.8100  0.2025  0.3343
14224TIP3    H164087   5.848   1.791  17.046 -1.1497  0.7675  1.1796
14224TIP3    H264088   5.761   1.671  17.079 -0.2822 -0.4719 -0.8891
14225TIP3   OH264089   4.198   0.242   4.366  0.4069  0.1376  0.0627
14225TIP3    H164090   4.202   0.185   4.289  2.0290 -0.2064  0.3452
14225TIP3    H264091   4.209   0.330   4.331  1.8244 -0.0658 -0.1006
14226TIP3   OH264092   5.805   6.222  16.237 -0.0438 -0.4497  0.2234
14226TIP3    H164093   5.877   6.203  16.177 -1.0668 -1.2406 -0.8114
14226TIP3    H264094   5.746   6.279  16.186  0.5815  1.5274  1.6042
14227TIP3   OH264095   0.954   2.010   4.793  0.0945 -1.0604  0.2315
14227TIP3    H164096   1.037   1.963   4.784  0.6661 -0.2289  0.9892
14227TIP3    H264097   0.964   2.062   4.873 -0.7381 -0.1199 -0.2452
14228TIP3   OH264098   5.149   5.717   2.103  0.4647  0.3713  0.4765
14228TIP3    H164099   5.229   5.768   2.114  0.5241  0.0291  1.7384
14228TIP3    H264100   5.123   5.693   2.192 -0.0329 -1.0748 -0.0286
14229TIP3   OH264101   6.570   2.709  14.924 -0.2085  0.2472 -0.4323
14229TIP3    H164102   6.514   2.705  14.847 -0.9610 -0.4451  0.1386
14229TIP3    H264103   6.511   2.699  14.998  0.6363 -0.3178  0.1929
14230TIP3   OH264104   3.516   3.078  14.258  0.0768  0.2415  0.4498
14230TIP3    H164105   3.451   3.008  14.262  0.8339 -0.5615 -0.6514
14230TIP3    H264106   3.539   3.085  14.165  0.4172  1.5831  0.6087
14231TIP3   OH264107   1.978   0.766   3.295  0.0154 -0.2845  0.4419
14231TIP3    H164108   2.062   0.728   3.319  0.1925 -1.2019 -1.4212
14231TIP3    H264109   1.920   0.690   3.283 -0.8905  0.2980  0.9811
14232TIP3   OH264110   3.071   2.796   5.882  0.0595 -0.4052 -0.2762
14232TIP3    H164111   3.062   2.771   5.790 -0.1227 -0.6955 -0.1774
14232TIP3    H264112   2.999   2.753   5.927  1.2030 -1.8135  0.3158
14233TIP3   OH264113   3.176   1.525  13.638 -0.4125  0.1323  0.2376
14233TIP3    H164114   3.097   1.485  13.602  0.7804 -1.2200 -1.0172
14233TIP3    H264115   3.155   1.542  13.730 -2.3269  0.3170 -0.2043
14234TIP3   OH264116   2.440   6.672  13.146  0.6508 -0.4761  0.2633
14234TIP3    H164117   2.388   6.608  13.096  3.5780 -2.1957 -0.8123
14234TIP3    H264118   2.423   6.651  13.238 -3.3647  1.5166  0.1911
14235TIP3   OH264119   3.167   4.075  16.212  0.0973  0.1455  0.5129
14235TIP3    H164120   3.210   4.126  16.280 -1.8952  1.3144  0.9692
14235TIP3    H264121   3.213   4.100  16.131  1.8263 -0.5128  1.2330
14236TIP3   OH264122   0.451   3.530   2.571 -0.2952 -0.3699 -0.3257
14236TIP3    H164123   0.538   3.496   2.590  0.1919  1.3951  0.7997
14236TIP3    H264124   0.404   3.525   2.655 -1.2638 -1.1830 -0.8874
14237TIP3   OH264125   1.579   4.852   2.740  0.0153  0.6410  0.2088
14237TIP3    H164126   1.646   4.792   2.706  0.1300  1.9509 -2.1146
14237TIP3    H264127   1.626   4.934   2.754 -0.9274  1.3994 -0.8461
14238TIP3   OH264128   1.346   1.085  16.609 -0.1542  0.3768  0.6459
14238TIP3    H164129   1.370   1.177  16.593  0.5160  0.0889 -0.1040
14238TIP3    H264130   1.430   1.042  16.626 -0.2302 -0.4616 -0.9388
14239TIP3   OH264131   1.685   4.728  12.388  0.3824 -0.0780 -0.2944
14239TIP3    H164132   1.737   4.672  12.331  3.4360 -0.2962  2.3967
14239TIP3    H264133   1.742   4.802  12.407 -0.4906  0.0520  2.2282
14240TIP3   OH264134   1.702   1.430   1.580  0.1818 -0.0599 -0.3408
14240TIP3    H164135   1.690   1.369   1.653 -0.1903  0.4179  0.0133
14240TIP3    H264136   1.759   1.499   1.615 -2.3226  1.7438  0.5327
14241TIP3   OH264137   1.528   6.053   1.271  0.4950 -1.0123 -0.1982
14241TIP3    H164138   1.587   6.115   1.229 -0.6033  0.4649  0.3527
14241TIP3    H264139   1.539   6.069   1.364  0.1345 -1.6058 -0.0473
14242TIP3   OH264140   5.722   4.043   1.170 -0.3456  0.1802  0.6426
14242TIP3    H164141   5.665   4.043   1.092 -1.0417 -1.0265  1.1210
14242TIP3    H264142   5.804   4.005   1.139 -0.1424  0.9940  0.1755
14243TIP3   OH264143   5.042   6.342  13.143  0.7987  0.3417  0.6171
14243TIP3    H164144   4.959   6.350  13.190  1.4547 -0.8905  2.0396
14243TIP3    H264145   5.106   6.388  13.199  1.0658  1.5308 -0.6025
14244TIP3   OH264146   1.550   6.400   4.777  0.6550  0.2732  0.3826
14244TIP3    H164147   1.617   6.354   4.827  2.1990  4.1045  2.2774
14244TIP3    H264148   1.587   6.487   4.760 -3.0211  1.9518 -0.2231
14245TIP3   OH264149   5.912   0.675  13.094 -0.2539 -0.3280  0.4454
14245TIP3    H164150   5.936   0.740  13.160 -0.1150  0.0494  0.0223
14245TIP3    H264151   5.832   0.710  13.055 -0.6204 -0.8017  0.7565
14246TIP3   OH264152   0.509   1.338  15.376  0.4108  0.1695  0.3036
14246TIP3    H164153   0.582   1.343  15.437 -1.0750 -1.1842  2.3265
14246TIP3    H264154   0.452   1.411  15.399 -0.7777 -1.0636  1.5163
14247TIP3   OH264155   2.225   5.023  16.381 -0.9623  0.8324  0.3082
14247TIP3    H164156   2.233   5.054  16.291  1.6309 -0.6828 -0.1000
14247TIP3    H264157   2.315   5.019  16.413 -1.6461 -0.6562  2.2476
14248TIP3   OH264158   3.959   4.812  11.441 -0.3713 -0.2842 -0.4366
14248TIP3    H164159   3.888   4.763  11.400 -2.1498  1.5813  0.2324
14248TIP3    H264160   4.004   4.747  11.496 -0.5205 -1.8572 -2.0762
14249TIP3   OH264161   6.491   3.645  14.850  0.3563  0.4384  0.5580
14249TIP3    H164162   6.489   3.559  14.892  1.3735  1.2385  2.3483
14249TIP3    H264163   6.400   3.676  14.855  0.0715 -0.3440  0.2878
14250TIP3   OH264164   0.563   4.064   0.404  0.2989 -0.1869  0.3171
14250TIP3    H164165   0.642   4.058   0.457  0.7119 -0.7340 -0.3376
14250TIP3    H264166   0.568   3.988   0.345  1.3162  1.8855 -2.4585
14251TIP3   OH264167   4.700   1.637  11.908 -0.1418 -0.0921 -0.3718
14251TIP3    H164168   4.727   1.674  11.993 -0.9616 -0.8564  0.2375
14251TIP3    H264169   4.718   1.707  11.845 -1.3043  1.2190  0.6908
14252TIP3   OH264170   6.136   3.100  15.865  0.2476 -0.1802 -0.0770
14252TIP3    H164171   6.075   3.083  15.793  0.9145 -1.0149 -0.4567
14252TIP3    H264172   6.212   3.141  15.824  0.2136  0.2796  0.3044
14253TIP3   OH264173   6.302   5.265   2.549  0.4346 -0.2673 -0.1775
14253TIP3    H164174   6.240   5.214   2.601  0.6268 -0.1673  0.1562
14253TIP3    H264175   6.346   5.321   2.612 -0.8628  1.4668 -0.7500
14254TIP3   OH264176   3.881   1.611  13.854  0.7605 -0.4453  0.3942
14254TIP3    H164177   3.822   1.677  13.887  0.6312  0.0310 -0.7447
14254TIP3    H264178   3.832   1.529  13.859  0.3078 -0.1846  0.2480
14255TIP3   OH264179   1.835   2.473  16.628  0.2737  0.8516 -0.0092
14255TIP3    H164180   1.917   2.494  16.672  2.5354 -2.2856 -2.2872
14255TIP3    H264181   1.844   2.511  16.541  0.2744 -1.1528 -0.9387
14256TIP3   OH264182   4.329   4.365   0.095 -0.6720  0.1726  0.2802
14256TIP3    H164183   4.335   4.370   0.190 -1.1689  1.9618  0.2443
14256TIP3    H264184   4.415   4.335   0.067 -0.6023 -0.6271  1.2909
14257TIP3   OH264185   4.488   4.873  10.878  0.3068  0.3369  0.2859
14257TIP3    H164186   4.537   4.829  10.948  0.4469  2.2837  1.4739
14257TIP3    H264187   4.416   4.917  10.924 -0.7803  0.0487 -1.0672
14258TIP3   OH264188   6.436   3.699  15.971  0.0581 -0.2783 -0.2765
14258TIP3    H164189   6.480   3.682  15.888  0.5033  1.0882 -0.3442
14258TIP3    H264190   6.347   3.725  15.947 -0.3712 -1.6021 -0.2116
14259TIP3   OH264191   2.420   6.234  11.060 -0.2691 -0.0099 -0.4417
14259TIP3    H164192   2.387   6.251  10.972 -0.1310  1.9324 -0.1522
14259TIP3    H264193   2.359   6.169  11.097 -0.6545 -0.4035 -1.7403
14260TIP3   OH264194   3.997   3.529  11.449 -0.4512 -0.0910 -0.0533
14260TIP3    H164195   3.945   3.591  11.397  0.6221  0.6415 -0.2991
14260TIP3    H264196   4.047   3.480  11.384 -0.0557 -0.0604  0.2245
14261TIP3   OH264197   5.017   4.769  13.831 -0.4361  0.3843  0.0017
14261TIP3    H164198   4.967   4.690  13.811 -0.4564  0.1556  0.8953
14261TIP3    H264199   5.010   4.823  13.753 -1.4113  0.0134 -0.1745
14262TIP3   OH264200   0.558   5.624   5.783 -0.0560 -0.8097 -0.1049
14262TIP3    H164201   0.472   5.612   5.823  0.3606  2.0090  1.9170
14262TIP3    H264202   0.552   5.580   5.698 -3.1367 -1.5065  0.3752
14263TIP3   OH264203   4.956   4.170  13.830 -0.3836 -0.7952  0.2047
14263TIP3    H164204   4.981   4.150  13.740 -1.8015  0.2483 -0.4668
14263TIP3    H264205   4.860   4.168  13.829 -0.5181  1.6564  1.0597
14264TIP3   OH264206   3.753   1.744   3.015 -0.4022 -0.1414  0.3497
14264TIP3    H164207   3.825   1.682   3.007  0.2248  0.6369 -0.1922
14264TIP3    H264208   3.747   1.763   3.108 -0.0293 -0.3437  0.4158
14265TIP3   OH264209   2.725   0.116   2.905  0.3226  0.0294 -0.1998
14265TIP3    H164210   2.800   0.059   2.921  1.9025  2.0483 -0.0005
14265TIP3    H264211   2.753   0.173   2.833 -2.2007 -1.0888 -2.2398
14266TIP3   OH264212   5.815   6.379  15.390  0.3452 -0.4198  0.3547
14266TIP3    H164213   5.756   6.326  15.444 -1.8296  0.0043 -1.4448
14266TIP3    H264214   5.870   6.316  15.345  0.3896 -0.9082  1.0650
14267TIP3   OH264215   6.472   3.743  10.595  0.2098  0.4874 -0.2370
14267TIP3    H164216   6.507   3.702  10.516  0.4177 -0.0401  0.1175
14267TIP3    H264217   6.382   3.767  10.572 -1.3783 -3.7170  0.6486
14268TIP3   OH264218   0.946   0.430   3.154 -0.2869 -0.5901 -0.0810
14268TIP3    H164219   0.957   0.467   3.242 -0.2275 -0.5865 -0.0903
14268TIP3    H264220   1.000   0.486   3.097 -0.0276 -0.8219 -0.0618
14269TIP3   OH264221   6.100   4.671   1.144 -0.4013 -0.5846 -0.0567
14269TIP3    H164222   6.168   4.609   1.169 -0.4171  0.3713  2.6639
14269TIP3    H264223   6.023   4.617   1.127  0.0496 -1.4252  0.5345
14270TIP3   OH264224   5.084   4.559   1.123  0.5558 -0.4435 -0.2806
14270TIP3    H164225   5.039   4.547   1.207 -1.9426  0.9686 -1.3052
14270TIP3    H264226   5.090   4.654   1.111  2.3630 -0.5958 -1.0056
14271TIP3   OH264227   4.386   5.835   5.051  0.0284  0.1132 -0.4573
14271TIP3    H164228   4.461   5.892   5.033  1.5639 -1.7085 -0.1555
14271TIP3    H264229   4.313   5.876   5.005  1.4936  1.2569 -1.8656
14272TIP3   OH264230   3.321   0.645   4.509 -0.2559  0.5336  0.1942
14272TIP3    H164231   3.314   0.553   4.533 -2.4650 -0.1915 -2.7405
14272TIP3    H264232   3.277   0.692   4.580  0.8892 -0.5833  1.7151
14273TIP3   OH264233   2.332   0.737   0.188 -0.1006 -0.0549 -0.1916
14273TIP3    H164234   2.321   0.644   0.172 -0.8004  0.3350 -2.1549
14273TIP3    H264235   2.317   0.747   0.283 -1.0205 -1.7828 -0.1231
14274TIP3   OH264236   0.440   5.594   4.723 -0.1378  0.2815  0.2270
14274TIP3    H164237   0.489   5.585   4.805 -0.3312  1.1308  0.4386
14274TIP3    H264238   0.494   5.549   4.659  0.8767  1.0893  0.4783
14275TIP3   OH264239   4.586   0.454  15.089  0.1040  0.3695  0.0355
14275TIP3    H164240   4.536   0.439  15.169  0.9598  1.9903  0.9318
14275TIP3    H264241   4.569   0.546  15.068 -0.4698 -0.1485 -1.9306
14276TIP3   OH264242   1.141   0.629  14.178 -0.0369 -0.0080 -0.4005
14276TIP3    H164243   1.129   0.724  14.180  0.8287  0.1471 -1.5678
14276TIP3    H264244   1.053   0.594  14.165 -0.2165  0.6942 -1.1068
14277TIP3   OH264245   5.434   3.486   4.620  0.3277 -0.4356 -0.0588
14277TIP3    H164246   5.362   3.432   4.652  0.1024 -0.2811 -0.2966
14277TIP3    H264247   5.467   3.439   4.544  1.0168 -0.9218  0.5222
14278TIP3   OH264248   3.584   6.718  14.503  0.4930 -0.1602 -0.2421
14278TIP3    H164249   3.509   6.766  14.538 -0.3445 -1.9410  0.4891
14278TIP3    H264250   3.658   6.748  14.555 -0.3118 -0.9188  1.3975
14279TIP3   OH264251   5.047   4.577  15.007  0.0175  0.0639  0.3828
14279TIP3    H164252   4.986   4.502  15.012 -1.7483  1.1940 -2.0877
14279TIP3    H264253   4.991   4.651  14.985  2.1427  1.4456 -0.6478
14280TIP3   OH264254   6.130   5.378  10.987 -0.2460  0.8786 -0.6785
14280TIP3    H164255   6.046   5.347  10.951 -2.0255  1.0980  2.8444
14280TIP3    H264256   6.188   5.303  10.980 -0.7446  0.6101 -2.9020
14281TIP3   OH264257   5.383   3.131   3.002 -0.1165  0.1788 -0.3442
14281TIP3    H164258   5.458   3.192   3.005 -0.8905  1.0989  1.3595
14281TIP3    H264259   5.306   3.188   3.006 -0.8917 -0.8704 -0.0488
14282TIP3   OH264260   0.525   6.651  16.824 -1.1391 -0.4414 -0.3523
14282TIP3    H164261   0.566   6.614  16.902  0.3653  0.1777 -0.8118
14282TIP3    H264262   0.492   6.576  16.775 -0.5117 -0.9658  0.0237
14283TIP3   OH264263   2.548   0.810  11.120 -0.2629  0.4370  0.1025
14283TIP3    H164264   2.560   0.721  11.155  1.1773  0.7840  0.5631
14283TIP3    H264265   2.462   0.807  11.078  0.7656 -1.9286 -2.1435
14284TIP3   OH264266   4.510   2.586  12.767 -0.5786 -0.3499  0.3487
14284TIP3    H164267   4.488   2.510  12.713 -0.9374  0.4408 -0.6489
14284TIP3    H264268   4.446   2.653  12.741 -0.6317  0.1202  1.6208
14285TIP3   OH264269   0.688   1.968   4.378 -0.4901  0.3994  0.0335
14285TIP3    H164270   0.704   1.970   4.284 -0.7510  0.2641 -0.0140
14285TIP3    H264271   0.774   1.985   4.417 -0.2011 -0.4399 -0.2136
14286TIP3   OH264272   0.209   6.612  16.186  0.6445 -0.4717  0.0394
14286TIP3    H164273   0.261   6.692  16.182 -0.1028  0.0572  0.5630
14286TIP3    H264274   0.192   6.599  16.279  0.4962 -1.0704 -0.0643
14287TIP3   OH264275   0.029   5.915   0.391 -0.3551 -0.5165 -0.2219
14287TIP3    H164276   0.057   5.994   0.345  1.4740 -1.3442 -0.6441
14287TIP3    H264277   0.029   5.846   0.324 -0.3024 -1.1956  0.4556
14288TIP3   OH264278   4.659   6.012  12.350 -0.3994  0.6531 -0.4667
14288TIP3    H164279   4.719   6.070  12.396  0.6175 -0.2382 -0.6190
14288TIP3    H264280   4.573   6.034  12.384  0.2947  0.0822  1.8157
14289TIP3   OH264281   4.764   5.381  14.504 -0.2060 -0.5596  0.1831
14289TIP3    H164282   4.683   5.337  14.479  0.4330 -0.9067 -1.4184
14289TIP3    H264283   4.814   5.314  14.551 -1.1537 -0.0923  1.9698
14290TIP3   OH264284   3.853   5.491   5.571  0.1194 -0.2529 -0.1203
14290TIP3    H164285   3.855   5.396   5.566  0.8234 -0.4917  2.7691
14290TIP3    H264286   3.945   5.517   5.581 -0.1225  0.6421 -0.0825
14291TIP3   OH264287   5.520   2.793  15.726 -0.4502 -0.0865  0.2573
14291TIP3    H164288   5.579   2.718  15.718 -2.5156 -1.8029  0.2433
14291TIP3    H264289   5.435   2.755  15.746 -2.0365  2.1023 -1.7363
14292TIP3   OH264290   3.968   0.337  12.141  0.0336 -0.6026  0.2571
14292TIP3    H164291   3.981   0.358  12.234  1.9299  1.2504 -0.3628
14292TIP3    H264292   3.909   0.405  12.109  0.9475 -0.0490 -0.3026
14293TIP3   OH264293   3.284   5.247  14.329  0.1858  0.0818  0.1383
14293TIP3    H164294   3.271   5.164  14.375  0.6501  0.1698  0.4316
14293TIP3    H264295   3.199   5.290  14.332  0.7129  1.1276  2.9693
14294TIP3   OH264296   6.727   1.276   4.797  0.1534  0.2122  0.6010
14294TIP3    H164297   6.691   1.220   4.866 -0.2785  0.0307  0.2415
14294TIP3    H264298   6.712   1.226   4.717  0.1737  0.6467  0.3242
14295TIP3   OH264299   5.836   3.039  15.385 -0.0558 -0.3915  0.6643
14295TIP3    H164300   5.850   3.085  15.303 -0.9541  0.4851  0.9778
14295TIP3    H264301   5.749   3.068  15.414 -0.0894 -1.2980  1.5225
14296TIP3   OH264302   3.090   4.525   1.639  0.3518  0.1765 -0.1102
14296TIP3    H164303   3.147   4.542   1.714  0.1370 -0.2321  0.1563
14296TIP3    H264304   3.145   4.476   1.578  0.9446  1.6873 -0.8446
14297TIP3   OH264305   0.823   1.858  12.859 -0.2355  0.3732 -0.3125
14297TIP3    H164306   0.785   1.940  12.826 -1.6143  0.7738  2.0328
14297TIP3    H264307   0.913   1.880  12.883 -0.1558  0.8174 -1.0056
14298TIP3   OH264308   3.621   2.377   5.766 -0.0974  0.2414 -0.2253
14298TIP3    H164309   3.535   2.403   5.732  0.3907  0.6060 -1.2122
14298TIP3    H264310   3.652   2.311   5.704  0.3945  0.2001  0.0606
14299TIP3   OH264311   3.741   6.597   2.405  0.1089 -0.5044 -0.2896
14299TIP3    H164312   3.702   6.594   2.318 -0.6288 -1.5641  0.0589
14299TIP3    H264313   3.678   6.551   2.461  0.5049  0.2679  0.8288
14300TIP3   OH264314   2.691   0.167   3.547 -0.0794  0.7470 -0.1613
14300TIP3    H164315   2.603   0.135   3.571 -0.2473  2.1200  1.1323
14300TIP3    H264316   2.745   0.148   3.623  0.7610 -0.0248 -0.9299
14301TIP3   OH264317   6.475   2.434  11.731 -0.3419  0.5161  0.6505
14301TIP3    H164318   6.540   2.368  11.755 -0.8192  0.0961  0.8041
14301TIP3    H264319   6.508   2.472  11.650 -0.1925 -0.1010  0.4165
14302TIP3   OH264320   4.852   0.271  16.181  0.0846  0.1404  0.6049
14302TIP3    H164321   4.890   0.249  16.096  0.2796  0.7392  0.5303
14302TIP3    H264322   4.813   0.189  16.212  0.4916 -0.2149  0.1906
14303TIP3   OH264323   6.443   1.009  12.227  0.1392 -0.1485  0.4316
14303TIP3    H164324   6.538   1.006  12.239 -0.1068 -1.7459  2.4431
14303TIP3    H264325   6.414   1.085  12.278  0.3082  0.3840 -0.2436
14304TIP3   OH264326   5.677   6.029   3.930 -0.0796 -0.4831 -0.1649
14304TIP3    H164327   5.604   5.978   3.895 -0.3806  0.6467 -1.2737
14304TIP3    H264328   5.705   6.084   3.857  0.4036  0.7303  0.8938
14305TIP3   OH264329   4.195   2.188  14.017  0.9438  0.5337  0.0149
14305TIP3    H164330   4.170   2.273  13.980 -1.1504  0.0032  0.0659
14305TIP3    H264331   4.186   2.199  14.112 -0.2737  0.0243 -0.0215
14306TIP3   OH264332   3.835   1.645  15.008  0.3581 -0.2460  0.2155
14306TIP3    H164333   3.893   1.574  14.981 -2.1515 -1.9920 -0.9661
14306TIP3    H264334   3.813   1.625  15.099  0.2230 -0.5791  0.1093
14307TIP3   OH264335   0.239   2.079  11.427  0.4980  0.8071  0.2043
14307TIP3    H164336   0.157   2.114  11.393 -0.5537 -1.7501 -0.1827
14307TIP3    H264337   0.307   2.121  11.374 -0.6953  1.5004 -0.8372
14308TIP3   OH264338   4.824   1.388   1.967 -0.9223  0.6033  0.4376
14308TIP3    H164339   4.850   1.360   1.879 -1.7628  0.2134  0.3029
14308TIP3    H264340   4.816   1.484   1.959  1.2186  0.8530  0.7078
14309TIP3   OH264341   3.389   2.057   0.472 -0.7711  0.1496 -0.0500
14309TIP3    H164342   3.334   2.059   0.394 -1.3330 -1.0203  0.2893
14309TIP3    H264343   3.471   2.098   0.445 -1.0479 -0.0049 -1.1793
14310TIP3   OH264344   0.443   4.921   6.218  0.1099 -0.3168  0.0901
14310TIP3    H164345   0.527   4.875   6.220  0.5474  0.4163 -0.8948
14310TIP3    H264346   0.384   4.863   6.267  1.3895 -0.3804  1.6792
14311TIP3   OH264347   0.675   3.123  12.746 -0.1668  0.1115  0.0610
14311TIP3    H164348   0.732   3.197  12.766 -0.1264  0.8070 -2.3501
14311TIP3    H264349   0.587   3.155  12.764 -0.1035  0.5302 -0.3711
14312TIP3   OH264350   4.671   2.425   3.195 -0.0825  0.2470 -0.0993
14312TIP3    H164351   4.748   2.420   3.252  0.2226  2.1762 -0.2755
14312TIP3    H264352   4.690   2.362   3.125  1.8245  1.3424 -0.6579
14313TIP3   OH264353   2.188   4.796  15.745 -0.1963  0.0684 -0.1383
14313TIP3    H164354   2.143   4.870  15.705 -0.8210 -0.8434 -1.1821
14313TIP3    H264355   2.264   4.780  15.689  0.4143  0.4355  0.5637
14314TIP3   OH264356   5.018   0.466  15.559 -0.4360 -0.4801  0.1483
14314TIP3    H164357   4.966   0.507  15.490  0.7682  0.4089 -0.2607
14314TIP3    H264358   4.980   0.498  15.641  0.5164  1.5745 -0.1634
14315TIP3   OH264359   4.453   2.421   3.334  0.1276  0.5732 -0.4695
14315TIP3    H164360   4.516   2.437   3.264  0.4372  2.8101  0.2530
14315TIP3    H264361   4.500   2.440   3.415 -1.2949  1.8933  0.1123
14316TIP3   OH264362   1.032   4.304  14.057  0.0105  0.4370  0.4566
14316TIP3    H164363   1.110   4.359  14.051  0.4337 -0.2415 -0.6915
14316TIP3    H264364   0.959   4.366  14.065  0.5209  1.1630 -0.2730
14317TIP3   OH264365   3.727   0.862  15.920 -0.1130  0.3689  0.2086
14317TIP3    H164366   3.633   0.843  15.923 -0.0408  0.0623  0.7358
14317TIP3    H264367   3.733   0.954  15.945 -0.1592 -0.0430  1.8187
14318TIP3   OH264368   4.609   1.107  14.506 -0.1757  0.1176  0.0962
14318TIP3    H164369   4.557   1.187  14.493  1.2626  0.9254 -1.1006
14318TIP3    H264370   4.683   1.135  14.561  0.0211 -0.5354  0.1717
14319TIP3   OH264371   1.629   4.412   5.804  0.0766  0.1906 -0.3362
14319TIP3    H164372   1.538   4.391   5.825 -0.0219 -1.2366 -1.9644
14319TIP3    H264373   1.680   4.343   5.846  0.0809 -1.0839 -2.2935
14320TIP3   OH264374   1.258   4.865   1.811 -0.2339  0.0387 -0.2085
14320TIP3    H164375   1.215   4.821   1.884 -0.9201  0.8568 -0.1097
14320TIP3    H264376   1.203   4.845   1.735 -1.6091  2.1764  0.1404
14321TIP3   OH264377   6.008   2.282  15.758  0.9172  0.2862  0.0173
14321TIP3    H164378   5.983   2.190  15.760 -0.3391  0.6112  1.8152
14321TIP3    H264379   5.982   2.312  15.671  1.0194 -0.9472 -0.4619
14322TIP3   OH264380   0.536   3.666  15.704  0.0661 -0.4712  0.4477
14322TIP3    H164381   0.603   3.712  15.655  0.6949 -0.3170  1.4153
14322TIP3    H264382   0.580   3.639  15.785 -1.1373 -0.0073  1.2911
14323TIP3   OH264383   6.509   3.468   0.697 -0.3990 -0.3427  0.4392
14323TIP3    H164384   6.439   3.477   0.632 -1.0006 -0.4525  1.0580
14323TIP3    H264385   6.541   3.378   0.685 -0.0917 -0.1635 -0.1089
14324TIP3   OH264386   6.647   3.849  12.277 -0.1846 -0.5760 -0.2003
14324TIP3    H164387   6.740   3.872  12.266 -0.3712  0.5380  0.3832
14324TIP3    H264388   6.600   3.930  12.259 -1.0561 -1.1307 -0.4662
14325TIP3   OH264389   2.223   3.951   5.970 -0.3181 -0.2726  0.2209
14325TIP3    H164390   2.261   4.033   5.937 -1.4974  0.2749  0.1894
14325TIP3    H264391   2.207   3.899   5.891 -1.7881  0.4536  0.0050
14326TIP3   OH264392   6.721   2.886  15.716  0.3470 -0.3156  0.0498
14326TIP3    H164393   6.808   2.925  15.716  0.4333 -0.5062  0.7243
14326TIP3    H264394   6.736   2.791  15.721  0.1087 -0.3744 -0.2612
14327TIP3   OH264395   0.441   0.150  11.848 -0.1640 -0.2092 -0.0696
14327TIP3    H164396   0.346   0.145  11.859 -0.3904  2.4232 -0.3348
14327TIP3    H264397   0.460   0.088  11.778 -1.2957 -2.5464  1.5343
14328TIP3   OH264398   2.409   3.051  14.182  0.5186 -0.1868  0.0597
14328TIP3    H164399   2.374   2.967  14.209 -2.9364  0.7569 -1.0187
14328TIP3    H264400   2.431   3.095  14.264 -0.9420 -0.8617  0.8481
14329TIP3   OH264401   2.695   1.974   2.979 -0.5345  0.4789  0.1428
14329TIP3    H164402   2.791   1.975   2.978 -0.4648 -0.0293 -2.7927
14329TIP3    H264403   2.670   1.995   2.889 -3.1800 -0.3688  0.6019
14330TIP3   OH264404   1.259   4.178   2.653 -0.4387  0.0824 -0.5101
14330TIP3    H164405   1.305   4.100   2.623  0.4020  1.0379 -1.7821
14330TIP3    H264406   1.327   4.243   2.667 -1.2733  1.1605 -1.2615
14331TIP3   OH264407   2.328   4.313  12.893  0.4452 -0.0718 -0.1399
14331TIP3    H164408   2.245   4.360  12.895 -0.3996 -1.5150  1.0884
14331TIP3    H264409   2.336   4.274  12.981  1.8549 -0.9058 -0.6021
14332TIP3   OH264410   5.181   3.921   4.244 -0.0788  0.1737 -0.3453
14332TIP3    H164411   5.183   3.940   4.337 -1.8955 -1.7225  0.1587
14332TIP3    H264412   5.122   3.986   4.207 -1.5597 -0.7336  0.3412
14333TIP3   OH264413   4.512   3.940  12.359 -0.0476  0.0505 -0.0635
14333TIP3    H164414   4.525   4.007  12.426 -1.5213  0.5746 -0.2727
14333TIP3    H264415   4.487   3.988  12.281 -0.1874 -0.6808 -0.4801
14334TIP3   OH264416   1.589   1.943   0.099 -0.1225  0.8969  0.0165
14334TIP3    H164417   1.559   2.027   0.065  0.8943  1.9218  1.5657
14334TIP3    H264418   1.547   1.878   0.042 -2.8680  2.3415  0.2444
14335TIP3   OH264419   0.875   5.743   4.516 -0.9813 -0.8918  0.0035
14335TIP3    H164420   0.935   5.758   4.589 -1.3794 -0.9840  0.3574
14335TIP3    H264421   0.828   5.663   4.541 -0.3581 -1.5512 -0.8680
14336TIP3   OH264422   5.458   2.596  10.749  0.2636 -0.0940 -0.0487
14336TIP3    H164423   5.382   2.646  10.723  0.1610  0.8932  1.9946
14336TIP3    H264424   5.508   2.583  10.668 -1.3494  0.4408 -1.1584
14337TIP3   OH264425   6.089   6.725   4.281  0.0560  0.2419  0.3420
14337TIP3    H164426   6.171   6.732   4.331  1.1689  0.7903 -1.4776
14337TIP3    H264427   6.051   6.642   4.309  0.9018  0.2669  1.6782
14338TIP3   OH264428   4.846   4.234   6.353  0.4357  0.5192 -0.5822
14338TIP3    H164429   4.872   4.172   6.421 -0.6035  2.7716  2.0778
14338TIP3    H264430   4.752   4.218   6.341  0.5801  0.2436 -1.4168
14339TIP3   OH264431   2.879   2.204   2.698  0.2814 -0.6804  0.3836
14339TIP3    H164432   2.839   2.117   2.699 -0.5869 -0.2892  0.2346
14339TIP3    H264433   2.807   2.264   2.678  1.1420 -0.0574 -0.9477
14340TIP3   OH264434   2.792   3.909   3.307  0.2946 -0.4412  0.2153
14340TIP3    H164435   2.848   3.884   3.234  1.6772 -1.0446  1.4341
14340TIP3    H264436   2.817   3.998   3.329 -0.1299 -0.2543 -0.0482
14341TIP3   OH264437   0.631   2.119  13.599 -0.1529 -0.3638  0.0853
14341TIP3    H164438   0.538   2.096  13.598 -0.2689  0.0855 -0.6870
14341TIP3    H264439   0.636   2.200  13.548  0.2504  1.3232  2.6393
14342TIP3   OH264440   3.772   1.553  11.610  0.0025  0.0316 -0.4767
14342TIP3    H164441   3.851   1.541  11.558  0.0602  0.4058 -0.4748
14342TIP3    H264442   3.742   1.464  11.628  1.0779 -0.1531  0.5104
14343TIP3   OH264443   5.543   4.417  15.413  0.2111 -0.0389 -0.6088
14343TIP3    H164444   5.458   4.440  15.376  0.3564 -1.7571 -2.1596
14343TIP3    H264445   5.527   4.336  15.460  0.9485 -0.2968 -0.7905
14344TIP3   OH264446   4.839   0.969   2.698  0.2792  0.4866 -0.5578
14344TIP3    H164447   4.784   0.965   2.776  0.1145 -1.6428 -0.7157
14344TIP3    H264448   4.778   0.974   2.625  0.3802  0.6156 -0.6354
14345TIP3   OH264449   6.000   1.751   5.827 -0.4530  0.5383  0.2255
14345TIP3    H164450   5.965   1.704   5.902 -1.0143  0.7746  0.1172
14345TIP3    H264451   6.035   1.833   5.863 -0.1077  0.3536  0.3171
14346TIP3   OH264452   1.268   0.041  11.149  0.0368 -0.2779  0.0843
14346TIP3    H164453   1.223   0.005  11.073  1.1773 -3.7752  0.8648
14346TIP3    H264454   1.359   0.015  11.138  1.1505  2.9620  0.5939
14347TIP3   OH264455   2.016   3.533   1.455  0.4106  0.0413 -0.4469
14347TIP3    H164456   1.958   3.609   1.459  0.5838  0.1533  0.0650
14347TIP3    H264457   1.963   3.460   1.487  0.1883 -0.0953 -1.1091
14348TIP3   OH264458   5.590   2.532   4.797  0.2752 -0.1361  0.3787
14348TIP3    H164459   5.650   2.586   4.849  0.2257  0.3385 -0.0468
14348TIP3    H264460   5.582   2.579   4.714  0.1888 -0.7761  0.0196
14349TIP3   OH264461   3.361   6.560   3.849 -0.2546 -0.1030 -0.0092
14349TIP3    H164462   3.378   6.571   3.943 -0.3757 -1.3282  0.1853
14349TIP3    H264463   3.443   6.585   3.807 -0.3080  0.7817  0.3904
14350TIP3   OH264464   6.291   1.642  14.277 -0.0032  0.5780 -0.1192
14350TIP3    H164465   6.222   1.708  14.289 -0.6617 -0.2709  1.0888
14350TIP3    H264466   6.269   1.598  14.195 -0.1019  1.2277 -0.4451
14351TIP3   OH264467   4.115   5.567   0.340 -0.2055  0.0445  0.3512
14351TIP3    H164468   4.121   5.606   0.253  0.6417  1.0426  0.8283
14351TIP3    H264469   4.125   5.642   0.400  1.6001 -0.8978  1.3050
14352TIP3   OH264470   3.816   1.735  12.059 -0.1063 -0.0551  0.2520
14352TIP3    H164471   3.769   1.799  12.113  2.3474  2.7650 -0.6923
14352TIP3    H264472   3.767   1.733  11.977 -0.3155  0.4726  0.3584
14353TIP3   OH264473   3.730   1.856   5.051 -0.1137  0.5660 -0.5832
14353TIP3    H164474   3.702   1.768   5.027  1.2287  0.1699 -0.7763
14353TIP3    H264475   3.707   1.910   4.976  0.8184  0.0033 -1.2905
14354TIP3   OH264476   0.784   6.352   1.839 -0.5997  0.2016  0.4435
14354TIP3    H164477   0.874   6.365   1.809  0.4421 -1.1859  2.6905
14354TIP3    H264478   0.755   6.273   1.794 -0.8566  0.8340 -0.5377
14355TIP3   OH264479   0.043   6.638   3.689  0.8396  0.2203  0.0940
14355TIP3    H164480  -0.033   6.607   3.738  1.5167 -1.5348  0.1130
14355TIP3    H264481   0.061   6.725   3.724  0.2561 -0.2979  1.7560
14356TIP3   OH264482   2.637   5.251  13.479  0.2232 -0.1201 -0.1113
14356TIP3    H164483   2.635   5.197  13.558  1.6832  0.0442  0.0631
14356TIP3    H264484   2.587   5.201  13.414 -0.8094 -0.3558  0.8405
14357TIP3   OH264485   2.588   1.730   5.344  0.3917  0.3316 -0.0495
14357TIP3    H164486   2.652   1.799   5.326  0.7946 -0.2439 -0.8619
14357TIP3    H264487   2.538   1.721   5.263  1.5697 -1.6070 -0.6210
14358TIP3   OH264488   5.267   3.428  15.727 -0.1429 -0.0689  0.4262
14358TIP3    H164489   5.218   3.398  15.650  3.1390 -0.8820 -1.5032
14358TIP3    H264490   5.293   3.347  15.771  0.6107  0.3001  0.6599
14359TIP3   OH264491   0.097   6.447   4.528  0.4425  0.2134 -0.3933
14359TIP3    H164492   0.078   6.358   4.500  0.6554  0.2999 -0.8206
14359TIP3    H264493   0.190   6.446   4.550 -0.0433 -0.2501  1.8510
14360TIP3   OH264494   1.415   6.160   3.954 -0.3089  0.3908 -0.2547
14360TIP3    H164495   1.436   6.220   3.883  1.3687  0.2378  0.0703
14360TIP3    H264496   1.463   6.193   4.029 -0.8362 -0.3253  0.4198
14361TIP3   OH264497   5.907   3.887  13.202  0.1616  0.1004 -0.5639
14361TIP3    H164498   5.876   3.960  13.255 -1.2181  0.3705 -1.6685
14361TIP3    H264499   5.853   3.813  13.229 -0.4749  0.2138 -1.4762
14362TIP3   OH264500   3.234   1.152   4.852  0.5298 -0.3975  0.1466
14362TIP3    H164501   3.304   1.090   4.873  0.9985  0.1695  0.2903
14362TIP3    H264502   3.270   1.237   4.876 -0.9193 -0.2704  2.1046
14363TIP3   OH264503   0.764   5.345   5.673  0.1835 -0.2680  0.3392
14363TIP3    H164504   0.860   5.346   5.679  0.1250 -0.8673  1.7206
14363TIP3    H264505   0.736   5.295   5.749 -1.3039  1.3308  0.9010
14364TIP3   OH264506   3.963   5.656   4.584 -0.0253 -0.0961 -0.3569
14364TIP3    H164507   3.888   5.644   4.525  0.4787  0.1811 -1.0550
14364TIP3    H264508   4.025   5.709   4.535 -0.5691  2.2036  1.2772
14365TIP3   OH264509   2.464   0.143  14.034 -0.1501  0.0217  0.1760
14365TIP3    H164510   2.500   0.200  14.102 -0.3763 -0.5244  0.7682
14365TIP3    H264511   2.432   0.066  14.082 -0.6236 -0.2221 -0.5115
14366TIP3   OH264512   0.674   2.759   6.215 -0.4648 -0.1707  0.4620
14366TIP3    H164513   0.673   2.668   6.187 -0.4420  0.5216 -2.0493
14366TIP3    H264514   0.705   2.808   6.139  0.8876  1.8347  2.1651
14367TIP3   OH264515   1.763   4.419   3.694 -0.3891  0.2146 -0.6819
14367TIP3    H164516   1.777   4.495   3.751 -0.7192 -0.8590  0.8947
14367TIP3    H264517   1.840   4.364   3.707 -1.8779 -1.5640  1.3043
14368TIP3   OH264518   6.470   1.978  13.327 -0.3589 -0.1290 -0.3688
14368TIP3    H164519   6.396   1.976  13.388 -0.4270  0.4235 -0.4265
14368TIP3    H264520   6.429   1.981  13.240 -0.2846  0.6564 -0.3868
14369TIP3   OH264521   0.521   0.274  11.392  0.1598 -0.1198 -0.0558
14369TIP3    H164522   0.489   0.185  11.409  1.1546 -0.5621 -0.4001
14369TIP3    H264523   0.458   0.312  11.332  0.4882 -1.1152 -1.0520
14370TIP3   OH264524   2.338   3.075  12.016  0.2672  0.4431  0.2125
14370TIP3    H164525   2.359   3.151  11.962  1.3191 -0.2186 -0.3433
14370TIP3    H264526   2.244   3.061  12.004  0.4350  0.4693 -1.2346
14371TIP3   OH264527   6.244   2.103   5.640  0.1671  0.0075 -0.1071
14371TIP3    H164528   6.263   2.115   5.547  2.4368  0.2411  0.3222
14371TIP3    H264529   6.154   2.071   5.642 -0.8293  2.2825 -2.2280
14372TIP3   OH264530   3.630   1.020  11.917 -0.1053  0.1796  0.6282
14372TIP3    H164531   3.552   1.048  11.965 -0.0509  0.3691  0.6064
14372TIP3    H264532   3.600   0.944  11.865  0.1250 -0.7754  1.8486
14373TIP3   OH264533   1.041   3.653   1.801 -0.4859  0.3639  0.4170
14373TIP3    H164534   1.020   3.645   1.708 -0.4772  0.5905  0.3969
14373TIP3    H264535   0.967   3.612   1.846 -0.1461 -0.4199  0.2877
14374TIP3   OH264536   0.932   5.367  11.707  0.3662 -0.0766  0.0285
14374TIP3    H164537   0.972   5.447  11.742 -0.2626  1.7576 -3.0270
14374TIP3    H264538   0.958   5.299  11.768  3.5578  1.9127  1.1811
14375TIP3   OH264539   0.066   5.875   6.282 -0.2803 -0.1405 -0.6111
14375TIP3    H164540   0.129   5.809   6.310 -0.2914 -0.9323 -2.2978
14375TIP3    H264541   0.092   5.955   6.328  1.8517 -0.4926 -1.1159
14376TIP3   OH264542   4.872   5.756   2.187  0.2378  0.0932 -0.3968
14376TIP3    H164543   4.879   5.707   2.269 -0.5104  1.3513  0.4500
14376TIP3    H264544   4.815   5.830   2.208 -1.1900 -0.3566 -2.4350
14377TIP3   OH264545   6.444   3.317  14.122  0.5532 -0.0664 -0.4493
14377TIP3    H164546   6.436   3.285  14.032 -0.4275 -1.0162 -0.0433
14377TIP3    H264547   6.471   3.241  14.173  4.2500  1.1318 -0.3524
14378TIP3   OH264548   0.200   2.682  11.705 -0.5016 -0.0594  0.0551
14378TIP3    H164549   0.212   2.592  11.675 -0.6308  0.1486 -0.6474
14378TIP3    H264550   0.105   2.694  11.706 -0.4938  0.8099 -2.2311
14379TIP3   OH264551   5.779   6.145  12.131 -0.0503  0.3207 -0.1674
14379TIP3    H164552   5.739   6.176  12.212 -0.1009  0.3806 -0.2148
14379TIP3    H264553   5.716   6.169  12.063 -0.9664 -1.4933 -0.0273
14380TIP3   OH264554   3.339   2.418   3.201  0.2029  0.4958 -0.3784
14380TIP3    H164555   3.383   2.354   3.256  0.0368  0.2237 -0.5632
14380TIP3    H264556   3.302   2.367   3.129  0.4974  0.8565 -0.7922
14381TIP3   OH264557   4.683   1.751  15.537 -0.1680  0.0281  0.0384
14381TIP3    H164558   4.591   1.779  15.526 -0.0472 -0.1613 -1.7532
14381TIP3    H264559   4.706   1.712  15.453  1.9800  1.2997 -0.0225
14382TIP3   OH264560   0.021   0.179   0.937 -0.5437 -0.3232  0.4472
14382TIP3    H164561   0.096   0.143   0.985 -0.3602  0.3568  0.6688
14382TIP3    H264562  -0.039   0.208   1.005  0.6143  2.5986  0.3567
14383TIP3   OH264563   1.390   5.532  14.947  0.7004 -0.1382 -0.2198
14383TIP3    H164564   1.468   5.543  15.002  0.4711 -0.1564  0.1101
14383TIP3    H264565   1.425   5.510  14.861  1.0521 -1.8749  0.3167
14384TIP3   OH264566   6.782   2.327   0.202 -1.0343 -0.0361  0.0593
14384TIP3    H164567   6.852   2.262   0.198  0.4540  1.2034  2.9597
14384TIP3    H264568   6.717   2.297   0.139  1.1831 -2.3470 -1.2990
14385TIP3   OH264569   2.826   1.857  12.288 -0.1299 -0.2099  0.5824
14385TIP3    H164570   2.918   1.849  12.260  0.0588 -0.4848  1.2606
14385TIP3    H264571   2.797   1.767  12.303 -1.1218 -0.2899 -1.4550
14386TIP3   OH264572   2.648   5.210  12.180 -0.1940 -0.6087 -0.0362
14386TIP3    H164573   2.626   5.156  12.104  1.8005 -0.9151 -0.4675
14386TIP3    H264574   2.718   5.162  12.224 -0.3368  0.2626  1.1830
14387TIP3   OH264575   3.260   2.050  15.477 -0.0352  0.3042 -0.3990
14387TIP3    H164576   3.290   2.101  15.403  0.6370  0.4706 -0.0193
14387TIP3    H264577   3.308   1.967  15.471 -1.4093 -0.4743 -1.2396
14388TIP3   OH264578   0.544   3.493   3.522 -0.0432 -0.1665 -0.5479
14388TIP3    H164579   0.523   3.399   3.520 -1.2538 -0.0256  2.0878
14388TIP3    H264580   0.461   3.536   3.540  0.7989  1.2668  0.0645
14389TIP3   OH264581   3.930   0.257  16.949  0.2830  0.4422 -0.1580
14389TIP3    H164582   3.972   0.274  17.034  0.2275 -0.9748  0.1810
14389TIP3    H264583   3.841   0.290  16.959  0.9637  2.5055 -0.5186
14390TIP3   OH264584   1.893   6.788  14.573 -0.1986  0.0472 -0.0088
14390TIP3    H164585   1.928   6.784  14.484 -0.6002  2.8616 -0.3869
14390TIP3    H264586   1.817   6.730  14.571  0.1212 -0.3662 -1.3234
14391TIP3   OH264587   0.176   6.740   1.163  0.0083 -0.2856 -0.0259
14391TIP3    H164588   0.204   6.828   1.136  0.7334 -1.0644 -2.0496
14391TIP3    H264589   0.182   6.741   1.258  3.1999  0.8752 -0.1202
14392TIP3   OH264590   6.032   1.140  12.285 -0.3468  0.1958  0.1508
14392TIP3    H164591   5.945   1.163  12.253  0.0961  0.0239 -1.2319
14392TIP3    H264592   6.052   1.058  12.242 -0.0308 -0.4670  1.5098
14393TIP3   OH264593   4.718   5.202  16.168  0.1850 -0.4350 -0.0276
14393TIP3    H164594   4.722   5.298  16.178 -2.5688  0.0287 -2.1420
14393TIP3    H264595   4.647   5.188  16.105 -0.0425 -3.9432  0.8376
14394TIP3   OH264596   0.647   4.742   3.634 -0.5402 -0.6353 -0.3719
14394TIP3    H164597   0.710   4.797   3.682 -0.7136 -1.2238  0.5592
14394TIP3    H264598   0.620   4.675   3.697 -1.2855 -1.0441 -1.0952
14395TIP3   OH264599   2.544   6.026  13.946  0.2821 -0.0474  0.3266
14395TIP3    H164600   2.538   6.078  13.865  1.1196  0.7732  0.7706
14395TIP3    H264601   2.521   6.088  14.015  0.9802 -0.3623  0.8423
14396TIP3   OH264602   3.596   2.167  13.492  0.0687  0.2509 -0.3552
14396TIP3    H164603   3.521   2.113  13.516  0.1679  0.3556  0.2114
14396TIP3    H264604   3.643   2.116  13.426  1.6058 -1.6082  1.9967
14397TIP3   OH264605   2.336   3.973   2.916 -0.3437 -0.3215  0.3175
14397TIP3    H164606   2.296   3.927   2.989  0.2240  0.1580  0.9345
14397TIP3    H264607   2.315   4.065   2.931  0.2643 -0.1588  0.1819
14398TIP3   OH264608   2.463   2.149   4.764  0.0574 -0.4185 -0.2934
14398TIP3    H164609   2.519   2.178   4.693  0.9938  0.2379  0.6770
14398TIP3    H264610   2.506   2.070   4.798 -1.2073 -1.6422 -1.3958
14399TIP3   OH264611   6.023   0.739  12.549  0.4854 -0.4781 -0.1889
14399TIP3    H164612   5.984   0.826  12.535 -0.3724 -0.8224 -0.0066
14399TIP3    H264613   5.966   0.699  12.615  1.5471 -0.7508  0.5756
14400TIP3   OH264614   5.525   6.585   6.165 -0.2075  0.3716 -0.5515
14400TIP3    H164615   5.450   6.537   6.132 -1.0815  1.3708 -0.0865
14400TIP3    H264616   5.493   6.629   6.244  1.0386  0.3142  0.0196
14401TIP3   OH264617   3.928   2.023   5.809 -0.1226  0.1279  0.0782
14401TIP3    H164618   3.995   2.050   5.872  0.1094 -1.5684  0.5894
14401TIP3    H264619   3.911   1.931   5.829  1.1232 -0.9930 -3.3589
14402TIP3   OH264620   4.043   4.265   3.005  0.2186 -0.4253  0.0006
14402TIP3    H164621   3.981   4.322   2.959 -1.8164 -0.6461  2.2559
14402TIP3    H264622   4.103   4.326   3.048 -2.4147  0.3123  3.0573
14403TIP3   OH264623   5.376   6.322   1.767 -0.1130  0.4607 -0.7131
14403TIP3    H164624   5.342   6.240   1.732  0.4195  0.3231 -0.9171
14403TIP3    H264625   5.408   6.301   1.854  0.5829  0.3069 -0.9966
14404TIP3   OH264626   1.128   6.599  11.250  0.8161  0.2523 -0.3154
14404TIP3    H164627   1.207   6.618  11.199  1.2199  0.3990  0.3600
14404TIP3    H264628   1.091   6.685  11.269 -0.9401  0.1453 -2.8066
14405TIP3   OH264629   0.998   3.257   1.504  0.3026  0.0327  0.8165
14405TIP3    H164630   0.917   3.307   1.514  0.2474  0.0229  0.4485
14405TIP3    H264631   1.068   3.319   1.527  0.1126 -0.5202  3.0853
14406TIP3   OH264632   1.662   0.012  16.227  0.7167  0.6298  0.2223
14406TIP3    H164633   1.712  -0.043  16.287 -0.3142 -0.3506  0.2022
14406TIP3    H264634   1.708   0.096  16.229  1.6026  0.1511  1.1912
14407TIP3   OH264635   3.143   3.788  14.899  0.1867  0.4954 -0.1579
14407TIP3    H164636   3.171   3.832  14.819  0.5579  0.9290  0.2048
14407TIP3    H264637   3.076   3.845  14.936 -0.0956  0.2175 -0.2366
14408TIP3   OH264638   5.286   5.432   2.649  0.2766 -0.5706 -0.6549
14408TIP3    H164639   5.204   5.480   2.662  0.7568 -0.3574  2.0235
14408TIP3    H264640   5.353   5.499   2.643  0.6146 -0.8080  0.3222
14409TIP3   OH264641   4.010   6.030  17.071  0.5520  0.2824  0.7906
14409TIP3    H164642   4.098   6.067  17.072  0.4972  0.4282  0.2858
14409TIP3    H264643   3.951   6.105  17.059  0.3915  0.1315  0.6195
14410TIP3   OH264644   2.108   0.684   1.565  0.5911 -0.4290 -0.6795
14410TIP3    H164645   2.134   0.752   1.628  2.1385 -0.4086 -1.2927
14410TIP3    H264646   2.109   0.603   1.616  0.1469 -0.1878 -0.2802
14411TIP3   OH264647   0.004   4.326   3.069 -0.4144 -0.4405 -0.3671
14411TIP3    H164648   0.034   4.295   3.154 -0.4243 -0.4320 -0.3605
14411TIP3    H264649   0.069   4.293   3.007  0.9862  1.6183 -0.0999
14412TIP3   OH264650   4.697   3.650  16.564 -0.0298  0.1856  0.1236
14412TIP3    H164651   4.635   3.706  16.518  0.0772  0.0751 -0.1544
14412TIP3    H264652   4.703   3.571  16.511  1.4319  0.7612 -0.6287
14413TIP3   OH264653   3.096   5.359   0.245  0.4285 -1.1130 -0.4245
14413TIP3    H164654   3.109   5.349   0.339  0.6939 -1.4146 -0.4926
14413TIP3    H264655   3.007   5.327   0.229 -0.5592  1.1649  0.0791
14414TIP3   OH264656   3.429   2.692  12.655 -0.1068  0.2512 -0.3658
14414TIP3    H164657   3.503   2.667  12.711  0.1986  1.8786 -0.0014
14414TIP3    H264658   3.470   2.734  12.580 -0.6622  2.7465  0.6392
14415TIP3   OH264659   6.204   4.402   6.384 -0.4158  0.1879  0.2104
14415TIP3    H164660   6.262   4.335   6.420 -1.0092 -0.6546 -0.3939
14415TIP3    H264661   6.261   4.454   6.327  0.1956  0.6333  1.1844
14416TIP3   OH264662   3.637   3.802   2.686 -1.3248 -0.1401  0.0050
14416TIP3    H164663   3.732   3.810   2.681 -1.4023  1.4842  0.6106
14416TIP3    H264664   3.604   3.851   2.611 -1.6856 -2.6015 -1.5540
14417TIP3   OH264665   6.631   1.950   5.837 -0.0023  0.0909 -0.6719
14417TIP3    H164666   6.612   2.039   5.866 -0.3917 -0.5362  1.0891
14417TIP3    H264667   6.727   1.946   5.835  0.0304  0.8350 -1.7904
14418TIP3   OH264668   5.067   1.966   5.303  0.7640 -0.6492 -0.6355
14418TIP3    H164669   5.093   1.883   5.263  0.6439 -0.9337 -0.1263
14418TIP3    H264670   5.020   1.941   5.382  3.6686 -0.0966  1.4524
14419TIP3   OH264671   0.034   0.067  13.680 -0.6037  0.1020  0.2125
14419TIP3    H164672   0.014   0.159  13.696 -0.0827 -0.0198  1.6787
14419TIP3    H264673  -0.046   0.021  13.703 -0.6454  0.1343  0.1318
14420TIP3   OH264674   0.338   5.277   2.447 -0.2001 -0.6424 -0.2143
14420TIP3    H164675   0.306   5.358   2.486  1.5838 -0.4084  0.9033
14420TIP3    H264676   0.269   5.213   2.463 -1.6124  0.6132 -1.0681
14421TIP3   OH264677   2.558   4.594  13.310  0.1764  0.1423  0.7107
14421TIP3    H164678   2.482   4.651  13.320 -0.7510 -0.9004 -0.1051
14421TIP3    H264679   2.620   4.647  13.259 -1.5930 -0.2690 -2.1458
14422TIP3   OH264680   6.626   3.593  11.827 -0.6246  0.2844 -0.2718
14422TIP3    H164681   6.692   3.542  11.780 -1.7899 -1.1101 -0.4631
14422TIP3    H264682   6.593   3.534  11.895 -0.7530  1.4073  0.6722
14423TIP3   OH264683   3.632   5.165   5.212 -0.0233 -0.0740  0.0011
14423TIP3    H164684   3.676   5.247   5.236  1.0146 -0.1085 -1.6207
14423TIP3    H264685   3.633   5.113   5.292  2.8976 -0.0388  0.1045
14424TIP3   OH264686   2.592   1.029  12.082 -0.0078 -0.0788 -0.5257
14424TIP3    H164687   2.574   1.079  12.162  1.3719  0.6710 -0.6478
14424TIP3    H264688   2.677   0.988  12.097  0.7875  0.9270 -1.9778
14425TIP3   OH264689   5.778   0.144  11.264  0.1540 -0.6984 -0.1377
14425TIP3    H164690   5.825   0.226  11.273  2.2930 -1.6790 -1.5583
14425TIP3    H264691   5.699   0.167  11.215  0.4340  0.5734 -0.0246
14426TIP3   OH264692   0.311   4.032  11.694 -0.2127 -0.0384 -0.0773
14426TIP3    H164693   0.361   3.952  11.706  1.4165  1.1354  1.5158
14426TIP3    H264694   0.228   4.004  11.657  0.6774 -2.3372 -0.4672
14427TIP3   OH264695   4.617   5.275  12.738 -0.4831 -0.5494  0.2752
14427TIP3    H164696   4.522   5.281  12.749 -0.4401 -0.5007  0.6601
14427TIP3    H264697   4.637   5.334  12.666 -0.6666 -0.0049  0.6591
14428TIP3   OH264698   6.271   3.776  13.363 -0.1932 -0.0156  0.1366
14428TIP3    H164699   6.245   3.822  13.283 -0.6881 -0.4718  0.0337
14428TIP3    H264700   6.364   3.795  13.371 -0.2727  0.5519 -0.2069
14429TIP3   OH264701   1.253   6.520  11.846  0.1480  0.4162 -0.0642
14429TIP3    H164702   1.257   6.429  11.817  1.9897  0.0325  1.1692
14429TIP3    H264703   1.160   6.536  11.865 -0.4435 -0.6421 -1.8563
14430TIP3   OH264704   0.919   4.422   1.039 -0.1291 -0.2421 -0.4052
14430TIP3    H164705   0.864   4.493   1.072  0.1029 -0.6844  0.9906
14430TIP3    H264706   0.945   4.373   1.117  0.1461 -1.5570 -1.2891
14431TIP3   OH264707   5.727   2.969  16.784  0.4259  0.4912 -0.2247
14431TIP3    H164708   5.643   2.936  16.815  1.3859 -2.3734 -0.3047
14431TIP3    H264709   5.718   2.975  16.689 -0.6655  3.5138 -0.0195
14432TIP3   OH264710   0.769   1.800   0.047 -1.1178  0.2636  0.2383
14432TIP3    H164711   0.784   1.746   0.124 -5.1572  0.0978  1.1439
14432TIP3    H264712   0.718   1.744  -0.012 -0.8918  1.4437 -1.1428
14433TIP3   OH264713   4.149   6.462   5.110 -0.0234  0.7314 -0.1283
14433TIP3    H164714   4.083   6.426   5.168  0.2208 -0.0552 -0.3135
14433TIP3    H264715   4.111   6.543   5.076 -1.3029 -0.1886 -0.9824
14434TIP3   OH264716   3.751   6.784   5.529 -0.2790 -0.3526 -0.4414
14434TIP3    H164717   3.711   6.799   5.615  1.9164 -1.2000  0.8131
14434TIP3    H264718   3.679   6.794   5.467 -1.9584  0.2242  1.4852
14435TIP3   OH264719   4.290   6.417  15.897 -0.1370  0.1256 -0.1143
14435TIP3    H164720   4.288   6.454  15.809 -0.1819  0.0319 -0.1524
14435TIP3    H264721   4.359   6.351  15.894  0.9502  1.2096  0.3557
14436TIP3   OH264722   4.346   4.826   2.519 -0.9414  0.0906 -0.1174
14436TIP3    H164723   4.383   4.742   2.491  0.2380  1.0801 -1.6693
14436TIP3    H264724   4.335   4.876   2.438 -1.2704  1.5804  0.8018
14437TIP3   OH264725   1.697   0.677   1.681  0.5686  0.3582  0.2646
14437TIP3    H164726   1.725   0.612   1.746 -1.1685  0.3732  1.0928
14437TIP3    H264727   1.687   0.627   1.600  3.4232  0.4608 -0.2623
14438TIP3   OH264728   2.911   0.161   4.304  0.7093 -0.3448 -0.4620
14438TIP3    H164729   2.915   0.227   4.235  1.5668  2.2120  1.8313
14438TIP3    H264730   2.958   0.201   4.378  1.2286 -3.5525  1.1185
14439TIP3   OH264731   5.079   0.718  16.214 -0.2494  0.2702 -0.5404
14439TIP3    H164732   5.135   0.709  16.137  0.3749 -1.2193  0.0521
14439TIP3    H264733   5.124   0.669  16.283 -1.9548 -0.4483  0.1229
14440TIP3   OH264734   4.910   5.747  15.258  0.9121  0.3974  0.2539
14440TIP3    H164735   4.959   5.793  15.327 -0.1553  1.7727  0.1425
14440TIP3    H264736   4.973   5.685  15.221  2.6486  2.1831  0.0254
14441TIP3   OH264737   4.859   5.711  11.965  0.0076  0.1435 -0.8525
14441TIP3    H164738   4.795   5.722  11.895  0.8435 -0.7725 -1.8047
14441TIP3    H264739   4.811   5.666  12.034 -0.3079 -0.7975 -1.6645
14442TIP3   OH264740   1.478   3.266  16.534  0.5615 -0.1331 -0.1531
14442TIP3    H164741   1.396   3.310  16.513  1.0713  0.4761 -0.9213
14442TIP3    H264742   1.533   3.279  16.457  1.6175  0.0364  0.6028
14443TIP3   OH264743   6.496   5.255  15.299  0.3984 -0.3794  0.3736
14443TIP3    H164744   6.498   5.330  15.358 -1.3159 -0.6100  0.7908
14443TIP3    H264745   6.470   5.291  15.214 -0.9267 -0.5137  0.6886
14444TIP3   OH264746   5.684   5.902  13.825 -0.7136  0.6740 -0.0049
14444TIP3    H164747   5.674   5.945  13.910  0.1190  0.7185  0.0738
14444TIP3    H264748   5.602   5.921  13.779 -1.2420  0.5154  0.8428
14445TIP3   OH264749   0.541   2.249   4.058  0.6432  0.6711 -0.1814
14445TIP3    H164750   0.460   2.225   4.013  1.0854  0.3414 -0.8262
14445TIP3    H264751   0.610   2.234   3.993  1.0751  2.6511 -0.2467
14446TIP3   OH264752   0.380   6.179   4.629  0.6093  0.4739 -0.2867
14446TIP3    H164753   0.362   6.272   4.616  0.0739  0.5026  0.5591
14446TIP3    H264754   0.474   6.169   4.611  0.5747  1.0881 -0.8183
14447TIP3   OH264755   3.700   4.837  14.464  0.0129 -0.0126 -0.4824
14447TIP3    H164756   3.786   4.862  14.431  0.4797  1.8745  1.9367
14447TIP3    H264757   3.639   4.897  14.421  0.2730  0.6178  0.0288
14448TIP3   OH264758   6.220   3.848   0.960 -0.0972 -0.6572  0.2420
14448TIP3    H164759   6.293   3.840   0.899 -0.6931  1.8445 -0.9203
14448TIP3    H264760   6.244   3.792   1.034  2.6085 -0.5115 -0.4281
14449TIP3   OH264761   4.825   6.204  10.887 -1.4067  0.0292 -0.0811
14449TIP3    H164762   4.911   6.217  10.847 -0.8441  1.3462  1.4326
14449TIP3    H264763   4.764   6.243  10.825 -0.6168  1.5323  0.0402
14450TIP3   OH264764   4.914   5.998   2.969 -1.0149 -0.5910 -0.4256
14450TIP3    H164765   4.909   5.974   3.062  0.1662 -1.0224 -0.4643
14450TIP3    H264766   4.865   5.929   2.925 -0.3248 -1.2108 -0.2446
14451TIP3   OH264767   1.906   3.995   2.321 -0.1003  0.1663 -0.1342
14451TIP3    H164768   1.912   3.900   2.316 -1.0242  0.1301 -0.9219
14451TIP3    H264769   1.918   4.016   2.414 -0.0127 -0.7254  0.0571
14452TIP3   OH264770   2.697   5.097  16.421  0.6325 -0.3394 -0.0783
14452TIP3    H164771   2.649   5.034  16.367  1.7189  0.6779 -2.3816
14452TIP3    H264772   2.679   5.070  16.511 -0.5101 -2.7285 -0.9285
14453TIP3   OH264773   1.239   6.527  14.195 -0.7893  0.4497 -0.1524
14453TIP3    H164774   1.208   6.554  14.282 -3.5988  0.9972 -1.2100
14453TIP3    H264775   1.240   6.432  14.199 -1.7006  0.4427  0.2758
14454TIP3   OH264776   1.133   4.575  11.850  0.0053  0.0703  0.0715
14454TIP3    H164777   1.223   4.601  11.830 -0.3649  1.6075  0.2855
14454TIP3    H264778   1.092   4.565  11.764  0.9745 -3.1499 -0.1529
14455TIP3   OH264779   6.686   6.363  15.993  0.5056 -0.3215  0.1091
14455TIP3    H164780   6.658   6.454  16.007  1.5702 -0.1133  1.0020
14455TIP3    H264781   6.609   6.311  16.015  0.1294  0.3296  0.3776
14456TIP3   OH264782   3.557   0.589  17.143  0.0832  0.1420  0.0475
14456TIP3    H164783   3.554   0.670  17.091  0.7218  0.3942  0.3894
14456TIP3    H264784   3.528   0.616  17.230 -1.2722 -0.3413 -0.2287
14457TIP3   OH264785   5.253   1.669  12.847  0.1874 -0.0911  0.0041
14457TIP3    H164786   5.327   1.668  12.908  0.1740 -1.3937  0.0373
14457TIP3    H264787   5.217   1.757  12.854  0.9259  0.1525  0.9836
14458TIP3   OH264788   0.882   5.904  16.380  0.4678  0.7100  0.4580
14458TIP3    H164789   0.837   5.846  16.318  3.1850 -1.0556 -0.0177
14458TIP3    H264790   0.955   5.941  16.330  1.3532  1.0944  1.9628
14459TIP3   OH264791   5.909   6.695   4.668 -0.4807  0.1595  0.1713
14459TIP3    H164792   5.941   6.777   4.706  0.5325  0.4675 -1.2903
14459TIP3    H264793   5.857   6.722   4.592 -0.5427 -0.5370 -0.0458
14460TIP3   OH264794   4.555   4.198   2.925 -0.2397 -0.0081 -0.1284
14460TIP3    H164795   4.475   4.237   2.890 -0.4093 -0.9129 -0.7891
14460TIP3    H264796   4.531   4.107   2.942  0.7771 -0.4118 -0.7652
14461TIP3   OH264797   5.634   0.333  10.641  0.3861  0.2559 -0.0917
14461TIP3    H164798   5.646   0.239  10.650 -0.9301  0.0742 -0.1708
14461TIP3    H264799   5.711   0.362  10.592  0.1559 -0.9682 -1.2379
14462TIP3   OH264800   1.422   1.899  13.446 -0.0545  0.3676 -0.2939
14462TIP3    H164801   1.508   1.857  13.446  0.1150  0.7132 -0.2378
14462TIP3    H264802   1.380   1.867  13.367 -0.6963 -1.4823  0.7162
14463TIP3   OH264803   2.179   2.139   4.825 -0.0592 -0.3785  0.5065
14463TIP3    H164804   2.146   2.066   4.773 -0.9702 -0.7876  1.6319
14463TIP3    H264805   2.275   2.130   4.821 -0.1289 -0.8705 -0.3960
14464TIP3   OH264806   4.771   3.336   0.486 -0.2305  0.0788 -0.2917
14464TIP3    H164807   4.734   3.322   0.399 -0.5052 -0.8848 -0.0323
14464TIP3    H264808   4.700   3.377   0.536 -0.0257  0.7641 -0.5545
14465TIP3   OH264809   4.649   3.823  12.046 -0.3595  0.4722  0.2007
14465TIP3    H164810   4.687   3.904  12.013  2.7530 -1.0352 -0.2916
14465TIP3    H264811   4.632   3.841  12.139  0.0601  1.7512  0.0562
14466TIP3   OH264812   3.860   0.295   3.638 -0.3476  0.2244 -0.3268
14466TIP3    H164813   3.844   0.389   3.639  0.4700  0.3726  0.3601
14466TIP3    H264814   3.944   0.285   3.594  0.0554 -0.0866  0.4870
14467TIP3   OH264815   4.184   3.192   1.431 -0.2679 -0.0741 -0.2365
14467TIP3    H164816   4.161   3.173   1.340  0.5070 -0.3230 -0.3951
14467TIP3    H264817   4.272   3.229   1.426  1.6334 -3.9181  0.6603
14468TIP3   OH264818   2.995   0.098  11.994  0.2022 -0.6605 -0.4521
14468TIP3    H164819   3.044   0.029  11.948 -2.7979 -2.5492 -1.1072
14468TIP3    H264820   2.954   0.149  11.924  1.7752  1.4574  0.0525
14469TIP3   OH264821   5.826   3.260   3.232 -0.0280  0.2419 -0.4306
14469TIP3    H164822   5.834   3.165   3.230 -1.7421  0.0551  0.1506
14469TIP3    H264823   5.758   3.280   3.167 -0.0907  1.0076 -0.1422
14470TIP3   OH264824   2.588   4.912   0.635  0.1055  0.0921  0.3144
14470TIP3    H164825   2.516   4.862   0.673 -0.7878  1.4395  0.4663
14470TIP3    H264826   2.667   4.868   0.666 -0.6059  0.3033  2.6161
14471TIP3   OH264827   3.920   6.267   0.051 -0.5092  0.1326  0.5728
14471TIP3    H164828   3.864   6.337   0.018 -0.5025  0.5798  1.4645
14471TIP3    H264829   3.878   6.187   0.022 -0.4675  0.5022 -0.5434
14472TIP3   OH264830   5.722   1.083  13.351 -0.3165  0.0293 -0.2189
14472TIP3    H164831   5.692   1.041  13.431  0.2802  0.7562  0.3967
14472TIP3    H264832   5.643   1.109  13.305 -0.6496  0.0903  0.3908
14473TIP3   OH264833   4.433   3.025  17.111 -0.3694  0.4596  0.2282
14473TIP3    H164834   4.528   3.029  17.121 -0.4020 -0.9238  1.3247
14473TIP3    H264835   4.416   3.073  17.030  1.2606  0.6803 -0.0227
14474TIP3   OH264836   4.932   1.331   1.716 -0.3540  0.4461  0.6072
14474TIP3    H164837   4.932   1.236   1.707 -0.7690  0.0646  3.6134
14474TIP3    H264838   4.878   1.362   1.642 -1.1123 -1.7161  0.1798
14475TIP3   OH264839   1.978   6.695   0.530 -0.8426  0.0237  0.0887
14475TIP3    H164840   1.964   6.723   0.439 -0.8461  0.0815  0.1070
14475TIP3    H264841   2.064   6.652   0.529 -0.6553  0.3970  0.1442
14476TIP3   OH264842   2.729   2.080   0.019  0.2711  0.1850 -0.2872
14476TIP3    H164843   2.696   2.166   0.042  0.0187  0.0324 -0.0682
14476TIP3    H264844   2.815   2.096  -0.020  0.5550  0.4741  0.4502
14477TIP3   OH264845   0.425   1.982  11.598 -0.7836  0.2264  0.7018
14477TIP3    H164846   0.494   2.045  11.581  0.5176 -1.5739 -1.1848
14477TIP3    H264847   0.358   2.000  11.532 -0.8342  0.1976  0.7439
14478TIP3   OH264848   6.226   0.949  10.377  0.9434 -0.0943  0.3459
14478TIP3    H164849   6.230   0.870  10.432  2.4003  0.2540  0.8049
14478TIP3    H264850   6.221   0.916  10.288 -0.3765 -0.6812  0.6166
14479TIP3   OH264851   6.267   0.844   4.074 -0.1881  0.9164 -0.5828
14479TIP3    H164852   6.190   0.841   4.018 -1.3177  0.5218  0.9356
14479TIP3    H264853   6.318   0.767   4.050 -0.1392  1.2898 -1.7307
14480TIP3   OH264854   3.922   0.722   4.161 -0.0679  0.1286 -0.4241
14480TIP3    H164855   3.995   0.750   4.105  0.4054 -1.5254 -0.6905
14480TIP3    H264856   3.877   0.655   4.109  0.8897 -2.0850  1.4074
14481TIP3   OH264857   4.040   5.767  11.770  0.3676 -0.7567 -0.3853
14481TIP3    H164858   4.111   5.829  11.786 -0.7489  0.6375 -0.5387
14481TIP3    H264859   4.073   5.683  11.801  1.0817  0.3586  2.1422
14482TIP3   OH264860   3.337   4.171   3.172  1.1681  0.1532 -0.4165
14482TIP3    H164861   3.297   4.180   3.258  2.1246 -1.9983  0.3158
14482TIP3    H264862   3.378   4.085   3.173  2.8574  0.8483 -2.3513
14483TIP3   OH264863   3.279   6.192   4.116 -0.2207 -0.3577 -0.6727
14483TIP3    H164864   3.322   6.164   4.035  0.5335 -0.7509 -0.1480
14483TIP3    H264865   3.329   6.151   4.186 -0.5572  0.3769  0.0264
14484TIP3   OH264866   1.984   6.044  12.853 -0.3328  0.2009 -0.0453
14484TIP3    H164867   1.938   6.117  12.896  0.9870  0.6705  0.6452
14484TIP3    H264868   2.006   5.985  12.924 -0.2464 -0.2298 -0.4278
14485TIP3   OH264869   4.406   4.405   2.120  0.3035 -0.3250 -0.0016
14485TIP3    H164870   4.462   4.350   2.065  0.0294 -1.7465  1.0825
14485TIP3    H264871   4.399   4.357   2.203 -1.5850  0.3468  0.2827
14486TIP3   OH264872   0.049   3.424   5.229 -0.7627  0.0446 -0.5407
14486TIP3    H164873  -0.001   3.380   5.298 -0.3799 -1.4165 -1.1436
14486TIP3    H264874   0.131   3.450   5.272 -0.8574 -0.1421 -0.2400
14487TIP3   OH264875   5.386   4.354   2.079 -0.3762  0.1807 -0.3362
14487TIP3    H164876   5.459   4.295   2.098  0.4656  1.5237  0.8299
14487TIP3    H264877   5.400   4.381   1.988  0.4228  0.1941 -0.2167
14488TIP3   OH264878   2.489   4.792  10.926  0.3505 -0.2034 -0.3900
14488TIP3    H164879   2.395   4.780  10.916  0.1419 -0.1248  1.1091
14488TIP3    H264880   2.529   4.725  10.871 -0.6225 -1.3619  0.2799
14489TIP3   OH264881   4.848   5.432  12.307  0.5272 -0.3011 -0.1821
14489TIP3    H164882   4.818   5.379  12.381 -1.0553  0.0963 -0.4997
14489TIP3    H264883   4.868   5.369  12.238  2.6858 -0.7288  0.7605
14490TIP3   OH264884   4.315   0.875  15.211  0.3620 -0.1638 -0.3934
14490TIP3    H164885   4.349   0.959  15.239  0.4697 -0.8711  1.8257
14490TIP3    H264886   4.229   0.894  15.175 -2.7792  0.5468  6.0058
14491TIP3   OH264887   2.417   3.387  13.524 -0.8787 -0.0910  0.3456
14491TIP3    H164888   2.366   3.410  13.446  0.1496 -0.7739 -0.5603
14491TIP3    H264889   2.453   3.470  13.554  1.1514 -0.1438 -1.7051
14492TIP3   OH264890   1.820   2.411   4.687  0.5999 -0.0608 -0.3846
14492TIP3    H164891   1.834   2.388   4.779 -0.2039 -0.3749 -0.3318
14492TIP3    H264892   1.885   2.360   4.639  1.1833  0.2881  0.0223
14493TIP3   OH264893   3.192   3.028   4.654  0.2845 -0.2730  0.6918
14493TIP3    H164894   3.137   3.096   4.692  0.0040  0.1952 -0.5040
14493TIP3    H264895   3.143   2.947   4.668 -1.3051  0.2525 -1.2816
14494TIP3   OH264896   2.905   2.327   0.103 -0.3599  0.3308  0.0081
14494TIP3    H164897   2.815   2.359   0.105 -0.7826 -0.6936 -1.1194
14494TIP3    H264898   2.914   2.275   0.183 -1.0587 -0.2599 -0.2822
14495TIP3   OH264899   4.200   3.815   2.503  0.4710  0.1664 -0.1304
14495TIP3    H164900   4.293   3.792   2.501  0.8334  1.5550 -0.3635
14495TIP3    H264901   4.197   3.904   2.469 -0.9477  0.1659 -0.0523
14496TIP3   OH264902   3.863   4.231   2.436  0.2882 -0.0201  0.3764
14496TIP3    H164903   3.896   4.320   2.453 -1.0291  0.5928 -0.1516
14496TIP3    H264904   3.881   4.216   2.343 -1.0347  0.4034  0.0285
14497TIP3   OH264905   2.462   2.500  11.956  0.0166 -0.5844 -0.2509
14497TIP3    H164906   2.527   2.435  11.929  1.2021  0.8839 -1.0993
14497TIP3    H264907   2.445   2.551  11.877 -0.1944  0.6965  0.5891
14498TIP3   OH264908   4.982   0.661   0.898 -0.0119 -0.4610 -0.9272
14498TIP3    H164909   4.968   0.756   0.890 -0.3941 -0.6483 -2.7181
14498TIP3    H264910   5.055   0.653   0.961 -0.1885  0.9902 -0.4999
14499TIP3   OH264911   3.842   2.393   1.139  0.1709  0.3127  0.3311
14499TIP3    H164912   3.790   2.466   1.173  0.2128  0.6101 -0.2338
14499TIP3    H264913   3.859   2.338   1.216 -0.1709  0.7050  0.6940
14500TIP3   OH264914   0.555   2.284  12.366 -0.2776  0.2278  0.2019
14500TIP3    H164915   0.592   2.255  12.283 -0.4356 -0.5991  0.4109
14500TIP3    H264916   0.626   2.335  12.407  0.4981 -0.9366  0.3821
14501TIP3   OH264917   5.526   2.151  12.093 -0.0011  0.0096  0.4847
14501TIP3    H164918   5.459   2.215  12.117 -0.5202 -0.2129 -0.3426
14501TIP3    H264919   5.609   2.195  12.115 -0.3741  0.6790  0.5942
14502TIP3   OH264920   3.553   6.617  16.844 -0.0089  0.2356  0.7632
14502TIP3    H164921   3.576   6.526  16.825 -1.7898 -0.2865  0.8585
14502TIP3    H264922   3.471   6.631  16.796 -0.5851  1.2811  1.9939
14503TIP3   OH264923   2.060   4.031   2.698  0.1758  0.0424 -0.0899
14503TIP3    H164924   2.109   4.105   2.733 -0.8349  1.4330 -1.4886
14503TIP3    H264925   2.036   3.980   2.776 -0.1209  1.8080  1.0428
14504TIP3   OH264926   4.044   6.524   3.479 -0.3244  0.0391  0.0357
14504TIP3    H164927   4.028   6.538   3.573 -1.4011 -1.4518  0.1116
14504TIP3    H264928   4.056   6.430   3.471 -1.0886  0.0439 -1.4344
14505TIP3   OH264929   0.779   3.790  16.844 -0.7007  0.4184  0.1956
14505TIP3    H164930   0.718   3.727  16.807 -1.0073  1.0633 -0.4057
14505TIP3    H264931   0.740   3.813  16.929 -1.0452  0.4683  0.0257
14506TIP3   OH264932   4.628   1.517   3.623 -0.1418  0.2121 -0.1569
14506TIP3    H164933   4.714   1.508   3.665  0.0890  1.0427 -0.4365
14506TIP3    H264934   4.648   1.536   3.532 -0.6328 -0.0530 -0.3184
14507TIP3   OH264935   4.026   5.653   6.910  0.3213 -0.0361 -0.2612
14507TIP3    H164936   4.074   5.572   6.929 -0.1999 -0.3974 -0.4399
14507TIP3    H264937   3.937   5.635   6.941  0.1314  0.3603 -0.5770
14508TIP3   OH264938   0.292   0.398   0.938 -0.6473  0.0526  0.1735
14508TIP3    H164939   0.265   0.488   0.957  0.0302  0.4918 -0.8369
14508TIP3    H264940   0.224   0.365   0.878 -1.0432 -0.2081  0.7624
14509TIP3   OH264941   1.896   0.877  11.178  0.0880 -0.0529  0.2386
14509TIP3    H164942   1.921   0.815  11.108 -0.6333 -1.4868  1.2018
14509TIP3    H264943   1.976   0.927  11.195  0.7637 -0.8712 -0.4199
14510TIP3   OH264944   4.342   2.076   0.555  0.2231  0.4097 -0.7158
14510TIP3    H164945   4.278   2.005   0.552  0.2436  0.2441  1.3313
14510TIP3    H264946   4.370   2.087   0.465 -1.1421 -0.9373 -1.3450
14511TIP3   OH264947   4.204   3.207  12.949  0.0569 -0.0998  0.1991
14511TIP3    H164948   4.125   3.203  12.894  0.4341  0.1830 -0.3693
14511TIP3    H264949   4.170   3.216  13.039 -0.5600  1.4969 -0.1547
14512TIP3   OH264950   4.003   1.943  11.992  0.5833  0.1424 -0.1721
14512TIP3    H164951   3.973   1.852  11.994 -0.8977  0.5272 -1.7556
14512TIP3    H264952   3.928   1.992  11.958  1.6367  1.8455 -0.1862
14513TIP3   OH264953   5.129   3.248  10.714  0.3285 -0.0086  0.0357
14513TIP3    H164954   5.208   3.285  10.752  1.3770 -1.4378 -0.6520
14513TIP3    H264955   5.126   3.158  10.746 -0.5348 -0.2437 -0.6469
14514TIP3   OH264956   2.369   0.125  16.912  0.9443  0.0001 -0.0314
14514TIP3    H164957   2.319   0.071  16.974  2.1064 -2.1104 -0.8450
14514TIP3    H264958   2.423   0.062  16.864  2.9785  1.9957 -0.4857
14515TIP3   OH264959   1.144   2.301  11.096  0.2459 -0.2082 -0.4029
14515TIP3    H164960   1.118   2.345  11.014 -1.0929  1.9161  1.0477
14515TIP3    H264961   1.207   2.361  11.136  2.0446 -1.9393 -0.4961
14516TIP3   OH264962   5.765   5.109   3.059  0.4198  0.2782 -0.1404
14516TIP3    H164963   5.735   5.019   3.050  0.9604  0.0258  0.4599
14516TIP3    H264964   5.741   5.151   2.977 -0.2042 -0.3046 -0.2639
14517TIP3   OH264965   3.572   5.584  11.987  0.0809 -0.2451  0.1116
14517TIP3    H164966   3.662   5.615  11.974  0.3881 -1.8137 -2.0443
14517TIP3    H264967   3.580   5.489  11.996 -1.2715 -0.2799  1.2537
14518TIP3   OH264968   2.008   4.144   5.637 -0.1595 -0.1448 -0.0460
14518TIP3    H164969   1.930   4.090   5.629 -0.2840  0.0121  0.1161
14518TIP3    H264970   1.989   4.222   5.584 -0.0977 -0.1252 -0.0394
14519TIP3   OH264971   2.427   4.297  16.044 -0.2492  0.4423 -0.4362
14519TIP3    H164972   2.520   4.296  16.068 -0.6028  0.3111  1.0284
14519TIP3    H264973   2.418   4.372  15.986  0.4456  1.5834  0.8770
14520TIP3   OH264974   1.243   1.773  10.892 -0.7143  0.5697 -0.4110
14520TIP3    H164975   1.288   1.802  10.812 -3.1838  3.4058 -0.9477
14520TIP3    H264976   1.189   1.699  10.863 -1.3175  1.3451 -1.3403
14521TIP3   OH264977   2.423   6.081   3.973 -0.6030 -0.0981 -0.1508
14521TIP3    H164978   2.395   6.003   4.021  0.2007 -0.1757  0.2017
14521TIP3    H264979   2.478   6.046   3.902  1.1419  0.2330  0.9901
14522TIP3   OH264980   2.152   6.450   6.480 -0.4546  0.0735  0.1611
14522TIP3    H164981   2.092   6.516   6.515 -0.8947  0.9632 -2.1015
14522TIP3    H264982   2.096   6.375   6.460 -0.0344 -0.8822  2.2251
14523TIP3   OH264983   5.301   1.022   6.145  0.1943  0.3561 -0.0840
14523TIP3    H164984   5.299   0.927   6.153  0.1713  0.3618 -0.0230
14523TIP3    H264985   5.238   1.053   6.210  0.3475  0.4222  0.0352
14524TIP3   OH264986   0.915   1.862   0.697 -0.5885 -0.3130  0.0434
14524TIP3    H164987   0.941   1.770   0.692 -0.6520 -0.2663 -2.3856
14524TIP3    H264988   0.923   1.894   0.608 -1.5154  1.8000  0.6500
14525TIP3   OH264989   1.528   4.787  11.393  0.1557  0.1741 -0.1827
14525TIP3    H164990   1.450   4.732  11.397  1.0092 -1.1093 -0.6622
14525TIP3    H264991   1.543   4.802  11.300  1.4467 -1.0742 -0.2226
14526TIP3   OH264992   6.658   3.431   6.021  0.5293  0.7492  0.0573
14526TIP3    H164993   6.726   3.364   6.024  0.3692  0.6127  0.6901
14526TIP3    H264994   6.683   3.487   5.948  0.8367  0.1857 -0.2758
14527TIP3   OH264995   4.193   4.011   0.392  0.1964 -1.3209 -0.7692
14527TIP3    H164996   4.256   4.014   0.320  1.0679 -0.3120 -0.0018
14527TIP3    H264997   4.233   4.066   0.460 -2.4173  1.0366 -0.9711
14528TIP3   OH264998   4.717   4.737   4.395  0.6191 -0.1993 -0.1976
14528TIP3    H164999   4.759   4.672   4.452  2.6710  0.5583 -0.7336
14528TIP3    H265000   4.696   4.689   4.315  0.1973 -0.6595  0.1837
14529TIP3   OH265001   5.315   0.825   3.988 -0.2383  0.3970  0.5121
14529TIP3    H165002   5.260   0.848   4.063  0.0210 -0.2550  0.9163
14529TIP3    H265003   5.288   0.885   3.918 -0.3495  1.1364  1.1817
14530TIP3   OH265004   0.068   3.971  11.535  0.1973 -0.3068  0.6301
14530TIP3    H165005   0.052   3.885  11.498 -1.5448 -0.1879  1.0227
14530TIP3    H265006   0.109   4.021  11.464 -1.2055 -0.6804 -0.4800
14531TIP3   OH265007   0.253   1.716  15.031 -0.8691  0.1558 -0.1018
14531TIP3    H165008   0.278   1.629  15.001 -0.5938  0.2093 -0.0271
14531TIP3    H265009   0.273   1.773  14.956  1.3945  0.5493  0.7296
14532TIP3   OH265010   0.284   4.402   0.613 -0.4245  0.0889 -0.2773
14532TIP3    H165011   0.304   4.379   0.703 -0.1841 -1.1994 -0.6411
14532TIP3    H265012   0.359   4.453   0.583  1.4197 -2.7808 -0.9248
14533TIP3   OH265013   4.302   0.305  14.250 -0.1384  0.3254 -0.0220
14533TIP3    H165014   4.367   0.246  14.212  1.5732  2.4023 -0.5043
14533TIP3    H265015   4.292   0.275  14.341  1.6759  0.0691  0.1222
14534TIP3   OH265016   5.172   6.542  12.715  0.0705  0.3466  0.2403
14534TIP3    H165017   5.205   6.533  12.804 -0.9087 -1.6257  0.4656
14534TIP3    H265018   5.242   6.509  12.659  0.3695  0.8119  0.3423
14535TIP3   OH265019   1.244   2.617   2.616 -0.0118 -0.0396 -0.1658
14535TIP3    H165020   1.266   2.524   2.625 -0.2310  0.0343  1.2696
14535TIP3    H265021   1.304   2.648   2.548  0.1802 -1.1849 -0.5573
14536TIP3   OH265022   6.259   5.398   3.438  0.2056 -0.1427  0.2233
14536TIP3    H165023   6.280   5.453   3.363  0.6279  0.9918  1.1359
14536TIP3    H265024   6.326   5.330   3.438 -0.1400 -0.4953 -0.7430
14537TIP3   OH265025   6.694   6.424  16.299  0.1831  0.4225  0.2314
14537TIP3    H165026   6.619   6.365  16.314  0.0889  0.9070  1.9100
14537TIP3    H265027   6.679   6.497  16.359  2.6755 -0.1196  1.6271
14538TIP3   OH265028   6.191   0.855   4.802  0.3806  0.0205  0.3094
14538TIP3    H165029   6.237   0.787   4.850  1.7965  0.2063 -0.7306
14538TIP3    H265030   6.189   0.824   4.712 -1.1236  0.2518  0.2400
14539TIP3   OH265031   1.184   1.521  16.335 -0.3623  0.3639 -0.3630
14539TIP3    H165032   1.192   1.611  16.303 -0.7161  0.6011  0.2024
14539TIP3    H265033   1.214   1.525  16.425  1.3612 -0.4482 -0.8581
14540TIP3   OH265034   4.786   0.498   1.343  0.4564  0.1513 -0.2645
14540TIP3    H165035   4.838   0.418   1.339  0.1331 -0.0751 -0.0114
14540TIP3    H265036   4.765   0.508   1.435  1.6533  1.2874 -0.0966
14541TIP3   OH265037   4.486   5.710   1.428  0.0168 -0.4893  0.6419
14541TIP3    H165038   4.427   5.711   1.503 -0.6000  0.3285  0.1652
14541TIP3    H265039   4.436   5.666   1.359 -0.7900  1.7809 -0.3123
14542TIP3   OH265040   4.219   2.475  13.060 -0.1458 -0.1904 -0.0017
14542TIP3    H165041   4.130   2.474  13.023 -0.1970 -2.9895 -0.0370
14542TIP3    H265042   4.260   2.551  13.021 -2.4456  1.0617 -0.1760
14543TIP3   OH265043   4.100   3.303  13.857  0.1931 -0.0362  0.3456
14543TIP3    H165044   4.076   3.382  13.905 -0.6520  1.0025 -1.6547
14543TIP3    H265045   4.186   3.322  13.820 -0.4893  0.4543 -1.0671
14544TIP3   OH265046   1.548   2.725   1.098 -0.1195 -0.8537 -0.5556
14544TIP3    H165047   1.465   2.712   1.143 -0.4128  1.7129 -0.1934
14544TIP3    H265048   1.524   2.769   1.016  0.8888  0.0720 -0.3756
14545TIP3   OH265049   6.173   6.324   1.775 -1.1252  0.1556  0.5727
14545TIP3    H165050   6.206   6.314   1.686 -0.4622  2.8822  0.4403
14545TIP3    H265051   6.083   6.355   1.764 -1.2867 -0.1853  0.8884
14546TIP3   OH265052   4.269   4.680   5.637  0.0449  0.5376  0.5180
14546TIP3    H165053   4.313   4.656   5.719  0.0907 -1.7501 -0.0866
14546TIP3    H265054   4.209   4.750   5.661  3.3448  3.2735  1.5414
14547TIP3   OH265055   2.007   0.686  13.703  0.1400  0.2139 -0.1492
14547TIP3    H165056   1.936   0.686  13.639 -0.6375 -0.6943  0.6769
14547TIP3    H265057   2.052   0.770  13.689 -0.3389  0.2688 -1.4971
14548TIP3   OH265058   3.560   3.532  16.359  0.0746  0.1969  0.8624
14548TIP3    H165059   3.493   3.468  16.334 -1.4905  1.9922  0.1807
14548TIP3    H265060   3.634   3.479  16.389 -1.1534 -1.9049  0.4029
14549TIP3   OH265061   5.254   4.540  16.096  0.7005 -0.1707 -0.1076
14549TIP3    H165062   5.256   4.633  16.075 -0.8746 -0.3015 -1.0505
14549TIP3    H265063   5.240   4.497  16.012  0.7182 -1.2018  0.4013
14550TIP3   OH265064   1.739   5.213  15.966 -0.2506 -0.1589  0.4465
14550TIP3    H165065   1.798   5.139  15.956  0.7943  0.7384 -0.2685
14550TIP3    H265066   1.652   5.174  15.976 -0.1953 -1.4943 -2.9570
14551TIP3   OH265067   0.789   5.672  15.386 -0.5507  0.2191 -0.0064
14551TIP3    H165068   0.713   5.643  15.436 -0.4090 -0.7305 -0.3340
14551TIP3    H265069   0.851   5.703  15.452 -0.7857 -0.0258  0.3303
14552TIP3   OH265070   5.168   1.873  17.191  0.2435  0.3269 -0.3394
14552TIP3    H165071   5.242   1.932  17.180  1.4053 -1.1519 -0.8495
14552TIP3    H265072   5.153   1.836  17.104 -0.7365  0.1807 -0.1258
14553TIP3   OH265073   0.669   6.438   5.443  0.7111  0.0496 -0.0357
14553TIP3    H165074   0.644   6.401   5.358 -0.5151  0.5864  0.0713
14553TIP3    H265075   0.635   6.528   5.441 -0.0185 -0.1740  1.3206
14554TIP3   OH265076   4.665   4.048  14.588  0.3621  0.0919  0.0589
14554TIP3    H165077   4.605   3.973  14.594  1.1592 -0.4390  2.5836
14554TIP3    H265078   4.609   4.124  14.606  0.0910 -0.2070  0.5037
14555TIP3   OH265079   1.274   6.253  13.445 -0.4036  0.0267 -0.1479
14555TIP3    H165080   1.267   6.344  13.414 -2.5350 -0.4661 -1.2624
14555TIP3    H265081   1.363   6.248  13.481  0.0653  2.3262 -0.7696
14556TIP3   OH265082   6.097   5.541   4.617  0.4849  0.1227 -0.1001
14556TIP3    H165083   6.038   5.611   4.645  2.5983  1.5422  1.0742
14556TIP3    H265084   6.042   5.463   4.617 -1.1901  1.1889  1.8372
14557TIP3   OH265085   3.618   5.399   4.964  0.0615 -0.1090 -0.0203
14557TIP3    H165086   3.670   5.356   5.032  0.1084 -0.1229 -0.0648
14557TIP3    H265087   3.527   5.381   4.989  0.0844 -0.3763 -0.1290
14558TIP3   OH265088   3.244   5.115   0.145 -0.1337 -0.5148 -0.4627
14558TIP3    H165089   3.252   5.130   0.239 -1.6547  3.6688 -0.8097
14558TIP3    H265090   3.330   5.136   0.110 -0.1069 -0.1534 -0.1855
14559TIP3   OH265091   0.807   4.964   4.130 -0.2227 -0.1102  0.0190
14559TIP3    H165092   0.850   4.986   4.048 -0.9170  0.6215 -0.1655
14559TIP3    H265093   0.865   4.997   4.198 -0.9030  1.7796 -0.2392
14560TIP3   OH265094   4.920   5.125   4.087  0.3388 -0.6393  0.5712
14560TIP3    H165095   4.852   5.182   4.123 -0.7367 -0.8732 -0.9845
14560TIP3    H265096   4.990   5.185   4.060 -0.7706  0.0207 -1.0268
14561TIP3   OH265097   5.084   5.560   3.932  0.5352 -0.4143  0.2597
14561TIP3    H165098   5.168   5.588   3.967  0.1955  0.6298  0.2707
14561TIP3    H265099   5.084   5.593   3.842 -0.0993  0.1286  0.4481
14562TIP3   OH265100   2.240   2.170  15.706 -0.3161  0.0662 -0.6776
14562TIP3    H165101   2.184   2.101  15.672  0.4231 -1.3448  0.8019
14562TIP3    H265102   2.219   2.175  15.799  1.3582  0.1100 -0.2558
14563TIP3   OH265103   6.153   6.136   6.696  0.7426  0.1743  0.1781
14563TIP3    H165104   6.230   6.192   6.691  0.6948  0.1163 -2.1841
14563TIP3    H265105   6.170   6.065   6.634  0.0801 -1.5474  1.8667
14564TIP3   OH265106   6.492   3.185   4.040 -0.2153  0.4942 -0.3653
14564TIP3    H165107   6.534   3.238   3.973  0.0672 -0.5027 -0.9822
14564TIP3    H265108   6.507   3.233   4.122  1.5120  0.5048 -0.6692
14565TIP3   OH265109   0.600   4.475   2.292 -0.0909  0.3402 -0.1643
14565TIP3    H165110   0.679   4.509   2.250 -0.4204 -0.1426 -1.2095
14565TIP3    H265111   0.624   4.465   2.384  0.5740  1.6645 -0.1750
14566TIP3   OH265112   3.968   1.234   3.286  0.3461  0.8233 -0.3410
14566TIP3    H165113   4.032   1.195   3.225 -0.0526  0.5223 -0.5743
14566TIP3    H265114   4.019   1.296   3.337  1.0075  0.0030  0.0315
14567TIP3   OH265115   5.087   2.145  14.975  0.7229 -0.3061 -0.1914
14567TIP3    H165116   5.070   2.185  15.060 -2.1795 -0.3699 -0.6430
14567TIP3    H265117   5.074   2.051  14.989  0.8610 -0.3865 -0.5822
14568TIP3   OH265118   2.067   5.557  10.846  0.4297 -0.4488  0.3727
14568TIP3    H165119   2.150   5.556  10.893  0.0241  1.1100  1.1947
14568TIP3    H265120   2.001   5.564  10.915 -0.4785 -2.4429 -0.2082
14569TIP3   OH265121   0.907   2.466  12.063  0.2998  0.3392  0.3022
14569TIP3    H165122   0.840   2.425  12.008 -0.0001  0.5287  0.5244
14569TIP3    H265123   0.937   2.395  12.121  0.2750  0.2603  0.2188
14570TIP3   OH265124   6.361   5.933   1.796  0.2730  0.1061  0.2163
14570TIP3    H165125   6.387   5.856   1.745 -1.8966 -0.7141  0.1974
14570TIP3    H265126   6.284   5.967   1.749 -0.4240  0.6467  1.6916
14571TIP3   OH265127   5.545   1.489   5.276  0.8205 -0.2773 -0.5437
14571TIP3    H165128   5.566   1.473   5.184  1.6861  2.8751 -1.0161
14571TIP3    H265129   5.623   1.534   5.311 -0.6967  1.4157  0.8314
14572TIP3   OH265130   2.940   3.595   1.509 -0.1715  0.6166  0.2943
14572TIP3    H165131   2.869   3.538   1.536 -0.5171  2.0467  2.6719
14572TIP3    H265132   2.951   3.656   1.581  2.2652  1.6038 -0.7900
14573TIP3   OH265133   5.297   0.254   5.144  0.3962  0.1292  0.5046
14573TIP3    H165134   5.348   0.205   5.080 -0.5317 -0.6285  0.3174
14573TIP3    H265135   5.261   0.187   5.203  0.3798  0.7238  1.1886
14574TIP3   OH265136   0.141   2.527   3.985  0.2361  0.0352 -0.3944
14574TIP3    H165137   0.161   2.606   3.935 -0.6820  0.9090  0.5726
14574TIP3    H265138   0.046   2.530   3.997  0.0586 -1.6546 -1.0384
14575TIP3   OH265139   5.038   0.443   2.672  0.1088 -1.3680  0.0858
14575TIP3    H165140   4.984   0.519   2.655 -0.7234 -1.7809  0.8206
14575TIP3    H265141   4.993   0.371   2.628  0.7416 -1.5002 -0.3670
14576TIP3   OH265142   0.158   0.652   0.419  0.1936 -0.2056 -0.3614
14576TIP3    H165143   0.200   0.729   0.380  1.2898 -0.9430 -0.6796
14576TIP3    H265144   0.072   0.648   0.377  0.1372  0.8216 -0.3692
14577TIP3   OH265145   4.790   6.094  17.164 -0.6008 -0.3560  0.1250
14577TIP3    H165146   4.758   6.166  17.218 -2.7247 -1.2720  0.1575
14577TIP3    H265147   4.793   6.131  17.076  1.2345  0.6255  0.5453
14578TIP3   OH265148   6.297   5.443   5.056 -0.3243  0.3141  0.0699
14578TIP3    H165149   6.322   5.496   4.980  1.7044 -2.4219 -1.3438
14578TIP3    H265150   6.376   5.439   5.110 -0.7304 -0.4729  0.6200
14579TIP3   OH265151   4.726   2.443   4.722  0.2270  0.8745 -0.3446
14579TIP3    H165152   4.814   2.433   4.758  0.2727  1.1859 -0.3609
14579TIP3    H265153   4.669   2.440   4.799  0.1954  0.0703 -0.3898
14580TIP3   OH265154   3.452   0.948  12.118 -0.2791  0.0075 -0.8536
14580TIP3    H165155   3.432   0.982  12.205 -1.0529 -0.4779 -0.8315
14580TIP3    H265156   3.493   0.863  12.135  1.3227  0.7476 -0.9183
14581TIP3   OH265157   2.504   1.377  12.255 -0.2085 -0.3109  0.4128
14581TIP3    H165158   2.551   1.350  12.175 -1.8728 -1.7585 -0.1490
14581TIP3    H265159   2.433   1.432  12.224 -1.0082 -1.0728  0.8486
14582TIP3   OH265160   4.393   5.836  13.091 -0.0893 -0.1281 -0.1161
14582TIP3    H165161   4.459   5.857  13.025 -1.5359  0.9512 -1.2972
14582TIP3    H265162   4.359   5.750  13.067 -0.2201  0.0190 -0.4611
14583TIP3   OH265163   4.603   6.598  12.964  0.0092 -0.0812  0.1507
14583TIP3    H165164   4.542   6.672  12.966 -0.8286 -0.6674 -1.7314
14583TIP3    H265165   4.579   6.549  12.886  1.3224 -1.7075  0.7066
14584TIP3   OH265166   3.267   4.555  12.329  0.1275 -0.6466 -0.1898
14584TIP3    H165167   3.272   4.461  12.342  1.8351 -0.4091  1.3437
14584TIP3    H265168   3.192   4.583  12.382  0.2632 -1.0370  0.2149
14585TIP3   OH265169   0.401   3.272  13.295  0.5480 -0.0292  0.3015
14585TIP3    H165170   0.379   3.312  13.379  0.6036 -0.0756  0.3380
14585TIP3    H265171   0.328   3.296  13.238 -0.3983 -1.5291  0.8479
14586TIP3   OH265172   2.726   3.711   0.895  0.0644  0.0710 -0.0763
14586TIP3    H165173   2.672   3.636   0.919 -0.0476  0.0712 -0.3280
14586TIP3    H265174   2.665   3.786   0.898  0.2089  0.1762  0.3214
14587TIP3   OH265175   2.938   2.290   1.147 -0.0863  0.4202  0.7201
14587TIP3    H165176   2.974   2.202   1.154 -1.0173 -0.1459 -1.0268
14587TIP3    H265177   2.984   2.340   1.214  0.9619 -1.2221  1.2852
14588TIP3   OH265178   5.041   2.831   4.302 -0.2266  0.5532  0.2504
14588TIP3    H165179   5.007   2.873   4.223  1.2237  2.0043  0.3322
14588TIP3    H265180   5.038   2.738   4.283  0.9927  0.8924 -1.9590
14589TIP3   OH265181   5.601   2.073   2.423 -0.1021 -0.4664  0.0758
14589TIP3    H165182   5.676   2.126   2.450 -1.2024  0.5995  1.1722
14589TIP3    H265183   5.612   1.990   2.471 -0.4101  0.2635  1.4465
14590TIP3   OH265184   1.201   1.252   5.546 -0.1318  0.0041  0.5302
14590TIP3    H165185   1.137   1.243   5.617  0.7846  2.5320  1.7912
14590TIP3    H265186   1.282   1.215   5.583 -0.7115 -3.1507 -1.0428
14591TIP3   OH265187   0.559   6.738   4.854 -0.5946 -0.0514  0.0332
14591TIP3    H165188   0.634   6.785   4.818 -2.3770  1.8697 -1.4309
14591TIP3    H265189   0.558   6.655   4.806 -0.4979  0.7191 -1.3679
14592TIP3   OH265190   0.867   6.147  16.011  0.3557 -0.3144 -0.3738
14592TIP3    H165191   0.902   6.193  15.935  0.0757  0.8924  0.2043
14592TIP3    H265192   0.858   6.214  16.079 -2.3891 -0.6551 -0.2565
14593TIP3   OH265193   2.876   5.917   2.154  0.2764 -0.0366 -0.7331
14593TIP3    H165194   2.885   5.822   2.166  0.1588  0.1243  0.7791
14593TIP3    H265195   2.965   5.950   2.162 -0.0263  0.2875  2.0197
14594TIP3   OH265196   5.455   1.739  14.684  0.0870 -0.3391 -0.2945
14594TIP3    H165197   5.423   1.707  14.768  1.8490 -0.6262  0.3024
14594TIP3    H265198   5.534   1.788  14.706 -0.8479  1.8585 -1.5209
14595TIP3   OH265199   2.775   1.725   5.955 -0.0156  0.3571 -0.4102
14595TIP3    H165200   2.683   1.747   5.965  0.0960  1.5622 -1.6895
14595TIP3    H265201   2.816   1.754   6.037 -0.9747 -1.6464  0.8362
14596TIP3   OH265202   6.194   1.572  11.307  0.4485 -0.1885 -0.6150
14596TIP3    H165203   6.207   1.634  11.235  1.9233  0.4896  0.1879
14596TIP3    H265204   6.223   1.620  11.385 -2.0821 -0.5247  0.6285
14597TIP3   OH265205   6.552   2.023  12.989 -0.6188  0.0012  0.1008
14597TIP3    H165206   6.634   2.064  13.017 -1.1374  0.2443  1.3072
14597TIP3    H265207   6.538   1.953  13.052 -1.5854  0.2758  0.2063
14598TIP3   OH265208   5.710   1.344   3.413 -0.4306 -0.2200  0.6157
14598TIP3    H165209   5.800   1.342   3.447 -0.0784 -0.9485 -0.3149
14598TIP3    H265210   5.657   1.310   3.485 -0.0223  0.6000  1.3205
14599TIP3   OH265211   5.021   2.932  14.855 -0.7527  0.2221 -0.1091
14599TIP3    H165212   5.010   2.912  14.762 -0.3770 -0.1449 -0.0758
14599TIP3    H265213   4.986   2.855  14.901 -2.2156  0.9660  0.0936
14600TIP3   OH265214   2.071   4.716   0.008  0.5259  0.4058  0.4495
14600TIP3    H165215   2.062   4.676   0.094 -1.6496 -0.1857 -0.0008
14600TIP3    H265216   2.074   4.810   0.025 -1.0242  0.3568  1.1298
14601TIP3   OH265217   2.554   0.259   3.094 -0.2786  0.6374 -0.0822
14601TIP3    H165218   2.624   0.243   3.031  0.6013  1.5263  0.6321
14601TIP3    H265219   2.530   0.171   3.126  1.6459  0.3952  0.8319
14602TIP3   OH265220   0.544   6.441   0.550 -0.4099 -0.2401 -0.0171
14602TIP3    H165221   0.491   6.519   0.571  0.4352  0.5192 -0.6100
14602TIP3    H265222   0.629   6.458   0.591  0.5927  0.3205 -2.1744
14603TIP3   OH265223   6.208   3.681  14.870 -0.2919  0.3090 -0.4315
14603TIP3    H165224   6.157   3.604  14.845 -1.9836  0.6513  1.7049
14603TIP3    H265225   6.211   3.734  14.791 -1.5820 -0.6292 -1.1575
14604TIP3   OH265226   2.803   3.090   2.458 -0.2645 -0.1536 -0.5532
14604TIP3    H165227   2.744   3.143   2.512  0.2141 -0.7565  0.5968
14604TIP3    H265228   2.803   3.133   2.372 -0.8663  0.9538 -0.0118
14605TIP3   OH265229   2.858   3.203   4.468 -0.1821 -0.2592  0.1827
14605TIP3    H165230   2.763   3.195   4.472 -0.0911 -1.7976  0.2000
14605TIP3    H265231   2.886   3.127   4.416  1.1183 -0.7130  1.4596
14606TIP3   OH265232   6.384   1.485  12.453 -0.1493  0.0202 -0.7355
14606TIP3    H165233   6.322   1.523  12.391 -0.3404 -0.0098 -0.5609
14606TIP3    H265234   6.469   1.495  12.410 -0.0043  1.8868 -0.1240
14607TIP3   OH265235   3.077   5.382   6.457 -0.5599  0.3078  0.4385
14607TIP3    H165236   3.038   5.299   6.484  0.4165 -0.6384 -0.9328
14607TIP3    H265237   3.007   5.429   6.413 -0.2129 -1.5188 -2.3222
14608TIP3   OH265238   6.087   3.123   3.903 -0.4674  0.4288 -0.3078
14608TIP3    H165239   6.012   3.125   3.962 -1.3058 -0.6524 -1.2884
14608TIP3    H265240   6.127   3.210   3.912 -1.4777  0.8178  0.6720
14609TIP3   OH265241   0.671   3.538   5.341  0.1466 -0.8889  0.2999
14609TIP3    H165242   0.669   3.612   5.279  0.2252 -0.3348  0.9434
14609TIP3    H265243   0.714   3.573   5.418 -2.4074 -0.6925  1.7525
14610TIP3   OH265244   5.617   3.830  16.989 -0.1611  0.6353  0.0624
14610TIP3    H165245   5.531   3.870  16.975 -0.7306 -0.4203  0.4241
14610TIP3    H265246   5.627   3.767  16.918 -0.5735 -0.6527  1.0989
14611TIP3   OH265247   3.752   0.431  11.157  0.3361 -0.2053 -0.2075
14611TIP3    H165248   3.812   0.398  11.090  1.5098  1.0613  0.1784
14611TIP3    H265249   3.805   0.438  11.236 -0.6014 -0.0739  0.4314
14612TIP3   OH265250   1.330   3.145  12.450 -0.2073  0.2293  0.7190
14612TIP3    H165251   1.318   3.130  12.544 -0.2686  1.8719  1.0051
14612TIP3    H265252   1.419   3.178  12.442 -0.0714 -0.2670  0.1463
14613TIP3   OH265253   0.941   2.671  15.453  0.4489  0.6498  0.1105
14613TIP3    H165254   1.012   2.705  15.509 -0.0600  0.3596  0.9606
14613TIP3    H265255   0.938   2.578  15.474  0.1959  0.5499 -0.3616
14614TIP3   OH265256   4.270   3.847   2.217 -0.1792 -0.1550 -0.2906
14614TIP3    H165257   4.272   3.761   2.259 -0.6908 -0.4471 -0.8357
14614TIP3    H265258   4.176   3.865   2.204 -0.0989  0.6796  0.1991
14615TIP3   OH265259   6.380   2.587   5.563 -0.7309  0.1987  0.1451
14615TIP3    H165260   6.322   2.544   5.626  0.2153  1.5676  2.0561
14615TIP3    H265261   6.440   2.639   5.617  0.2358  1.3298 -1.8965
14616TIP3   OH265262   0.188   3.545   4.862 -0.5095  0.4365 -0.2584
14616TIP3    H165263   0.251   3.491   4.911 -0.8413  0.2319 -0.0594
14616TIP3    H265264   0.243   3.595   4.801 -0.3120 -1.2596 -1.5629
14617TIP3   OH265265   0.978   5.211  14.385 -0.3938  0.1047 -0.0340
14617TIP3    H165266   1.026   5.247  14.310  1.4618 -2.3889 -0.2025
14617TIP3    H265267   1.033   5.231  14.461  0.3598 -1.6348 -0.0585
14618TIP3   OH265268   6.505   5.677  13.954  0.3942 -0.0045  0.4892
14618TIP3    H165269   6.581   5.718  13.912  1.1896  0.3239  2.1572
14618TIP3    H265270   6.487   5.733  14.030 -1.3845 -0.2225  0.2715
14619TIP3   OH265271   3.122   0.212   4.483  0.1737 -0.3292  0.6164
14619TIP3    H165272   3.195   0.198   4.544  1.4545 -4.3881 -1.4850
14619TIP3    H265273   3.073   0.130   4.485 -1.4472  0.4765 -1.6489
14620TIP3   OH265274   5.085   3.600  12.772 -0.6062  0.3254  0.3316
14620TIP3    H165275   5.089   3.567  12.862  1.3273 -2.3547 -0.6207
14620TIP3    H265276   5.036   3.533  12.724 -1.9522  1.8972 -0.6038
14621TIP3   OH265277   4.567   2.583   2.189  0.0291  1.0647 -0.3918
14621TIP3    H165278   4.558   2.667   2.235  1.2741  1.3208 -0.5893
14621TIP3    H265279   4.521   2.597   2.106 -1.5654  0.8459  0.4027
14622TIP3   OH265280   3.126   3.997  12.455  1.0887 -0.0929 -0.3456
14622TIP3    H165281   3.080   3.991  12.539  1.8183  1.6908  0.2172
14622TIP3    H265282   3.161   3.909  12.441  1.1703 -0.3712  1.3472
14623TIP3   OH265283   4.122   1.759   3.046  0.7362 -0.1627 -0.0537
14623TIP3    H165284   4.087   1.769   3.134  1.3959  0.0429  0.1940
14623TIP3    H265285   4.083   1.678   3.014  0.1021  0.0209  0.2339
14624TIP3   OH265286   2.507   6.612   6.278 -0.1018 -0.5919  0.4393
14624TIP3    H165287   2.453   6.666   6.336  0.1093 -1.8083  1.8293
14624TIP3    H265288   2.597   6.640   6.295 -0.1506  0.1644 -0.5129
14625TIP3   OH265289   4.242   6.282   6.804  0.3882  0.7425 -0.4397
14625TIP3    H165290   4.153   6.248   6.792  0.2189  1.7247 -2.3132
14625TIP3    H265291   4.240   6.327   6.888 -0.7498  0.3380 -0.2363
14626TIP3   OH265292   6.572   5.475   0.609  0.0414 -0.3621 -0.1961
14626TIP3    H165293   6.656   5.517   0.594 -0.1020 -0.9224 -3.3271
14626TIP3    H265294   6.508   5.537   0.573 -0.6327 -0.9828 -0.0823
14627TIP3   OH265295   0.353   6.234  16.318 -0.1640  0.1850  0.1514
14627TIP3    H165296   0.290   6.261  16.251 -1.0589  0.4942  1.0799
14627TIP3    H265297   0.437   6.270  16.289 -0.0804 -1.4798 -1.8712
14628TIP3   OH265298   6.304   1.118   4.106 -0.0912  0.0205 -0.0178
14628TIP3    H165299   6.364   1.114   4.180 -0.5708 -0.1783  0.3587
14628TIP3    H265300   6.320   1.037   4.058 -2.6383 -1.8897  2.0954
14629TIP3   OH265301   3.162   5.280  11.810 -0.1056 -0.2099 -0.5416
14629TIP3    H165302   3.115   5.352  11.768  0.2882  0.8781  0.7938
14629TIP3    H265303   3.246   5.276  11.764 -0.3261 -0.1597 -0.9564
14630TIP3   OH265304   4.477   1.939  13.356 -0.4151  0.0890 -0.0382
14630TIP3    H165305   4.440   2.024  13.378 -0.4323  0.2626 -0.7082
14630TIP3    H265306   4.535   1.918  13.429  1.6533  1.9027 -1.0553
14631TIP3   OH265307   4.550   6.406   5.389 -0.5814  0.0805  0.2809
14631TIP3    H165308   4.644   6.426   5.390 -0.3191 -0.7913 -1.5162
14631TIP3    H265309   4.528   6.390   5.480  0.9326  0.6452  0.7897
14632TIP3   OH265310   4.233   3.080  15.199  0.4850 -0.5697  0.5882
14632TIP3    H165311   4.178   3.055  15.272 -1.5314  0.7597 -0.3702
14632TIP3    H265312   4.235   3.176  15.202 -0.6982 -0.3936 -1.7391
14633TIP3   OH265313   1.249   1.008   5.781  0.0504  0.1254  0.6030
14633TIP3    H165314   1.308   1.083   5.784 -0.1883  0.3337  0.2554
14633TIP3    H265315   1.299   0.936   5.820  0.8395  0.0949 -0.4062
14634TIP3   OH265316   2.770   2.510   3.353 -0.2691 -0.2674 -0.1689
14634TIP3    H165317   2.797   2.538   3.440 -0.4899  0.4162 -0.3199
14634TIP3    H265318   2.844   2.530   3.296 -0.4894  0.1849 -0.3058
14635TIP3   OH265319   2.846   6.084  12.631 -0.2010  0.5482 -0.1614
14635TIP3    H165320   2.843   6.177  12.655  0.5965  0.3068  0.9890
14635TIP3    H265321   2.901   6.081  12.552  0.8695  0.9444  0.5367
14636TIP3   OH265322   3.295   2.318   2.963 -0.0131 -0.3260 -0.1687
14636TIP3    H165323   3.374   2.354   2.923 -0.4238 -0.1181 -0.7946
14636TIP3    H265324   3.285   2.232   2.923 -1.1454  0.3944 -1.5052
14637TIP3   OH265325   3.052   5.682  15.200 -0.0917  0.0881  0.4340
14637TIP3    H165326   2.996   5.609  15.227 -0.0648  0.0195  0.3051
14637TIP3    H265327   3.044   5.746  15.270  0.0204 -0.1115  0.6283
14638TIP3   OH265328   3.509   6.319   3.777 -0.6144 -0.2202 -0.4118
14638TIP3    H165329   3.458   6.389   3.817 -0.6773 -2.0045  2.9578
14638TIP3    H265330   3.473   6.238   3.814  2.0284 -1.7906 -0.9912
14639TIP3   OH265331   2.629   3.641  15.519  0.2560 -0.2343  0.0601
14639TIP3    H165332   2.660   3.725  15.555 -1.0038  0.2959 -0.0645
14639TIP3    H265333   2.703   3.581  15.534  0.4517  0.3904  1.9422
14640TIP3   OH265334   1.359   6.407  13.873 -0.5996  0.0877 -0.0466
14640TIP3    H165335   1.430   6.464  13.844 -0.5012  0.1384  0.2795
14640TIP3    H265336   1.284   6.432  13.819 -0.0565 -0.8082 -1.2422
14641TIP3   OH265337   2.992   2.172  14.970  0.5675  0.1069  0.4683
14641TIP3    H165338   3.059   2.185  14.903 -0.5954 -1.9069 -1.2129
14641TIP3    H265339   2.953   2.087  14.949 -1.8451  0.7411  1.9592
14642TIP3   OH265340   3.626   1.709  13.364  0.5075 -0.1188  0.1768
14642TIP3    H165341   3.681   1.714  13.442  0.1263 -1.4432  0.5693
14642TIP3    H265342   3.556   1.649  13.389  0.4042 -0.6096 -1.2044
14643TIP3   OH265343   5.826   4.887   4.443  0.5119  0.4325  0.2244
14643TIP3    H165344   5.787   4.869   4.529 -0.2982  0.4279 -0.1352
14643TIP3    H265345   5.873   4.970   4.455 -1.8805  1.9198 -0.0020
14644TIP3   OH265346   3.334   5.447  12.084  0.0337 -0.0124  0.0036
14644TIP3    H165347   3.360   5.496  12.006 -0.7610 -0.4066 -0.5261
14644TIP3    H265348   3.241   5.467  12.095  0.1647  0.1415  0.9392
14645TIP3   OH265349   3.521   0.687   1.757  0.0249 -0.0118 -0.7155
14645TIP3    H165350   3.507   0.662   1.665  0.9662 -2.0440 -0.3775
14645TIP3    H265351   3.610   0.721   1.759  0.8294 -1.9800 -0.2669
14646TIP3   OH265352   0.753   3.845  17.125  0.0595 -0.1889 -0.0795
14646TIP3    H165353   0.736   3.794  17.204 -1.7175  0.8223  0.2490
14646TIP3    H265354   0.739   3.936  17.152  3.0771  0.5626 -0.6560
14647TIP3   OH265355   5.845   4.161   5.784 -0.4138  0.3622  0.4302
14647TIP3    H165356   5.783   4.088   5.779 -0.5631  0.5642 -0.8477
14647TIP3    H265357   5.848   4.182   5.878 -1.4104 -0.3890  0.6545
14648TIP3   OH265358   1.626   6.712   0.443 -0.4831 -0.0031 -0.3622
14648TIP3    H165359   1.675   6.705   0.524 -0.4282  0.9606 -0.2988
14648TIP3    H265360   1.693   6.721   0.375 -0.5413  1.6033 -0.2458
14649TIP3   OH265361   3.435   5.806   6.125  0.3335  0.3681 -0.3859
14649TIP3    H165362   3.441   5.719   6.164  2.7334  0.5458 -0.2455
14649TIP3    H265363   3.408   5.863   6.197  2.8243  0.3691  0.6328
14650TIP3   OH265364   0.699   0.154   4.758 -0.0409 -0.2915  0.4944
14650TIP3    H165365   0.608   0.159   4.727  0.5296  1.7530 -1.0830
14650TIP3    H265366   0.709   0.231   4.814  0.5505 -0.9237  1.2915
14651TIP3   OH265367   0.164   3.225  11.231 -0.0714 -0.0145 -0.2836
14651TIP3    H165368   0.194   3.197  11.145  1.2959  0.3120  0.0589
14651TIP3    H265369   0.189   3.154  11.290  0.7551  0.6059  0.1323
14652TIP3   OH265370   4.683   2.435   1.615  0.1376 -0.2248 -0.1156
14652TIP3    H165371   4.670   2.440   1.520  0.8870 -1.2650 -0.2846
14652TIP3    H265372   4.608   2.386   1.647 -1.3741  2.0969  0.1675
14653TIP3   OH265373   2.734   4.410   4.019  0.3467 -0.2194  0.0945
14653TIP3    H165374   2.778   4.445   3.941 -0.2452  1.3752  0.4439
14653TIP3    H265375   2.762   4.318   4.023  1.0994 -0.0896 -1.4768
14654TIP3   OH265376   6.338   1.323  11.278  0.6374  0.4528 -0.3065
14654TIP3    H165377   6.296   1.264  11.340 -2.0300 -0.8194 -3.1035
14654TIP3    H265378   6.282   1.400  11.276  1.0709  0.7627 -0.6483
14655TIP3   OH265379   3.701   2.634  15.488 -0.5959  0.0863 -0.5732
14655TIP3    H165380   3.708   2.714  15.540  0.6884 -0.4283  0.0974
14655TIP3    H265381   3.685   2.565  15.553  1.2168 -0.5951 -0.7749
14656TIP3   OH265382   2.023   4.434   3.005  0.1761 -0.1112 -0.4173
14656TIP3    H165383   2.082   4.439   2.929 -1.8582 -1.1842 -2.1895
14656TIP3    H265384   2.015   4.340   3.022 -2.2477 -0.1313 -1.3176
14657TIP3   OH265385   0.884   1.405   3.110 -0.0919 -0.4805  0.0218
14657TIP3    H165386   0.851   1.394   3.021 -0.0011  0.7855 -0.1839
14657TIP3    H265387   0.812   1.448   3.156 -0.2273 -1.3437  0.6248
14658TIP3   OH265388   0.950   2.349   0.751  0.7873 -0.3258 -0.1974
14658TIP3    H165389   0.889   2.301   0.695  1.0104 -1.3181  0.3712
14658TIP3    H265390   0.944   2.305   0.836  1.8911 -0.1127  0.0148
14659TIP3   OH265391   1.001   3.836  10.316  0.1654 -0.0815 -0.4627
14659TIP3    H165392   0.925   3.894  10.307 -1.3111 -1.9900 -0.9611
14659TIP3    H265393   1.031   3.850  10.405 -0.8021  0.6913 -0.2370
14660TIP3   OH265394   3.002   6.477   1.641  0.3212 -0.1004  0.1055
14660TIP3    H165395   2.992   6.562   1.597  1.8654  0.2861  0.4562
14660TIP3    H265396   2.948   6.485   1.720  0.8417  0.7528  0.3855
14661TIP3   OH265397   4.126   4.046  16.868 -0.0049 -0.1914  0.4701
14661TIP3    H165398   4.043   4.001  16.883  0.5837 -1.3071  0.4806
14661TIP3    H265399   4.106   4.139  16.879 -1.0984 -0.4958  1.1399
14662TIP3   OH265400   2.688   2.347   5.834  0.7088  0.3876 -0.3083
14662TIP3    H165401   2.671   2.437   5.803  0.0257  0.3434 -0.0658
14662TIP3    H265402   2.650   2.344   5.921 -2.2581 -1.1021 -1.5216
14663TIP3   OH265403   1.300   6.752   4.906  0.9128  0.4455  0.5381
14663TIP3    H165404   1.365   6.721   4.969 -0.1997 -1.2873  0.9084
14663TIP3    H265405   1.224   6.775   4.959  0.6250  0.7979 -0.0186
14664TIP3   OH265406   3.293   4.808   1.711  0.3347 -0.0125 -0.1493
14664TIP3    H165407   3.223   4.810   1.646  1.1492  0.9173 -1.0212
14664TIP3    H265408   3.368   4.771   1.666  0.8667  0.4950  0.2948
14665TIP3   OH265409   6.300   4.252  10.518 -0.6176  0.2255  0.2944
14665TIP3    H165410   6.235   4.252  10.448 -0.1411  0.0622 -0.1541
14665TIP3    H265411   6.288   4.168  10.563 -0.4173  0.0046 -0.0671
14666TIP3   OH265412   4.627   0.929   2.895 -0.2548  0.0627 -0.7284
14666TIP3    H165413   4.680   0.854   2.920 -1.9581 -1.4090 -1.3134
14666TIP3    H265414   4.539   0.893   2.881 -0.9307  2.0050 -1.9135
14667TIP3   OH265415   6.349   4.970   2.832 -0.4005 -0.3349 -0.0313
14667TIP3    H165416   6.289   4.975   2.758 -0.5410 -0.4666  0.0742
14667TIP3    H265417   6.435   4.954   2.792 -0.3401  0.4080 -0.2168
14668TIP3   OH265418   2.759   4.557   5.673  0.0534 -0.0289 -0.0465
14668TIP3    H165419   2.743   4.511   5.590 -0.3753  1.2880 -0.7123
14668TIP3    H265420   2.854   4.556   5.682  0.2195  1.0672 -1.3159
14669TIP3   OH265421   2.178   2.975   0.958  0.4140  0.4472  0.1054
14669TIP3    H165422   2.210   2.886   0.974 -0.0423  0.4975  1.3930
14669TIP3    H265423   2.249   3.031   0.988 -0.3055  0.5370  1.7342
14670TIP3   OH265424   1.495   1.701   2.136  0.5629 -0.4132  0.2104
14670TIP3    H165425   1.414   1.680   2.090  2.2234  0.0551 -3.2021
14670TIP3    H265426   1.469   1.763   2.204 -2.3817 -3.0026  1.6837
14671TIP3   OH265427   0.032   0.248  14.208  0.6100 -0.7353  0.3336
14671TIP3    H165428   0.103   0.198  14.169 -0.6642 -0.5241 -2.5340
14671TIP3    H265429  -0.030   0.182  14.240  0.7902 -0.9706  0.1974
14672TIP3   OH265430   4.313   2.815   5.485  0.5285  0.2025  0.5696
14672TIP3    H165431   4.234   2.809   5.431  0.5415 -0.0826  0.5837
14672TIP3    H265432   4.382   2.840   5.423  0.6180 -0.4921  0.3865
14673TIP3   OH265433   2.638   0.288  14.903 -0.3255  0.1599  0.2786
14673TIP3    H165434   2.590   0.235  14.839 -1.2003  0.3194  0.7872
14673TIP3    H265435   2.727   0.253  14.902 -0.2007  0.4610 -1.3596
14674TIP3   OH265436   1.394   4.200   0.778 -0.2744  0.0992  0.0535
14674TIP3    H165437   1.448   4.202   0.698 -2.1519 -0.8491 -1.3256
14674TIP3    H265438   1.434   4.132   0.832 -0.5830 -1.3327 -1.4034
14675TIP3   OH265439   2.440   2.298   2.787 -0.5707  0.4167 -0.3879
14675TIP3    H165440   2.374   2.228   2.787  0.5359 -0.6658 -0.9306
14675TIP3    H265441   2.389   2.379   2.789 -1.9334 -0.3745 -1.3650
14676TIP3   OH265442   1.010   0.182   0.875  0.7064  0.9388  0.5238
14676TIP3    H165443   0.990   0.105   0.823  1.5781  0.0724  1.4327
14676TIP3    H265444   0.993   0.156   0.966  0.0799  2.1334  0.7766
14677TIP3   OH265445   0.257   2.104  15.244 -0.4129  0.0881  0.4248
14677TIP3    H165446   0.312   2.052  15.186 -0.2302 -1.0282  1.5605
14677TIP3    H265447   0.298   2.096  15.330 -0.4560  2.0160  0.6846
14678TIP3   OH265448   3.500   0.561   0.789 -0.2865 -0.3311  0.2939
14678TIP3    H165449   3.503   0.539   0.882  0.1562 -0.7987  0.1688
14678TIP3    H265450   3.563   0.502   0.747 -1.5982 -1.2022 -0.5288
14679TIP3   OH265451   6.446   3.242  14.459 -0.2556  0.0935 -0.9192
14679TIP3    H165452   6.487   3.203  14.382 -0.1986  0.0827 -0.8833
14679TIP3    H265453   6.372   3.185  14.478  1.6353 -1.8762  1.0519
14680TIP3   OH265454   4.081   0.574  12.957 -0.0332 -0.3287  0.6395
14680TIP3    H165455   4.056   0.613  13.041  1.3063  0.9462  0.4888
14680TIP3    H265456   3.999   0.542  12.920 -1.0976  1.7129  1.1100
14681TIP3   OH265457   1.800   0.548   3.323  0.5313 -0.3200 -0.6462
14681TIP3    H165458   1.773   0.530   3.413  0.0108 -0.0568 -0.7466
14681TIP3    H265459   1.718   0.551   3.273  0.7062  0.7573 -0.9064
14682TIP3   OH265460   3.907   5.463   3.912  0.5757  0.2964 -0.2486
14682TIP3    H165461   3.957   5.425   3.839 -0.8487 -1.5139 -0.3871
14682TIP3    H265462   3.927   5.406   3.986  1.2758  1.5639  0.5605
14683TIP3   OH265463   4.657   3.775   4.500  0.4500 -0.4597 -0.3841
14683TIP3    H165464   4.735   3.795   4.553 -0.2191  0.6426  0.2078
14683TIP3    H265465   4.593   3.743   4.564 -0.2827  0.6504 -0.5411
14684TIP3   OH265466   4.304   2.595   2.745 -0.1865 -0.2010  0.1777
14684TIP3    H165467   4.284   2.595   2.651 -1.3194  0.3393  0.3925
14684TIP3    H265468   4.287   2.506   2.773 -1.9749  0.1205  0.2498
14685TIP3   OH265469   0.614   6.268  16.301 -0.0764 -0.0336 -0.3599
14685TIP3    H165470   0.690   6.302  16.253 -1.4813  1.3187 -1.7206
14685TIP3    H265471   0.648   6.251  16.389  1.7254  0.8357 -0.8352
14686TIP3   OH265472   1.581   6.743   2.838  0.1883 -0.5876  0.1908
14686TIP3    H165473   1.620   6.788   2.913  0.6174  0.7176 -0.7653
14686TIP3    H265474   1.594   6.650   2.856 -1.0498 -0.3905  2.4127
14687TIP3   OH265475   4.101   5.254   1.343 -0.2988 -0.6948  0.3545
14687TIP3    H165476   4.026   5.311   1.358  0.5910  1.0275 -1.3212
14687TIP3    H265477   4.176   5.313   1.339  0.7866 -2.0633 -0.6454
14688TIP3   OH265478   0.736   1.562   0.981 -0.2550 -0.4351  0.6150
14688TIP3    H165479   0.818   1.522   1.011 -0.9139 -1.6985  0.7757
14688TIP3    H265480   0.679   1.560   1.057 -0.5314  0.2099  0.4294
14689TIP3   OH265481   2.336   1.077   2.157 -1.2355  0.2504 -0.5704
14689TIP3    H165482   2.413   1.037   2.197 -2.9883 -1.9544  0.8604
14689TIP3    H265483   2.356   1.079   2.063  1.2147  1.3949 -0.0879
14690TIP3   OH265484   1.135   1.224  14.121  0.4481 -0.0988 -0.3615
14690TIP3    H165485   1.103   1.221  14.030 -0.6749  0.9052 -0.0254
14690TIP3    H265486   1.099   1.145  14.161  0.6349 -0.3556 -0.6964
14691TIP3   OH265487   6.406   3.575   5.056 -0.3190 -0.4015 -0.3664
14691TIP3    H165488   6.465   3.530   5.117 -0.7015  1.2448  1.3435
14691TIP3    H265489   6.462   3.604   4.985  0.9347  0.8197  1.0465
14692TIP3   OH265490   0.076   1.833  11.435 -0.0284 -0.2338  0.3251
14692TIP3    H165491   0.050   1.848  11.526  2.7090 -1.2415  1.4022
14692TIP3    H265492   0.128   1.910  11.412 -1.4817  0.4659 -0.7954
14693TIP3   OH265493   2.580   2.504  15.555  0.3201 -0.1498  0.2429
14693TIP3    H165494   2.559   2.472  15.643  1.0166 -1.4461 -0.0229
14693TIP3    H265495   2.497   2.537  15.521  0.1659  0.9662  1.6026
14694TIP3   OH265496   5.776   6.066   3.559  0.0575  0.2376 -0.4080
14694TIP3    H165497   5.730   5.987   3.587 -0.0074  1.4460  3.3769
14694TIP3    H265498   5.869   6.045   3.571  0.2119 -0.0871 -1.9745
14695TIP3   OH265499   5.878   1.802   0.916 -0.1541 -1.0027 -0.3571
14695TIP3    H165500   5.804   1.855   0.888  0.4646 -0.1430 -0.4087
14695TIP3    H265501   5.839   1.727   0.960 -1.0346  0.3678  1.2788
14696TIP3   OH265502   4.725   3.922   6.103 -0.2351  0.0318  0.0464
14696TIP3    H165503   4.701   4.009   6.071  0.9897  0.3429 -0.0771
14696TIP3    H265504   4.667   3.907   6.178  0.9161  1.8524  1.3738
14697TIP3   OH265505   5.114   1.638  11.958 -0.6964 -0.4401 -0.2653
14697TIP3    H165506   5.199   1.661  11.996 -0.7126 -0.5863 -0.1410
14697TIP3    H265507   5.133   1.564  11.899 -0.6826 -0.2590 -0.4918
14698TIP3   OH265508   1.041   4.485  11.233  0.6928 -0.3950 -0.3539
14698TIP3    H165509   1.021   4.563  11.182 -1.5222 -1.4180 -1.1466
14698TIP3    H265510   1.068   4.420  11.168 -0.4348 -1.1793 -0.0620
14699TIP3   OH265511   5.735   3.122  11.216  0.3353  0.5731  0.2463
14699TIP3    H165512   5.779   3.044  11.181  0.7640  0.4149  1.1188
14699TIP3    H265513   5.643   3.097  11.219  0.2714  0.6167 -0.8236
14700TIP3   OH265514   4.627   1.208   3.337 -0.1333 -0.1986 -0.2672
14700TIP3    H165515   4.546   1.247   3.370  0.0766  0.3165 -0.3505
14700TIP3    H265516   4.697   1.262   3.375  0.0983  1.4331 -2.7692
14701TIP3   OH265517   5.288   4.743  13.070  0.2817 -0.2715  0.2688
14701TIP3    H165518   5.305   4.662  13.022  4.1952  1.9671 -2.7210
14701TIP3    H265519   5.373   4.769  13.104 -1.0607  2.0533  2.1854
14702TIP3   OH265520   1.425   0.189  12.335 -0.7304 -0.2563  0.3221
14702TIP3    H165521   1.333   0.174  12.356 -1.2074  1.1044 -0.6823
14702TIP3    H265522   1.450   0.262  12.391 -0.3126 -0.5099  0.4656
14703TIP3   OH265523   5.956   5.899  14.078  0.2787 -0.2271  0.2603
14703TIP3    H165524   6.018   5.836  14.042  1.2196 -0.5860  2.3534
14703TIP3    H265525   5.870   5.869  14.049  0.9082 -1.0799 -0.7479
14704TIP3   OH265526   4.358   5.049  11.961 -0.1195  0.1861  0.0466
14704TIP3    H165527   4.304   5.023  11.886  0.4287 -3.2195  0.6472
14704TIP3    H265528   4.297   5.096  12.019 -1.9251 -1.5842 -0.2913
14705TIP3   OH265529   5.042   4.885  11.970  0.5841 -0.4629 -0.2359
14705TIP3    H165530   5.073   4.939  12.043  1.1810 -1.5005  0.3043
14705TIP3    H265531   5.012   4.948  11.905  0.9785  0.5129  0.4968
14706TIP3   OH265532   3.514   5.497   0.798  0.2120 -0.6973 -0.5296
14706TIP3    H165533   3.575   5.439   0.753  1.2430  0.7616 -1.1032
14706TIP3    H265534   3.569   5.566   0.835 -1.0134  0.2038 -0.3145
14707TIP3   OH265535   2.211   5.643  15.634 -0.1138  0.0385 -0.0438
14707TIP3    H165536   2.129   5.604  15.664  0.0856 -0.6349 -0.3406
14707TIP3    H265537   2.257   5.669  15.714 -0.3074 -0.2219  0.1530
14708TIP3   OH265538   2.469   0.221  11.525  0.2888  0.3390  0.0913
14708TIP3    H165539   2.526   0.208  11.601  0.5440 -2.5348 -0.4886
14708TIP3    H265540   2.480   0.142  11.473 -2.5220  0.6855 -1.2135
14709TIP3   OH265541   4.124   5.239   0.673  0.4719 -1.2269  0.0730
14709TIP3    H165542   4.086   5.293   0.603  3.1194 -1.0228 -1.3328
14709TIP3    H265543   4.122   5.296   0.750  0.2933 -0.3034 -0.5873
14710TIP3   OH265544   2.900   3.832   5.112 -0.2351  0.2027  0.7594
14710TIP3    H165545   2.866   3.873   5.192  1.1713  0.3086  1.3463
14710TIP3    H265546   2.947   3.903   5.067  0.0244 -0.1514  0.4688
14711TIP3   OH265547   5.958   2.175   0.739  0.1602  0.2369 -0.8386
14711TIP3    H165548   6.007   2.241   0.688  2.6837 -0.7926  0.0768
14711TIP3    H265549   5.969   2.094   0.689  0.5403 -0.2718  0.0489
14712TIP3   OH265550   0.485   6.453  16.076  0.1987 -0.5234 -0.0568
14712TIP3    H165551   0.552   6.390  16.103  0.2134 -0.0630  1.0345
14712TIP3    H265552   0.451   6.489  16.158 -0.1685  0.5158 -0.6427
14713TIP3   OH265553   5.362   1.802  10.514  0.6022  0.1995  0.1058
14713TIP3    H165554   5.375   1.872  10.577  1.2215 -0.4250  0.6831
14713TIP3    H265555   5.330   1.728  10.566 -0.2674  0.1100 -0.5238
14714TIP3   OH265556   1.547   6.086   2.053  0.4749  0.0622  0.6962
14714TIP3    H165557   1.605   6.122   2.120 -0.0185 -1.2013  1.8662
14714TIP3    H265558   1.475   6.048   2.103  2.2524 -5.0723 -0.0394
14715TIP3   OH265559   6.532   5.218  10.298 -0.3173  1.0777  0.1540
14715TIP3    H165560   6.563   5.288  10.356  1.4174  1.4547 -1.1186
14715TIP3    H265561   6.612   5.185  10.256 -1.3008 -0.4467 -0.6299
14716TIP3   OH265562   2.185   2.038  14.937 -0.5023  0.0223 -0.4349
14716TIP3    H165563   2.223   2.038  14.849  1.2619  1.7522  0.2641
14716TIP3    H265564   2.260   2.040  14.996 -1.6587 -0.1630  1.1117
14717TIP3   OH265565   4.660   6.282  14.778  0.5171  0.6133 -0.3277
14717TIP3    H165566   4.713   6.210  14.746  1.0592 -0.3692  2.4695
14717TIP3    H265567   4.570   6.258  14.757  0.6407 -1.1881  0.9853
14718TIP3   OH265568   1.801   4.401  14.675 -0.1254  0.0021 -0.0118
14718TIP3    H165569   1.777   4.468  14.738 -0.5864  0.6852 -0.8877
14718TIP3    H265570   1.897   4.402  14.675 -0.1252  0.6608 -0.0022
14719TIP3   OH265571   1.337   2.607  13.252 -0.2121 -0.1246  0.5273
14719TIP3    H165572   1.282   2.613  13.330 -0.4525  0.2965  0.3364
14719TIP3    H265573   1.284   2.648  13.183 -0.9211 -2.3796 -0.3699
14720TIP3   OH265574   0.208   6.750  11.635 -0.1136 -0.5805 -0.2505
14720TIP3    H165575   0.220   6.740  11.540  0.4226 -0.5284 -0.1889
14720TIP3    H265576   0.235   6.840  11.653  0.2871 -0.7578  0.0318
14721TIP3   OH265577   4.983   2.297  16.082 -0.4807 -0.1246  0.4335
14721TIP3    H165578   5.053   2.260  16.134  0.7423  0.3435 -0.8013
14721TIP3    H265579   4.931   2.222  16.054 -1.0261 -0.3948  2.0937
14722TIP3   OH265580   5.379   3.558   0.870  0.2057 -0.7037 -0.2630
14722TIP3    H165581   5.415   3.645   0.888  1.0933 -0.3515 -3.1086
14722TIP3    H265582   5.440   3.498   0.913 -0.0438  0.0274  1.1813
14723TIP3   OH265583   6.208   0.226  10.821 -0.5941  0.0640 -0.3177
14723TIP3    H165584   6.140   0.186  10.876 -0.0479 -1.0466 -0.4239
14723TIP3    H265585   6.237   0.155  10.763 -0.1667  0.8413 -1.0762
14724TIP3   OH265586   0.207   1.450  12.967  0.0608  0.1350  0.1032
14724TIP3    H165587   0.187   1.540  12.939  0.1904 -0.6067 -2.7447
14724TIP3    H265588   0.299   1.438  12.943  0.3804 -0.4286  1.5380
14725TIP3   OH265589   5.885   4.579  13.696  0.0553  0.6820 -0.2072
14725TIP3    H165590   5.978   4.574  13.675  0.1100 -0.4481  0.1970
14725TIP3    H265591   5.849   4.643  13.635  1.0175  0.8094 -0.6527
14726TIP3   OH265592   5.004   5.823  16.806 -0.3026 -0.5588  0.3828
14726TIP3    H165593   5.089   5.783  16.823 -0.5592 -0.6810  1.4839
14726TIP3    H265594   4.941   5.751  16.816 -0.5983 -0.3117  0.3193
14727TIP3   OH265595   0.247   6.283  12.407  0.3611 -0.7852  0.2237
14727TIP3    H165596   0.315   6.308  12.470 -0.1451 -1.5753  1.1009
14727TIP3    H265597   0.214   6.367  12.373  0.1767 -0.3144  1.5105
14728TIP3   OH265598   6.116   6.525   2.265  0.6245 -0.6363 -0.1745
14728TIP3    H165599   6.128   6.432   2.243  0.9615 -0.5451 -0.3930
14728TIP3    H265600   6.205   6.559   2.271  0.4938 -0.0068 -1.5155
14729TIP3   OH265601   2.118   3.485  11.324  0.3180  0.2135  0.1679
14729TIP3    H165602   2.181   3.463  11.255  0.2128 -0.9001  0.4155
14729TIP3    H265603   2.088   3.401  11.357 -1.6476  0.7146 -0.2425
14730TIP3   OH265604   3.333   3.326   1.417  0.3383  0.6463  0.1634
14730TIP3    H165605   3.298   3.243   1.448 -0.4818  1.0652  0.3884
14730TIP3    H265606   3.417   3.304   1.378  0.7948 -0.0692  1.5209
14731TIP3   OH265607   4.580   0.736  11.872  0.4442  0.4346 -0.2613
14731TIP3    H165608   4.495   0.761  11.908 -0.7323 -1.9047 -1.2202
14731TIP3    H265609   4.640   0.744  11.946 -1.2850 -1.2046  1.4516
14732TIP3   OH265610   4.196   5.347   1.005 -0.3632  0.4361  0.5648
14732TIP3    H165611   4.106   5.375   1.021 -0.4901 -0.1077  0.8091
14732TIP3    H265612   4.224   5.398   0.929  0.2625  3.1093  2.4553
14733TIP3   OH265613   6.640   2.162  13.443 -0.1591  0.0412 -0.0286
14733TIP3    H165614   6.635   2.241  13.389 -1.2839 -0.0879 -0.1275
14733TIP3    H265615   6.561   2.113  13.422  0.2812 -0.8839  0.4029
14734TIP3   OH265616   1.431   2.270  15.085  0.5565 -0.2129 -0.1609
14734TIP3    H165617   1.485   2.291  15.161  2.4387  1.5096 -1.8444
14734TIP3    H265618   1.492   2.229  15.023 -0.2035  1.0958 -1.8520
14735TIP3   OH265619   6.008   3.062  14.842  0.7615 -0.6971 -0.1530
14735TIP3    H165620   6.066   2.999  14.886  0.2947 -0.5257  0.7224
14735TIP3    H265621   6.045   3.071  14.754  1.2578 -1.6431 -0.0566
14736TIP3   OH265622   4.806   2.798   0.080 -0.2672  0.6650 -0.5287
14736TIP3    H165623   4.813   2.789  -0.015  1.4481  1.1457 -0.4929
14736TIP3    H265624   4.890   2.836   0.106 -0.9715  1.1868  1.1090
14737TIP3   OH265625   2.791   1.382   3.218 -0.4353 -0.0603 -0.3978
14737TIP3    H165626   2.740   1.450   3.174  1.2557  0.7996 -1.1311
14737TIP3    H265627   2.858   1.357   3.154  1.0248 -0.0259  1.0544
14738TIP3   OH265628   5.672   6.089  12.857 -0.1685  0.0235  0.1973
14738TIP3    H165629   5.607   6.023  12.833  0.5980 -0.2171 -1.4021
14738TIP3    H265630   5.742   6.039  12.900 -0.1976 -0.0222  0.1912
14739TIP3   OH265631   6.436   0.662   1.484  0.0857  0.1444 -0.2095
14739TIP3    H165632   6.481   0.580   1.462  1.3640  0.8298 -0.2138
14739TIP3    H265633   6.457   0.721   1.412 -1.2410  0.3473 -0.4606
14740TIP3   OH265634   0.335   4.950   0.619 -0.0177  0.1424 -0.2033
14740TIP3    H165635   0.343   5.038   0.656 -1.3827  0.2946 -0.2419
14740TIP3    H265636   0.289   4.963   0.536  0.8789 -0.4778 -0.8156
14741TIP3   OH265637   4.487   5.110   0.869  0.5466  0.1900 -0.4807
14741TIP3    H165638   4.478   5.142   0.779 -0.0892 -0.2499 -0.5752
14741TIP3    H265639   4.528   5.024   0.860  0.2086  0.0154 -0.3728
14742TIP3   OH265640   0.556   2.128  13.126  0.4849 -0.5528  0.5379
14742TIP3    H165641   0.614   2.119  13.050  0.3733  1.3094  0.1949
14742TIP3    H265642   0.496   2.054  13.118  0.0203 -0.0142 -1.6111
14743TIP3   OH265643   1.006   1.872   5.721 -0.0306 -0.4140  0.5184
14743TIP3    H165644   1.094   1.886   5.755  0.5800 -0.9345 -0.7769
14743TIP3    H265645   0.953   1.853   5.799  0.7643  0.9325  1.4270
14744TIP3   OH265646   2.087   3.040   5.614  0.6161  0.5730  0.3028
14744TIP3    H165647   1.999   3.016   5.586  0.7060 -1.5880  1.6653
14744TIP3    H265648   2.144   2.978   5.568  1.2368  0.6038  1.0140
14745TIP3   OH265649   2.566   0.873   1.434  0.3017  0.3303 -0.0833
14745TIP3    H165650   2.550   0.832   1.349 -1.0337 -0.0999  0.3599
14745TIP3    H265651   2.570   0.966   1.415 -2.5602  0.4958 -0.3294
14746TIP3   OH265652   5.445   2.505  16.685  0.0023 -0.3440 -0.1146
14746TIP3    H165653   5.371   2.564  16.669  0.3523  0.4205  0.9908
14746TIP3    H265654   5.475   2.480  16.597 -1.3044 -0.3511 -0.5782
14747TIP3   OH265655   5.629   2.923   3.156  0.3507  0.5315  0.0663
14747TIP3    H165656   5.540   2.945   3.182  0.3023  1.2318 -0.6714
14747TIP3    H265657   5.640   2.832   3.185 -0.1792  0.8186  1.2293
14748TIP3   OH265658   4.575   2.241   5.227  0.5020 -0.3182  0.1055
14748TIP3    H165659   4.533   2.328   5.230  1.2837  0.0513  2.1885
14748TIP3    H265660   4.511   2.185   5.183 -0.9701  0.8456  0.6824
14749TIP3   OH265661   2.121   4.046  15.230  0.4577 -0.3143 -0.4913
14749TIP3    H165662   2.167   4.129  15.225  2.1517 -0.9566  2.4007
14749TIP3    H265663   2.063   4.046  15.154  3.5004  1.5900 -3.0355
14750TIP3   OH265664   4.555   0.175   6.270  0.5378  0.1867 -0.4728
14750TIP3    H165665   4.594   0.092   6.298  0.5712  0.4317  0.2038
14750TIP3    H265666   4.548   0.166   6.175  2.2619  0.1380 -0.6341
14751TIP3   OH265667   3.072   3.660  11.532  0.5952 -0.0870 -0.5335
14751TIP3    H165668   3.160   3.625  11.544  1.8600  2.3716 -1.8274
14751TIP3    H265669   3.085   3.741  11.483 -2.2487  1.3679  0.8904
14752TIP3   OH265670   5.818   5.475  11.935 -0.9572  0.2982 -0.0822
14752TIP3    H165671   5.844   5.520  11.855 -1.4848  0.0051 -0.4266
14752TIP3    H265672   5.726   5.452  11.920 -1.4346  1.3214  1.1032
14753TIP3   OH265673   0.854   0.312  13.571  0.0225  0.3703 -0.7003
14753TIP3    H165674   0.787   0.378  13.554  0.7648  1.4815  0.5102
14753TIP3    H265675   0.937   0.359  13.558  0.5728  0.0439  1.3451
14754TIP3   OH265676   0.848   6.374  16.159  0.0392  0.3183  0.2448
14754TIP3    H165677   0.859   6.442  16.093 -1.4183  1.1919  0.8657
14754TIP3    H265678   0.888   6.411  16.238  2.1674 -0.8891 -0.1712
14755TIP3   OH265679   0.519   1.404  14.820  0.0444 -0.3168  0.1142
14755TIP3    H165680   0.542   1.435  14.908  1.5327 -0.3448 -0.2369
14755TIP3    H265681   0.525   1.309  14.825 -1.1901 -0.4010  0.3087
14756TIP3   OH265682   4.661   3.531  13.435  0.0046 -0.1665  0.4541
14756TIP3    H165683   4.618   3.597  13.380 -0.4454 -0.2293  0.7244
14756TIP3    H265684   4.627   3.548  13.523 -0.2907 -0.9042  0.4858
14757TIP3   OH265685   5.393   6.245   6.222  0.1748  0.5231 -0.5761
14757TIP3    H165686   5.394   6.297   6.142 -0.3296  1.3219 -0.0779
14757TIP3    H265687   5.300   6.238   6.246  0.2504 -0.4072 -0.4985
14758TIP3   OH265688   3.619   5.767  10.700 -0.2708 -0.0798  0.8433
14758TIP3    H165689   3.635   5.778  10.794  0.3237  0.1317  0.7221
14758TIP3    H265690   3.654   5.847  10.661  0.9108 -0.8373  0.2963
14759TIP3   OH265691   2.089   4.578   2.260  0.7762  0.0015  0.2653
14759TIP3    H165692   2.152   4.559   2.190  2.0549  1.3770  0.9814
14759TIP3    H265693   2.137   4.634   2.321 -0.8867  0.3703  1.3089
14760TIP3   OH265694   0.768   3.835  13.930  0.0771  0.2089 -0.2843
14760TIP3    H165695   0.830   3.867  13.865  2.6870  0.1772  1.9832
14760TIP3    H265696   0.747   3.913  13.982 -0.9687  0.0027 -0.3924
14761TIP3   OH265697   4.695   1.653   2.549  0.3284  0.6332 -0.0383
14761TIP3    H165698   4.697   1.572   2.599 -0.1427  0.5720 -0.1137
14761TIP3    H265699   4.716   1.626   2.459  1.0282  0.7221  0.0944
14762TIP3   OH265700   3.929   6.089  13.828  0.2829  0.5760 -0.2600
14762TIP3    H165701   3.978   6.091  13.911  0.4884  2.0197 -0.3765
14762TIP3    H265702   3.989   6.129  13.764 -0.5602  1.2237 -0.6737
14763TIP3   OH265703   1.989   6.197   0.652  0.1691 -0.1155  0.4211
14763TIP3    H165704   1.941   6.249   0.716 -1.1268 -0.6527 -0.0784
14763TIP3    H265705   2.039   6.134   0.704 -1.9259 -1.4607  0.9227
14764TIP3   OH265706   0.452   0.294   4.001 -0.0571  1.0865  0.0368
14764TIP3    H165707   0.415   0.206   4.002  1.8783  0.2270  0.1171
14764TIP3    H265708   0.437   0.326   3.912  3.0028 -1.1039 -1.4528
14765TIP3   OH265709   0.138   0.099   2.055 -0.0148 -0.1549  0.1650
14765TIP3    H165710   0.086   0.066   1.982  0.4628  0.4362 -0.4601
14765TIP3    H265711   0.192   0.169   2.016 -0.5098  0.8842  1.2935
14766TIP3   OH265712   5.827   6.748  11.488  0.3082  0.0383 -0.2595
14766TIP3    H165713   5.744   6.704  11.505 -0.2080  1.1948  0.3075
14766TIP3    H265714   5.813   6.793  11.405  1.0516 -1.3306 -1.1695
14767TIP3   OH265715   1.798   2.640   0.754  0.1059 -0.0694  0.1618
14767TIP3    H165716   1.851   2.681   0.822 -0.2795 -0.6216  0.8116
14767TIP3    H265717   1.763   2.560   0.795 -0.6396 -0.0902 -0.4760
14768TIP3   OH265718   2.507   1.883   0.951  0.3376 -0.3417 -0.0399
14768TIP3    H165719   2.534   1.884   0.859  0.4266 -0.8004 -0.0204
14768TIP3    H265720   2.495   1.976   0.974 -2.5797 -0.2589 -1.3811
14769TIP3   OH265721   5.169   2.451   2.109 -0.6216 -0.5482 -0.1338
14769TIP3    H165722   5.154   2.540   2.141  0.8411 -0.8594  1.5514
14769TIP3    H265723   5.093   2.401   2.140 -0.5626 -0.2548  0.4993
14770TIP3   OH265724   6.541   2.632  10.590 -0.1593  0.1821  0.8578
14770TIP3    H165725   6.536   2.545  10.550 -1.9748 -0.3716  2.1394
14770TIP3    H265726   6.508   2.691  10.522  0.7524 -0.1658  0.0988
14771TIP3   OH265727   3.705   2.434   1.670  0.4421  0.5675 -0.0613
14771TIP3    H165728   3.620   2.476   1.683  0.6068  1.0739 -0.6070
14771TIP3    H265729   3.715   2.376   1.746 -0.0573  1.0547  0.3796
14772TIP3   OH265730   0.396   6.143   4.150  0.1916 -0.0809  0.3707
14772TIP3    H165731   0.443   6.186   4.079  1.8205  0.9377  1.9628
14772TIP3    H265732   0.304   6.146   4.123  0.8509 -0.9556 -2.2522
14773TIP3   OH265733   6.691   2.709   1.466  0.1217  0.0155  0.5149
14773TIP3    H165734   6.685   2.775   1.535  1.5396 -0.8831  1.5421
14773TIP3    H265735   6.743   2.638   1.504  1.0435 -0.4709 -1.4922
14774TIP3   OH265736   1.853   6.146   2.096  0.1452 -0.6310  0.1216
14774TIP3    H165737   1.808   6.209   2.152  0.2344  0.1614 -0.6730
14774TIP3    H265738   1.815   6.061   2.120 -0.0016 -0.2730  1.1809
14775TIP3   OH265739   1.774   5.474  10.988 -0.9054 -0.0200  0.2071
14775TIP3    H165740   1.787   5.404  11.052  0.6086 -0.9056 -0.9983
14775TIP3    H265741   1.716   5.437  10.922  0.0171 -0.2391 -0.5096
14776TIP3   OH265742   3.595   3.337  16.920 -0.1427 -0.1732  0.1059
14776TIP3    H165743   3.530   3.372  16.979  1.2036  1.9228  0.4630
14776TIP3    H265744   3.572   3.373  16.834  1.0553  1.4747  0.4171
14777TIP3   OH265745   0.545   3.142   1.106 -0.5047 -0.0873 -0.5797
14777TIP3    H165746   0.512   3.216   1.055  1.4992  0.3101 -1.3839
14777TIP3    H265747   0.553   3.070   1.042 -0.7382 -0.4699 -0.1856
14778TIP3   OH265748   4.510   5.416  11.701 -0.3664  0.3073 -0.3431
14778TIP3    H165749   4.556   5.375  11.628 -0.8136  1.2367 -1.1853
14778TIP3    H265750   4.420   5.425  11.670 -0.4654  1.1300  0.1474
14779TIP3   OH265751   2.988   0.424   4.574  0.0031  0.1383  0.3030
14779TIP3    H165752   3.030   0.354   4.524 -1.7606 -0.7811  0.0371
14779TIP3    H265753   2.928   0.465   4.512 -1.4932 -0.3677  1.3738
14780TIP3   OH265754   5.318   4.561   4.684 -0.0854  0.4287 -0.1602
14780TIP3    H165755   5.346   4.513   4.606 -2.0123  1.2494 -1.4320
14780TIP3    H265756   5.361   4.647   4.675 -1.3786  1.0043 -1.0809
14781TIP3   OH265757   3.490   0.917   3.124  0.8613  0.2322  1.0490
14781TIP3    H165758   3.415   0.878   3.169 -0.9112  0.6749 -1.3426
14781TIP3    H265759   3.508   0.997   3.173 -1.4386  1.0484  0.7056
14782TIP3   OH265760   0.134   4.349  14.870  0.7834 -0.0733 -0.1544
14782TIP3    H165761   0.198   4.393  14.814  0.0140  0.3840 -0.6909
14782TIP3    H265762   0.177   4.267  14.894  2.5774  1.2369  1.4930
14783TIP3   OH265763   0.793   0.844   2.269  0.2909  0.1457  0.1446
14783TIP3    H165764   0.860   0.867   2.333 -0.0019  0.2608  0.4154
14783TIP3    H265765   0.748   0.927   2.249 -0.5311 -0.1106  0.8536
14784TIP3   OH265766   5.985   4.749  14.676 -0.8934  0.1159  0.6813
14784TIP3    H165767   5.910   4.767  14.620 -0.4998 -1.7783 -0.5418
14784TIP3    H265768   5.978   4.655  14.695  1.6765 -0.3422 -0.3042
14785TIP3   OH265769   6.189   0.321   2.000  0.1381  0.1530 -0.6865
14785TIP3    H165770   6.112   0.357   2.043 -1.0528 -2.6034 -0.3073
14785TIP3    H265771   6.256   0.316   2.069 -0.3680 -0.3238 -0.2291
14786TIP3   OH265772   5.630   3.605   3.708  0.2303  0.4357  0.1361
14786TIP3    H165773   5.612   3.670   3.639  1.7260  0.5980 -0.1287
14786TIP3    H265774   5.706   3.640   3.754  1.0551 -1.1054  0.0016
14787TIP3   OH265775   3.867   5.596   2.440  0.1703 -0.3292 -0.5718
14787TIP3    H165776   3.864   5.551   2.356  2.1188 -0.5159 -0.5856
14787TIP3    H265777   3.943   5.558   2.485 -0.0302  0.7174  0.7079
14788TIP3   OH265778   3.547   0.790  11.779  0.1943 -0.1329  0.0457
14788TIP3    H165779   3.481   0.726  11.806  0.2987 -0.5963 -0.7797
14788TIP3    H265780   3.625   0.738  11.759  0.2470  0.2370 -0.7283
14789TIP3   OH265781   2.628   3.392  17.097 -0.5026 -0.0399 -0.2152
14789TIP3    H165782   2.591   3.460  17.153  1.6750  1.5446 -0.5604
14789TIP3    H265783   2.675   3.334  17.157 -1.3501 -0.5542 -0.0418
14790TIP3   OH265784   3.066   4.809  12.263 -0.4501 -0.4787 -0.1323
14790TIP3    H165785   3.087   4.782  12.174 -0.9336  0.4403 -0.5436
14790TIP3    H265786   2.988   4.759  12.286 -2.6215  1.9925 -1.6847
14791TIP3   OH265787   5.911   0.335  14.963 -0.1127  0.3089 -0.6567
14791TIP3    H165788   5.996   0.357  15.001 -0.0017  1.1755 -1.4004
14791TIP3    H265789   5.860   0.302  15.037  1.9536 -3.6847 -0.7204
14792TIP3   OH265790   2.097   2.269   6.478 -0.0223 -0.5053  0.2584
14792TIP3    H165791   2.075   2.257   6.386  0.6302 -1.6087  0.2298
14792TIP3    H265792   2.100   2.364   6.490  1.7666 -0.3006 -1.3399
14793TIP3   OH265793   3.105   2.721   3.065  0.6405 -0.5048  0.2233
14793TIP3    H165794   3.033   2.667   3.032 -0.3341  0.8160  0.0968
14793TIP3    H265795   3.156   2.744   2.988 -0.6342  1.1344 -0.1942
14794TIP3   OH265796   5.323   1.763  12.160  0.4362  0.1182  0.4104
14794TIP3    H165797   5.287   1.850  12.141  2.8086  1.5035  1.7679
14794TIP3    H265798   5.278   1.736  12.240  0.5659  0.7104  0.6953
14795TIP3   OH265799   5.367   4.468   2.887  0.3050 -0.1303  0.9953
14795TIP3    H165800   5.347   4.387   2.934 -0.1543  0.3785  1.6954
14795TIP3    H265801   5.448   4.448   2.839  0.3509 -0.9116  1.3767
14796TIP3   OH265802   6.328   2.684   0.315 -0.6643  0.2254  0.0052
14796TIP3    H165803   6.370   2.674   0.401  0.1531  0.1007 -0.4012
14796TIP3    H265804   6.384   2.746   0.268  2.2222 -3.7415 -2.4331
14797TIP3   OH265805   1.189   1.924  15.309  0.9043 -0.1401 -0.3380
14797TIP3    H165806   1.227   1.837  15.325 -0.0998 -0.1492  2.7210
14797TIP3    H265807   1.096   1.913  15.325  1.0464  1.9094  2.8594
14798TIP3   OH265808   6.715   4.511  15.253  0.1400 -0.4595 -0.3223
14798TIP3    H165809   6.808   4.498  15.237  0.2470  0.3391 -0.3829
14798TIP3    H265810   6.676   4.513  15.166  0.1574 -0.1729 -0.3256
14799TIP3   OH265811   4.232   2.560   2.480  0.2298 -0.4001  0.1692
14799TIP3    H165812   4.240   2.465   2.465  1.9252 -0.4271  1.0838
14799TIP3    H265813   4.245   2.599   2.394  2.6287 -0.8826  0.2568
14800TIP3   OH265814   6.667   5.685  11.804 -0.6839 -0.6389 -0.1504
14800TIP3    H165815   6.605   5.613  11.816 -0.6982 -0.5379  0.4320
14800TIP3    H265816   6.613   5.764  11.811 -0.3700 -0.5204  1.3075
14801TIP3   OH265817   4.847   6.057  12.775 -0.7102 -0.5230 -0.3257
14801TIP3    H165818   4.787   6.023  12.709 -0.7883 -1.5511  0.2427
14801TIP3    H265819   4.818   6.016  12.857 -1.5053  1.8095  0.6291
14802TIP3   OH265820   1.579   4.885  11.852 -0.3795 -0.5324  0.1497
14802TIP3    H165821   1.622   4.801  11.841  1.8035  0.3926  0.8955
14802TIP3    H265822   1.642   4.949  11.818 -1.3277  0.8966  0.9552
14803TIP3   OH265823   1.946   2.090   2.315  0.3484  0.1612 -0.3351
14803TIP3    H165824   1.926   2.144   2.392 -2.2509 -0.8643 -0.1715
14803TIP3    H265825   1.973   2.006   2.352  1.8039  0.4808 -0.5999
14804TIP3   OH265826   1.025   0.340   0.055  0.0519  0.4341 -0.3816
14804TIP3    H165827   1.108   0.335   0.007  0.6504  1.4367  0.5099
14804TIP3    H265828   0.976   0.262   0.027  1.7107 -0.7340 -0.1630
14805TIP3   OH265829   6.094   5.742  10.494 -0.7596  0.4046 -0.1312
14805TIP3    H165830   6.182   5.778  10.495  0.7263 -2.7165  3.0067
14805TIP3    H265831   6.049   5.786  10.565 -1.0219  0.4385 -0.3170
14806TIP3   OH265832   1.953   0.145  13.635  0.2338 -0.2015 -0.3674
14806TIP3    H165833   2.037   0.148  13.590  1.0133 -0.0579  1.0184
14806TIP3    H265834   1.944   0.054  13.664  0.1723 -0.1050 -0.0727
14807TIP3   OH265835   0.591   0.410   5.220  0.3548  0.1981 -0.2466
14807TIP3    H165836   0.637   0.387   5.139  1.2677 -0.6723  0.4818
14807TIP3    H265837   0.558   0.498   5.205  1.0786  0.3058 -1.3248
14808TIP3   OH265838   4.876   1.637  13.513  0.4034 -0.5932  0.0938
14808TIP3    H165839   4.888   1.650  13.419  0.6287 -0.8293  0.0883
14808TIP3    H265840   4.962   1.607  13.544  0.4528 -0.1108  0.4455
14809TIP3   OH265841   5.810   3.028   1.656  0.3466  0.4516  0.3070
14809TIP3    H165842   5.720   3.022   1.624  1.5229 -1.6049 -3.2155
14809TIP3    H265843   5.805   3.004   1.748 -2.6428 -0.1690  0.0691
14810TIP3   OH265844   4.074   0.227   1.228  0.3380 -0.1769 -0.5646
14810TIP3    H165845   4.112   0.289   1.291  1.4755 -0.6313 -0.7885
14810TIP3    H265846   3.990   0.267   1.203  1.1085  1.3522 -0.8188
14811TIP3   OH265847   4.680   0.036   2.689 -0.0280  0.6267  0.9866
14811TIP3    H165848   4.594   0.013   2.651  0.1213  0.9223  0.4601
14811TIP3    H265849   4.725   0.083   2.619  0.5465  0.5226  1.2823
14812TIP3   OH265850   3.705   2.370  11.568  0.2130  0.1410 -0.2030
14812TIP3    H165851   3.720   2.464  11.557  0.4639  0.1305  0.0368
14812TIP3    H265852   3.697   2.337  11.479  0.9039  0.2677 -0.3203
14813TIP3   OH265853   6.430   5.709   1.673  0.5926 -0.3477  0.3486
14813TIP3    H165854   6.523   5.687   1.668  0.3984 -0.9130 -2.5545
14813TIP3    H265855   6.387   5.647   1.613 -0.9711  2.8890 -2.2167
14814TIP3   OH265856   0.401   1.150  14.590 -0.0118 -0.3664 -0.4628
14814TIP3    H165857   0.480   1.111  14.551  2.0753  1.0035  2.0561
14814TIP3    H265858   0.373   1.086  14.656  0.7032  0.3027  0.5286
14815TIP3   OH265859   0.572   5.030  11.325  0.4616  0.5097 -0.3080
14815TIP3    H165860   0.478   5.009  11.320  0.5910 -0.0802 -0.3064
14815TIP3    H265861   0.588   5.084  11.248  0.1468  0.5174 -0.3729
14816TIP3   OH265862   4.733   0.604  17.177  0.2112 -0.0682  0.1015
14816TIP3    H165863   4.802   0.670  17.169 -0.8594  0.9371 -1.3685
14816TIP3    H265864   4.759   0.534  17.117  1.2361 -0.9571  1.5017
14817TIP3   OH265865   4.383   0.532   5.777  0.2413  0.2273 -0.1055
14817TIP3    H165866   4.356   0.442   5.758  0.1606 -0.2284  1.9146
14817TIP3    H265867   4.413   0.530   5.868  2.2808  1.8145 -0.6509
14818TIP3   OH265868   4.665   6.781   4.439 -0.2869  0.1149 -0.2126
14818TIP3    H165869   4.751   6.800   4.476  0.4221 -0.2176 -1.6307
14818TIP3    H265870   4.623   6.866   4.431 -0.7994  0.1450  2.0446
14819TIP3   OH265871   3.310   5.972  16.402  0.4910 -0.1056  0.3116
14819TIP3    H165872   3.350   6.000  16.320 -0.2904  0.0130 -0.0408
14819TIP3    H265873   3.265   5.890  16.381 -1.2300  0.8281  0.1407
14820TIP3   OH265874   4.425   3.102  10.696  0.1124 -0.4495  0.6764
14820TIP3    H165875   4.458   3.023  10.741  1.0012  0.1378  1.0809
14820TIP3    H265876   4.359   3.069  10.636  1.5585 -1.7224 -0.3004
14821TIP3   OH265877   3.357   1.798  13.062  0.8192  0.2239 -0.5946
14821TIP3    H165878   3.340   1.774  12.970  0.0175 -0.8795 -0.1805
14821TIP3    H265879   3.276   1.775  13.108  1.5680 -0.1620  0.5634
14822TIP3   OH265880   2.157   6.317  13.517 -0.2241  0.0304  0.5427
14822TIP3    H165881   2.124   6.272  13.595  1.4659 -0.0205  1.2757
14822TIP3    H265882   2.140   6.410  13.535 -0.2686 -0.0215  0.7732
14823TIP3   OH265883   4.029   4.073  16.510 -0.1166 -0.0145  0.2687
14823TIP3    H165884   4.087   4.064  16.586 -0.9421 -0.4934  0.8512
14823TIP3    H265885   4.057   4.003  16.451 -1.1808 -1.3493  1.2841
14824TIP3   OH265886   6.345   5.063  11.987 -0.3342  0.0575  0.1747
14824TIP3    H165887   6.262   5.025  12.015 -0.2428  0.0942  0.5099
14824TIP3    H265888   6.329   5.157  11.985 -0.3352  0.0562  0.1235
14825TIP3   OH265889   4.685   6.546   3.529 -0.6750  0.1116 -0.3258
14825TIP3    H165890   4.706   6.586   3.445 -2.2991  2.7792  0.4278
14825TIP3    H265891   4.593   6.569   3.544 -0.7927 -1.3853  1.6372
14826TIP3   OH265892   1.117   3.295   4.636 -0.0345 -0.6202  0.0669
14826TIP3    H165893   1.175   3.322   4.564 -0.9427  2.7420  0.4225
14826TIP3    H265894   1.047   3.246   4.593  0.3081 -0.1048 -1.1268
14827TIP3   OH265895   0.594   4.707  16.662 -0.4160  0.0242  0.3427
14827TIP3    H165896   0.688   4.697  16.644 -0.4698 -0.6012  0.3767
14827TIP3    H265897   0.579   4.656  16.741 -1.1438 -1.5671 -0.7606
14828TIP3   OH265898   2.644   5.016  16.075  0.7107  0.3166  0.3719
14828TIP3    H165899   2.572   4.952  16.073  0.9423  0.0235  1.0480
14828TIP3    H265900   2.721   4.964  16.096  1.3561  0.4395 -1.5135
14829TIP3   OH265901   4.082   3.727   5.683 -0.2882 -0.2333  0.2026
14829TIP3    H165902   4.070   3.676   5.602 -0.1255  0.0749 -0.0179
14829TIP3    H265903   3.998   3.772   5.695 -0.6325 -0.9982  0.7136
14830TIP3   OH265904   3.717   1.868  13.715 -0.3785 -0.0515  0.2375
14830TIP3    H165905   3.731   1.858  13.809 -1.6435  2.6235  0.8208
14830TIP3    H265906   3.800   1.902  13.682 -0.5077  0.8206  0.7696
14831TIP3   OH265907   5.058   1.567  16.010  0.3261 -0.6008  0.0711
14831TIP3    H165908   5.060   1.504  16.082  0.6292 -1.0184 -0.2944
14831TIP3    H265909   5.145   1.562  15.972  0.2686 -0.1471 -0.1297
14832TIP3   OH265910   0.257   6.602   3.875 -0.0592  0.3063  0.0674
14832TIP3    H165911   0.168   6.583   3.905 -1.2050  2.3502 -1.7549
14832TIP3    H265912   0.263   6.559   3.790  1.1301 -0.7279  0.6467
14833TIP3   OH265913   3.178   5.512  15.722 -0.1935 -0.0149 -0.1570
14833TIP3    H165914   3.116   5.482  15.788 -0.3484  1.0068  0.1873
14833TIP3    H265915   3.253   5.545  15.773 -0.7384  1.7350 -0.4011
14834TIP3   OH265916   5.313   6.006   1.188  0.3377  0.4184 -0.7754
14834TIP3    H165917   5.331   5.945   1.260  1.2699 -0.3361 -1.6243
14834TIP3    H265918   5.291   5.950   1.113 -0.8375  1.1980 -1.0544
14835TIP3   OH265919   2.515   0.931   2.825 -0.4270 -0.2849  0.7015
14835TIP3    H165920   2.573   1.006   2.841  0.3409 -0.1733 -2.0008
14835TIP3    H265921   2.573   0.855   2.824 -1.0326 -0.8093  2.2442
14836TIP3   OH265922   6.686   5.358   5.618 -0.0612  0.5138  0.4908
14836TIP3    H165923   6.756   5.371   5.683 -0.4187 -3.1884  1.8890
14836TIP3    H265924   6.606   5.356   5.670 -0.3370 -2.8251  0.1871
14837TIP3   OH265925   3.718   2.524  12.847  0.0889  1.0558  0.1760
14837TIP3    H165926   3.746   2.507  12.757 -0.6414  0.9009 -0.0245
14837TIP3    H265927   3.673   2.444  12.874  2.6088  0.0246  1.6329
14838TIP3   OH265928   1.632   4.336  15.561 -0.0900  0.0832  0.0641
14838TIP3    H165929   1.628   4.432  15.555 -1.2756  0.0383 -0.0055
14838TIP3    H265930   1.701   4.320  15.626 -1.0149  1.0479  1.3459
14839TIP3   OH265931   4.181   4.562  15.419  0.3547  0.1752 -0.6706
14839TIP3    H165932   4.253   4.620  15.446 -0.0910  0.4127  0.0433
14839TIP3    H265933   4.210   4.474  15.442 -0.3804  0.4481  1.5060
14840TIP3   OH265934   5.010   6.490   2.521  0.3537  0.1018 -0.7715
14840TIP3    H165935   4.963   6.407   2.525  1.1543 -0.4258 -1.8692
14840TIP3    H265936   5.032   6.509   2.613 -0.3356 -0.5858 -0.4484
14841TIP3   OH265937   0.585   0.017  13.539  0.1429  0.0779  0.5472
14841TIP3    H165938   0.556  -0.047  13.474  2.8783  0.1152 -0.8861
14841TIP3    H265939   0.530   0.094  13.524  0.0550 -0.2681 -1.0874
14842TIP3   OH265940   4.468   6.111   2.228  0.5012  0.1324 -0.2194
14842TIP3    H165941   4.494   6.019   2.227 -0.1118 -0.0407 -1.8643
14842TIP3    H265942   4.386   6.114   2.179 -0.0040  1.4269  0.6322
14843TIP3   OH265943   6.180   6.237  13.449  0.4603 -0.6357  0.9199
14843TIP3    H165944   6.132   6.260  13.528  0.7350  1.6882  0.4801
14843TIP3    H265945   6.137   6.159  13.416 -1.6901  0.1814  1.6487
14844TIP3   OH265946   0.326   4.091   0.020 -0.7940  0.8688  0.0710
14844TIP3    H165947   0.399   4.099  -0.041 -1.0132  2.2196 -0.0510
14844TIP3    H265948   0.287   4.006  -0.001  0.6389  0.1906  0.0505
14845TIP3   OH265949   4.332   1.395  17.118  0.6516  0.3334 -0.0957
14845TIP3    H165950   4.294   1.457  17.056 -0.0742  0.0971  0.0967
14845TIP3    H265951   4.291   1.311  17.096 -1.2803  0.6237  2.0363
14846TIP3   OH265952   4.825   3.562  15.025  0.6137 -0.3012 -0.0170
14846TIP3    H165953   4.737   3.592  15.051  0.1652 -1.8991  0.3774
14846TIP3    H265954   4.865   3.639  14.984 -2.6989 -0.6908 -4.7204
14847TIP3   OH265955   4.419   4.745  15.420 -0.4603 -0.5125  0.1333
14847TIP3    H165956   4.468   4.702  15.490 -1.7649 -0.4804  1.1105
14847TIP3    H265957   4.430   4.838  15.437 -0.2125 -0.4911 -0.1283
14848TIP3   OH265958   1.046   5.493   2.313  0.0156  0.4652 -0.2206
14848TIP3    H165959   1.037   5.420   2.374 -2.2503  2.8920  2.7034
14848TIP3    H265960   0.983   5.474   2.243 -1.8203  0.3171  1.3884
14849TIP3   OH265961   2.769   5.124  14.891  0.1652 -0.2567  0.2702
14849TIP3    H165962   2.698   5.161  14.943 -0.4253  0.2832 -0.8813
14849TIP3    H265963   2.847   5.170  14.920 -0.1995  0.2533  0.4515
14850TIP3   OH265964   0.904   6.250  14.152  0.2167  0.7590 -0.3723
14850TIP3    H165965   0.981   6.261  14.095  0.2515 -1.4411 -0.8336
14850TIP3    H265966   0.896   6.155  14.164 -2.7581  0.8537 -0.7975
14851TIP3   OH265967   2.361   3.678   6.589  0.5196  0.3705  0.2982
14851TIP3    H165968   2.303   3.634   6.527 -3.1137 -0.5401  3.9043
14851TIP3    H265969   2.343   3.771   6.576  0.1568  0.2166 -0.3303
14852TIP3   OH265970   6.108   4.837  12.870 -0.1874  0.3974 -0.1518
14852TIP3    H165971   6.038   4.892  12.837  0.7769  0.8109 -1.6121
14852TIP3    H265972   6.181   4.851  12.809  0.8744 -0.6772  0.8050
14853TIP3   OH265973   6.742   1.603   1.753 -0.1168 -0.1635 -0.1019
14853TIP3    H165974   6.722   1.521   1.799 -1.5309  0.2913  0.1552
14853TIP3    H265975   6.716   1.586   1.662 -0.4565  0.0026 -0.0383
14854TIP3   OH265976   5.298   3.629   2.547 -0.0053 -0.5101 -0.0822
14854TIP3    H165977   5.296   3.545   2.593 -0.6485 -0.0276  0.8157
14854TIP3    H265978   5.213   3.670   2.568  0.3681  0.4378 -0.3548
14855TIP3   OH265979   1.877   1.692   5.307  0.3775  0.0211 -0.2333
14855TIP3    H165980   1.936   1.707   5.381 -1.9801  3.1981  1.2604
14855TIP3    H265981   1.927   1.720   5.231  1.1678  1.8149  0.8789
14856TIP3   OH265982   1.286   3.162   3.022 -0.2248 -0.2886 -0.0284
14856TIP3    H165983   1.342   3.236   3.041  0.1703 -0.6834  0.3651
14856TIP3    H265984   1.344   3.097   2.982 -0.5847 -0.3552 -0.4553
14857TIP3   OH265985   6.588   0.323  16.089  0.2192  0.6561 -0.2895
14857TIP3    H165986   6.650   0.330  16.162  1.0269 -0.8559 -0.7901
14857TIP3    H265987   6.641   0.294  16.015 -1.1226 -1.0797 -0.6386
14858TIP3   OH265988   4.718   6.469  15.620 -0.6242  0.2834  0.5465
14858TIP3    H165989   4.672   6.443  15.540 -1.0822  0.1319  0.8572
14858TIP3    H265990   4.785   6.531  15.590  1.0418 -1.7811 -0.3395
14859TIP3   OH265991   6.296   2.663  13.757 -0.0155  0.2434  0.2011
14859TIP3    H165992   6.284   2.568  13.760  0.5493  0.1858  1.4040
14859TIP3    H265993   6.208   2.698  13.748 -0.3942 -0.3532  1.3884
14860TIP3   OH265994   2.004   1.545   0.717  0.5825  0.3937  0.5467
14860TIP3    H165995   1.944   1.475   0.743 -0.2177  0.5905 -0.7034
14860TIP3    H265996   2.003   1.605   0.791  1.8126 -1.2093  1.9498
14861TIP3   OH265997   4.690   4.351  16.482  0.2087  0.1573  0.4437
14861TIP3    H165998   4.724   4.330  16.395 -0.4431  0.7890  0.0193
14861TIP3    H265999   4.767   4.353  16.538  0.9150  1.5884 -0.4945
14862TIP3   OH266000   4.812   4.246  14.321  0.3936 -0.2419 -1.0167
14862TIP3    H166001   4.745   4.312  14.337  0.1364 -0.8597  0.7159
14862TIP3    H266002   4.773   4.187  14.257 -1.2508 -1.2374  0.7868
14863TIP3   OH266003   4.771   5.452   0.542  0.3427  0.7899 -0.0272
14863TIP3    H166004   4.690   5.495   0.570  0.9226  1.3965  0.7814
14863TIP3    H266005   4.775   5.372   0.595  1.0759  1.5767  1.1397
14864TIP3   OH266006   0.981   1.930  11.752  0.1518 -0.4940  0.3299
14864TIP3    H166007   0.911   1.933  11.686  0.7845  0.6830 -0.3213
14864TIP3    H266008   1.062   1.930  11.702  0.6571  0.8516  1.0999
14865TIP3   OH266009   1.114   5.126   3.003  0.1466  0.4018  0.0528
14865TIP3    H166010   1.107   5.221   3.011  0.0544  0.4987 -1.0599
14865TIP3    H266011   1.196   5.104   3.047  0.7412  1.1391 -0.6585
14866TIP3   OH266012   2.499   4.259  14.658 -0.0967 -0.5412  0.1778
14866TIP3    H166013   2.546   4.282  14.578 -2.4026 -1.8275 -1.6733
14866TIP3    H266014   2.442   4.334  14.675 -1.1934 -1.1287 -0.7310
14867TIP3   OH266015   5.260   3.335  12.590 -0.4787  0.7101 -0.4422
14867TIP3    H166016   5.253   3.383  12.507 -0.1022  1.3065 -0.1380
14867TIP3    H266017   5.326   3.383  12.639  0.8925 -0.9061 -0.6408
14868TIP3   OH266018   2.402   3.461  12.910  0.2241 -0.6354 -0.0669
14868TIP3    H166019   2.415   3.370  12.938 -0.6607 -0.5754  0.6176
14868TIP3    H266020   2.425   3.462  12.818 -1.2048 -1.9192 -0.4830
14869TIP3   OH266021   6.168   0.383   2.904 -0.6867 -0.3006 -0.5310
14869TIP3    H166022   6.207   0.419   2.984 -0.5061  0.5941 -1.0069
14869TIP3    H266023   6.232   0.320   2.872 -1.2490 -1.4844  0.6147
14870TIP3   OH266024   5.834   2.284  17.048 -0.8568  0.9167 -0.2048
14870TIP3    H166025   5.903   2.327  16.997 -0.6132  2.8377  1.6052
14870TIP3    H266026   5.755   2.331  17.024 -1.1313  0.3088 -0.4944
14871TIP3   OH266027   2.200   5.010  13.272  0.3483  0.1860  0.2935
14871TIP3    H166028   2.144   4.941  13.235  0.6114 -0.2730  0.7445
14871TIP3    H266029   2.144   5.087  13.273  0.4745  0.3615 -1.5389
14872TIP3   OH266030   0.800   3.346   5.622  0.0124 -0.4830 -0.0577
14872TIP3    H166031   0.871   3.293   5.587  0.8510 -0.2270  1.1979
14872TIP3    H266032   0.826   3.436   5.603  0.6163 -0.3230  1.4019
14873TIP3   OH266033   2.963   4.429  13.159 -0.1705 -0.0008  0.0213
14873TIP3    H166034   2.918   4.430  13.074  1.2970  0.9127 -0.7888
14873TIP3    H266035   3.011   4.511  13.162 -0.6149  0.2363  2.0105
14874TIP3   OH266036   5.152   6.247  15.155 -0.1015  0.1836  0.1000
14874TIP3    H166037   5.111   6.331  15.173 -0.6858  0.3486 -1.8123
14874TIP3    H266038   5.181   6.253  15.064  0.2790 -1.5068  0.0713
14875TIP3   OH266039   4.314   2.594   0.688  0.7592 -0.3480 -0.4808
14875TIP3    H166040   4.336   2.548   0.607  0.0605  0.5781 -1.2101
14875TIP3    H266041   4.380   2.662   0.696  0.9648 -0.5867 -0.1481
14876TIP3   OH266042   1.570   3.158  16.034  0.0775 -0.7481 -0.2400
14876TIP3    H166043   1.574   3.188  15.943  1.3490 -0.6599 -0.1830
14876TIP3    H266044   1.511   3.082  16.032  0.2642 -0.8864 -1.1801
14877TIP3   OH266045   1.620   3.025   5.958 -0.1146 -0.5378  0.0351
14877TIP3    H166046   1.652   2.970   6.029  1.0925 -1.4947 -1.1955
14877TIP3    H266047   1.566   2.966   5.905 -0.5169  0.0071 -0.1720
14878TIP3   OH266048   5.520   5.554   2.571  0.0368 -0.0729  0.2494
14878TIP3    H166049   5.523   5.582   2.663  0.3230 -1.1835  0.5943
14878TIP3    H266050   5.606   5.578   2.536 -0.3714  1.1077  0.0317
14879TIP3   OH266051   6.020   5.663  12.819  0.5177  0.0958  0.2226
14879TIP3    H166052   5.942   5.666  12.874 -0.9447 -1.7696 -1.5945
14879TIP3    H266053   6.001   5.723  12.747  0.6517 -0.5311 -0.3420
14880TIP3   OH266054   1.072   2.744   4.528 -0.0783  0.5217  0.8521
14880TIP3    H166055   1.128   2.821   4.529  0.0181  0.4770  2.9365
14880TIP3    H266056   0.999   2.766   4.586 -1.6991  0.1479 -0.8910
14881TIP3   OH266057   0.502   6.343   3.614  0.3035 -0.2094 -0.3744
14881TIP3    H166058   0.424   6.384   3.578  0.6326  1.5493  0.7657
14881TIP3    H266059   0.573   6.374   3.558  0.5538  0.8754  0.4956
14882TIP3   OH266060   1.471   0.254  16.901  0.0203 -0.1159 -0.0020
14882TIP3    H166061   1.541   0.309  16.938 -0.9005  1.4545 -0.4907
14882TIP3    H266062   1.391   0.305  16.914 -0.9407 -1.5036 -0.2222
14883TIP3   OH266063   1.250   3.910   3.955 -0.1985 -0.7371  0.3559
14883TIP3    H166064   1.336   3.921   3.914 -0.6849 -1.2128 -0.8394
14883TIP3    H266065   1.233   3.995   3.997  0.3561 -0.2490 -0.3684
14884TIP3   OH266066   4.903   0.377  10.677 -0.3693  0.5748 -0.3689
14884TIP3    H166067   4.832   0.362  10.615 -0.3186 -2.6547  0.1879
14884TIP3    H266068   4.981   0.386  10.622 -0.6741  0.3955 -0.8403
14885TIP3   OH266069   2.055   3.082   4.262 -0.0164  0.2662  0.4763
14885TIP3    H166070   2.026   3.077   4.353 -1.0862 -0.4566  0.1131
14885TIP3    H266071   1.980   3.117   4.214  0.4219  0.3303 -0.1833
14886TIP3   OH266072   4.108   6.590   2.619  0.8654 -0.1984  0.1610
14886TIP3    H166073   4.086   6.681   2.637 -0.6525 -0.6256  0.6973
14886TIP3    H266074   4.093   6.579   2.525 -0.9469 -0.3384  0.4158
14887TIP3   OH266075   5.815   4.470  14.277  0.3407 -0.3782  0.4976
14887TIP3    H166076   5.819   4.457  14.182 -3.3565  0.1350  0.1433
14887TIP3    H266077   5.787   4.561  14.287 -0.5392 -0.7901  2.0218
14888TIP3   OH266078   4.261   0.514  15.823 -0.1841  0.6512 -0.0509
14888TIP3    H166079   4.260   0.574  15.898  2.8288 -0.0312  0.6754
14888TIP3    H266080   4.313   0.439  15.853 -1.6337 -1.1733 -1.7965
14889TIP3   OH266081   1.820   0.584   2.968 -0.0262 -0.2141  0.0414
14889TIP3    H166082   1.878   0.540   2.906 -0.1011 -1.4371  0.7906
14889TIP3    H266083   1.869   0.661   2.996  1.0205 -0.9180  0.2168
14890TIP3   OH266084   5.544   6.478   0.762 -0.4644 -0.4835  0.5696
14890TIP3    H166085   5.471   6.422   0.789  0.6072 -0.4358  4.0382
14890TIP3    H266086   5.517   6.512   0.676 -3.6179 -1.9283  0.8214
14891TIP3   OH266087   5.873   1.828   3.549  0.8385 -0.4294  0.5104
14891TIP3    H166088   5.826   1.874   3.479  0.5123 -1.6893 -0.1284
14891TIP3    H266089   5.870   1.736   3.523  0.9693 -0.8853  2.0396
14892TIP3   OH266090   6.781   1.141  12.320  0.6552 -0.4350 -0.3856
14892TIP3    H166091   6.869   1.154  12.355  0.4638 -1.7263  0.6350
14892TIP3    H266092   6.767   1.047  12.322 -0.7278 -0.2634 -0.6027
14893TIP3   OH266093   3.796   4.861  16.952 -0.4761  0.4834 -0.2643
14893TIP3    H166094   3.794   4.934  17.015 -1.8651  0.7862 -0.6229
14893TIP3    H266095   3.741   4.891  16.880 -3.5611 -2.0597  0.8601
14894TIP3   OH266096   4.542   4.973  17.112 -0.0560  0.1224 -0.4710
14894TIP3    H166097   4.635   4.988  17.097  0.3583 -0.8070  1.0325
14894TIP3    H266098   4.524   5.014  17.196 -1.4058  1.6852 -1.4529
14895TIP3   OH266099   4.730   1.100  11.547  0.4575  0.0924  0.2306
14895TIP3    H166100   4.651   1.058  11.580  0.7273 -0.9417 -0.3983
14895TIP3    H266101   4.699   1.168  11.487  0.0448 -0.2632  0.0410
14896TIP3   OH266102   4.068   6.035   1.842 -0.0764 -0.1802  0.0504
14896TIP3    H166103   3.991   5.977   1.837 -0.4190  0.2176  0.5506
14896TIP3    H266104   4.072   6.077   1.756 -1.1508  0.6891  0.3904
14897TIP3   OH266105   4.391   1.332  16.285  0.1332  0.2488  0.4123
14897TIP3    H166106   4.396   1.421  16.252  3.0394 -0.1973 -0.6845
14897TIP3    H266107   4.408   1.339  16.379 -0.7330  0.9312  0.5199
14898TIP3   OH266108   6.563   3.191  15.205 -0.3467 -0.2846 -0.2283
14898TIP3    H166109   6.476   3.153  15.214 -0.3164 -0.2044  0.4200
14898TIP3    H266110   6.552   3.283  15.227  0.0127 -0.3976  0.4441
14899TIP3   OH266111   6.023   3.283  12.554  0.4766 -0.1709 -0.3513
14899TIP3    H166112   5.992   3.193  12.558  2.3266 -0.8218  0.1716
14899TIP3    H266113   6.118   3.276  12.551  0.6457  1.7564 -0.9525
14900TIP3   OH266114   5.048   5.287   5.852  0.3573 -0.3687  0.2225
14900TIP3    H166115   4.992   5.314   5.779 -1.6927  0.1877  1.8921
14900TIP3    H266116   5.137   5.306   5.823 -0.4193  0.2132 -1.9456
14901TIP3   OH266117   6.373   4.064   5.949 -0.0638  0.0717 -0.2970
14901TIP3    H166118   6.321   4.110   6.014  0.3522  0.4649 -0.2353
14901TIP3    H266119   6.376   4.124   5.874 -0.9529 -0.5861 -0.8660
14902TIP3   OH266120   5.364   0.301  16.755  0.0254 -0.6003 -0.0840
14902TIP3    H166121   5.282   0.331  16.794  0.2044 -0.7200  0.3941
14902TIP3    H266122   5.403   0.380  16.717  0.7457 -0.0720  1.6312
14903TIP3   OH266123   2.862   4.993   4.105  0.5327  0.2343 -0.2672
14903TIP3    H166124   2.837   5.040   4.025  0.3219 -0.2683 -0.5046
14903TIP3    H266125   2.818   5.041   4.176  2.1251  1.7370 -0.2364
14904TIP3   OH266126   0.913   2.157  16.256  0.0427  0.2525 -0.3435
14904TIP3    H166127   1.008   2.148  16.259  0.1479  1.0263  2.5386
14904TIP3    H266128   0.896   2.218  16.184  1.5054 -1.4016 -2.1789
14905TIP3   OH266129   1.801   2.452  14.699  0.6624  0.3807  0.0721
14905TIP3    H166130   1.777   2.412  14.782 -0.2541  1.2838  0.2580
14905TIP3    H266131   1.734   2.518  14.683  1.6224  1.2226 -0.6691
14906TIP3   OH266132   2.338   4.065   2.140  0.1795 -0.0169 -0.0302
14906TIP3    H166133   2.274   4.062   2.069  1.8355 -1.6229 -1.5539
14906TIP3    H266134   2.312   3.996   2.201  0.2249 -0.3964 -0.4415
14907TIP3   OH266135   0.662   5.169   1.846  0.1583 -0.1862 -0.0194
14907TIP3    H166136   0.698   5.178   1.934  1.3070  0.5829 -0.5357
14907TIP3    H266137   0.723   5.109   1.802 -0.1589 -0.2194 -0.4160
14908TIP3   OH266138   3.483   2.239  16.998 -0.7208  0.8790  0.1767
14908TIP3    H166139   3.487   2.214  16.905  0.0199  1.2265  0.1008
14908TIP3    H266140   3.496   2.334  16.997 -1.3269  0.9684  0.5981
14909TIP3   OH266141   1.543   0.812  14.441 -0.2874 -0.3720 -0.4949
14909TIP3    H166142   1.553   0.769  14.526 -1.6620 -0.3301 -0.2799
14909TIP3    H266143   1.458   0.856  14.447  0.4645  1.2312 -1.2108
14910TIP3   OH266144   0.785   4.729   5.215 -0.3998 -0.0551 -0.6020
14910TIP3    H166145   0.796   4.788   5.289  1.0285 -0.7787 -0.2098
14910TIP3    H266146   0.692   4.736   5.193 -0.8007  0.3539  1.0920
14911TIP3   OH266147   4.573   4.124   2.578  0.3324  0.0378  0.1127
14911TIP3    H166148   4.567   4.156   2.668 -1.9228 -1.5876  0.6047
14911TIP3    H266149   4.627   4.045   2.584 -2.3655 -1.8814  0.6719
14912TIP3   OH266150   0.192   0.125   0.002 -0.4078  0.0975  0.3831
14912TIP3    H166151   0.226   0.036   0.012 -0.7780  0.0277  1.0502
14912TIP3    H266152   0.260   0.171  -0.048 -0.4186 -0.6769 -0.3624
14913TIP3   OH266153   2.416   1.698   2.434  0.4953 -0.0777 -0.3006
14913TIP3    H166154   2.489   1.646   2.467  0.1196  0.5247  1.6430
14913TIP3    H266155   2.345   1.682   2.496  0.9378  4.1313  1.7196
14914TIP3   OH266156   5.417   0.915  13.482 -0.1054 -0.3416 -0.0435
14914TIP3    H166157   5.333   0.961  13.479  0.9614  1.6487 -1.9351
14914TIP3    H266158   5.396   0.827  13.452 -1.3316  0.5555 -2.0625
14915TIP3   OH266159   1.476   4.117   1.578  0.7418 -0.5459  0.1074
14915TIP3    H166160   1.479   4.127   1.673 -1.5078  0.4105  0.1318
14915TIP3    H266161   1.408   4.051   1.564 -0.0135  0.4322 -0.8873
14916TIP3   OH266162   3.218   3.780   1.299 -0.1819  0.9363 -0.5061
14916TIP3    H166163   3.199   3.763   1.391  0.4801  1.8817 -0.1773
14916TIP3    H266164   3.169   3.714   1.251  1.4123 -1.1788  0.6297
14917TIP3   OH266165   3.075   2.337  12.545 -0.1511 -0.5875  0.4258
14917TIP3    H166166   3.167   2.317  12.559 -0.1815 -0.6779  0.4955
14917TIP3    H266167   3.030   2.254  12.559 -0.2924 -0.4401  0.8616
14918TIP3   OH266168   2.695   2.139  14.843  0.6048 -0.4133 -0.3031
14918TIP3    H166169   2.663   2.052  14.866 -0.5567 -0.1855 -0.9825
14918TIP3    H266170   2.709   2.182  14.927 -0.2801 -0.7402  0.0242
14919TIP3   OH266171   4.850   3.059  14.350 -0.2032 -0.2395  0.1881
14919TIP3    H166172   4.913   3.034  14.282 -1.6941  0.2058 -1.4310
14919TIP3    H266173   4.769   3.076  14.302 -0.8023  2.0620  1.8486
14920TIP3   OH266174   5.641   0.206  12.989 -0.6014 -0.8637 -0.2871
14920TIP3    H166175   5.585   0.280  13.012 -1.2239 -1.3416 -0.2218
14920TIP3    H266176   5.621   0.140  13.056 -1.2113 -1.6676 -1.2371
14921TIP3   OH266177   3.240   3.618  13.608 -0.0129 -0.6814 -0.1547
14921TIP3    H166178   3.329   3.638  13.579  0.4097  0.0332  1.5234
14921TIP3    H266179   3.248   3.533  13.652  0.4629  0.5957  2.4072
14922TIP3   OH266180   5.337   2.522  14.233  0.8585  0.4498 -0.0546
14922TIP3    H166181   5.335   2.607  14.189 -2.4207  0.6594  0.2952
14922TIP3    H266182   5.393   2.537  14.309  0.3056  2.3131  0.0401
14923TIP3   OH266183   5.632   0.270   3.168  0.1555  0.2809  0.6596
14923TIP3    H166184   5.548   0.259   3.123 -0.3164  1.4029  1.2213
14923TIP3    H266185   5.696   0.282   3.098 -0.6253  2.4571  0.2388
14924TIP3   OH266186   2.025   6.331  15.886  0.1914 -0.6148  0.1138
14924TIP3    H166187   2.032   6.385  15.964 -1.3824 -0.6125  0.2895
14924TIP3    H266188   2.043   6.391  15.814 -0.6019 -0.0705  0.3590
14925TIP3   OH266189   1.731   5.485  12.492 -1.0526  0.1466  0.6122
14925TIP3    H166190   1.648   5.450  12.461 -1.3794  1.6307 -0.3076
14925TIP3    H266191   1.723   5.580  12.482  0.9668  0.3056 -0.0815
14926TIP3   OH266192   0.854   3.885   1.262  0.2647 -0.4169 -0.0090
14926TIP3    H166193   0.870   3.812   1.323  1.3570  0.6722  1.0667
14926TIP3    H266194   0.917   3.871   1.191 -0.1758 -1.0298 -0.2818
14927TIP3   OH266195   5.638   0.105   3.757  0.2775  0.8784  0.2154
14927TIP3    H166196   5.647   0.019   3.717 -1.1835  0.8942 -0.2048
14927TIP3    H266197   5.726   0.127   3.788  1.1228  0.1734 -1.5751
14928TIP3   OH266198   4.830   1.061  11.192 -0.1114  0.2036  0.3074
14928TIP3    H166199   4.778   0.993  11.151 -1.5789  1.4365  0.0365
14928TIP3    H266200   4.894   1.087  11.125  2.0829 -2.4490  1.1882
14929TIP3   OH266201   1.159   1.478  16.947  0.1211 -0.2303  0.4360
14929TIP3    H166202   1.102   1.555  16.957 -1.0322 -1.0170  0.1608
14929TIP3    H266203   1.100   1.403  16.960  1.1955 -1.0774  0.5871
14930TIP3   OH266204   0.189   3.917   0.796  0.1849 -0.3409  0.2793
14930TIP3    H166205   0.232   3.872   0.723  1.1375  1.3280 -0.2413
14930TIP3    H266206   0.222   4.007   0.791 -3.1927  1.0270 -0.0204
14931TIP3   OH266207   1.067   1.245  15.037  0.0462 -0.4583  0.2392
14931TIP3    H166208   1.129   1.232  14.966 -0.7894  0.2506 -0.6619
14931TIP3    H266209   1.053   1.158  15.074  0.1140 -0.9218 -0.8037
14932TIP3   OH266210   5.176   1.269  11.155  0.5336 -0.4026 -0.0732
14932TIP3    H166211   5.227   1.193  11.183  0.6906 -0.4276 -0.4268
14932TIP3    H266212   5.125   1.238  11.080 -0.1894 -0.4460  0.4222
14933TIP3   OH266213   2.560   3.549  13.949  0.1396 -0.0988 -0.3457
14933TIP3    H166214   2.643   3.559  13.996 -1.4340  1.4282  2.4109
14933TIP3    H266215   2.535   3.458  13.965  0.2138  0.0686  0.8383
14934TIP3   OH266216   4.653   5.399  15.751 -0.2205 -0.3843 -0.3754
14934TIP3    H166217   4.592   5.345  15.700  1.0444 -0.7496 -1.5611
14934TIP3    H266218   4.600   5.433  15.822 -1.9382 -0.3163 -1.6107
14935TIP3   OH266219   6.677   0.252  10.887  0.2112 -0.2580  0.2396
14935TIP3    H166220   6.694   0.169  10.843 -0.3652 -0.1690 -0.1698
14935TIP3    H266221   6.708   0.319  10.825 -1.6969 -0.0874 -0.6060
14936TIP3   OH266222   0.481   4.799  14.312 -0.5790  0.1371  0.2661
14936TIP3    H166223   0.562   4.831  14.349  1.3245 -0.8663 -2.6389
14936TIP3    H266224   0.417   4.869  14.327  1.0573  1.3666  1.7949
14937TIP3   OH266225   0.432   6.088  17.031 -0.5926 -0.3992  0.0026
14937TIP3    H166226   0.394   6.001  17.043 -0.8029 -0.2027  0.8335
14937TIP3    H266227   0.445   6.121  17.120 -0.6574  0.4778 -0.3008
14938TIP3   OH266228   4.589   5.869  12.104 -0.3917  0.4590  0.0943
14938TIP3    H166229   4.634   5.790  12.133  0.5708  1.5905  1.8977
14938TIP3    H266230   4.601   5.931  12.176  0.4360  2.8560 -1.9543
14939TIP3   OH266231   1.285   3.856   0.812 -0.1717 -0.0197  1.1663
14939TIP3    H166232   1.353   3.834   0.748 -1.4116 -0.1123 -0.1797
14939TIP3    H266233   1.330   3.906   0.879  0.7107  2.5722 -1.1945
14940TIP3   OH266234   2.189   1.689   1.525 -0.3044 -0.6999 -0.0375
14940TIP3    H166235   2.164   1.714   1.614  0.6739 -1.7951  0.5594
14940TIP3    H266236   2.264   1.631   1.535  0.3339 -0.2233 -1.6239
14941TIP3   OH266237   2.871   4.756   4.432 -0.1416 -0.3687  0.1127
14941TIP3    H166238   2.892   4.675   4.479  1.6917  0.8504  1.5626
14941TIP3    H266239   2.952   4.780   4.388 -0.2584  1.2596  0.6911
14942TIP3   OH266240   1.049   0.644   0.311  0.1528  0.0081  0.3892
14942TIP3    H166241   1.004   0.688   0.239  0.0965  0.7876  0.8900
14942TIP3    H266242   1.091   0.715   0.361  0.9996 -0.6010  0.5761
14943TIP3   OH266243   5.997   5.623  14.231  0.1238  0.5944 -0.3256
14943TIP3    H166244   5.933   5.553  14.232  0.7376 -0.0642 -2.4597
14943TIP3    H266245   5.956   5.692  14.179  0.8306  0.4523 -1.0935
14944TIP3   OH266246   5.681   1.569  14.257  0.4434  0.7596  0.1229
14944TIP3    H166247   5.628   1.633  14.305  2.0215  0.9304  1.7208
14944TIP3    H266248   5.652   1.484  14.290  0.1440  0.7670 -0.1118
14945TIP3   OH266249   2.724   4.996   1.036  0.2352  0.8480  0.0509
14945TIP3    H166250   2.647   5.046   1.011  0.9467  1.3435 -1.2259
14945TIP3    H266251   2.784   5.062   1.072  0.1285  0.4876  0.9151
14946TIP3   OH266252   3.979   1.428   0.948  0.1325  0.2166  0.2141
14946TIP3    H166253   4.030   1.506   0.969  0.2866  0.3836 -0.7199
14946TIP3    H266254   3.906   1.430   1.009 -0.7615  2.0027 -0.8352
14947TIP3   OH266255   6.141   4.372  11.558 -0.3320 -0.1350  0.3973
14947TIP3    H166256   6.106   4.291  11.596  1.1211 -0.9665  0.0714
14947TIP3    H266257   6.098   4.379  11.473 -0.6935 -0.3908  0.5551
14948TIP3   OH266258   5.051   6.598  11.951 -0.0811 -0.2554 -1.0147
14948TIP3    H166259   5.046   6.535  11.879 -2.2821  0.5032 -1.5759
14948TIP3    H266260   5.072   6.681  11.909 -2.0575  0.3344 -0.9352
14949TIP3   OH266261   1.945   5.037  15.765  0.3248 -0.1596  0.1577
14949TIP3    H166262   1.930   5.123  15.726  1.8096  0.3880  0.7257
14949TIP3    H266263   1.948   4.977  15.690 -1.6151  0.1022 -0.1759
14950TIP3   OH266264   3.391   3.013  13.750  0.3932 -0.6264  0.3489
14950TIP3    H166265   3.371   2.919  13.750  0.7734 -0.7263 -0.7951
14950TIP3    H266266   3.375   3.041  13.659  0.8344  0.2894  0.5413
14951TIP3   OH266267   2.376   1.386   0.222 -0.5294  0.3360  0.2320
14951TIP3    H166268   2.388   1.395   0.316 -1.0402  1.9077  0.1711
14951TIP3    H266269   2.452   1.429   0.183 -0.8059  0.5602 -0.0711
14952TIP3   OH266270   5.899   2.711  12.091  0.1383 -0.3999  0.1995
14952TIP3    H166271   5.821   2.668  12.125  0.5456  0.9071  3.0763
14952TIP3    H266272   5.969   2.647  12.103  0.1855 -0.1332  1.4975
14953TIP3   OH266273   4.667   2.241  13.418 -0.2823 -0.3179 -0.1302
14953TIP3    H166274   4.700   2.252  13.329 -0.7508 -0.7348 -0.3592
14953TIP3    H266275   4.611   2.318  13.433  1.8586  1.1814  0.7852
14954TIP3   OH266276   3.522   0.563   3.698 -0.4951  0.1555  0.3622
14954TIP3    H166277   3.474   0.629   3.648 -0.0993 -0.0361 -0.2929
14954TIP3    H266278   3.471   0.483   3.687  1.4741 -0.8702 -3.0236
14955TIP3   OH266279   2.496   0.056   2.674  0.6901  0.4515  0.1848
14955TIP3    H166280   2.439   0.027   2.746 -1.5440  0.4784 -1.4498
14955TIP3    H266281   2.559  -0.015   2.663  0.2848 -0.1151  1.3660
14956TIP3   OH266282   5.546   0.990   0.170 -0.1430  0.1068 -1.1183
14956TIP3    H166283   5.554   0.929   0.097 -1.1612 -0.0791 -1.0787
14956TIP3    H266284   5.514   0.937   0.243 -0.5857  0.5866 -0.9561
14957TIP3   OH266285   4.354   3.639   3.240 -0.1250  0.7710 -0.5502
14957TIP3    H166286   4.367   3.734   3.250 -1.6914  1.0097 -0.5470
14957TIP3    H266287   4.268   3.631   3.199  0.1267 -0.6573 -0.8443
14958TIP3   OH266288   2.676   4.621   3.078 -0.2225  0.5618 -0.2269
14958TIP3    H166289   2.765   4.614   3.114 -0.4453 -1.1081  0.0554
14958TIP3    H266290   2.662   4.716   3.068  1.1414  0.9031  0.8165
14959TIP3   OH266291   1.411   5.611   0.458  0.1587 -0.0666  0.2450
14959TIP3    H166292   1.365   5.542   0.506  0.3642 -0.4788 -0.1332
14959TIP3    H266293   1.352   5.634   0.386 -0.2035  0.6385  0.7576
14960TIP3   OH266294   1.875   5.967   2.415 -0.2265  0.5170 -0.1465
14960TIP3    H166295   1.824   6.040   2.451  0.5611  1.0764 -0.1344
14960TIP3    H266296   1.895   5.912   2.491 -2.9195 -1.1077 -0.4703
14961TIP3   OH266297   3.461   5.080  17.001 -0.4926 -0.4529  0.3584
14961TIP3    H166298   3.486   4.998  17.045  0.2843 -0.1181  0.5626
14961TIP3    H266299   3.377   5.104  17.041 -0.8163 -1.2442  0.1613
14962TIP3   OH266300   0.344   4.205  12.698  0.7146 -0.5905  1.3633
14962TIP3    H166301   0.305   4.273  12.753 -2.9980 -0.1957 -1.3211
14962TIP3    H266302   0.308   4.123  12.733 -1.2364 -0.3760  0.0767
14963TIP3   OH266303   2.966   0.194   0.152  1.3439 -0.1276  0.3027
14963TIP3    H166304   2.906   0.202   0.077  1.7852  0.2497 -0.0127
14963TIP3    H266305   3.021   0.118   0.130  1.4983  0.0066  0.2273
14964TIP3   OH266306   4.776   2.288  15.433 -0.2496  0.0144 -0.1222
14964TIP3    H166307   4.780   2.223  15.504 -0.4744  0.2786  0.1331
14964TIP3    H266308   4.685   2.317  15.432 -0.6427 -1.1109 -1.5466
14965TIP3   OH266309   2.251   0.534   5.188  0.2624 -0.0814 -0.1089
14965TIP3    H166310   2.221   0.624   5.173 -1.4670 -0.2757  1.7593
14965TIP3    H266311   2.236   0.490   5.104 -3.1780  0.3227  0.1362
14966TIP3   OH266312   5.476   4.473  11.429 -0.3313 -0.2062 -0.7461
14966TIP3    H166313   5.444   4.385  11.411  3.2081 -1.6222 -0.9045
14966TIP3    H266314   5.568   4.471  11.402 -0.1544  3.6450 -0.9754
14967TIP3   OH266315   3.746   5.532  14.285  0.2266 -0.3548 -0.5303
14967TIP3    H166316   3.792   5.519  14.202  0.4972  2.2902 -0.9078
14967TIP3    H266317   3.703   5.449  14.302  3.6258 -2.4181 -1.0841
14968TIP3   OH266318   3.259   3.866   1.863  0.5052  0.0608 -0.0030
14968TIP3    H166319   3.270   3.781   1.906  0.2771  0.2654  0.4550
14968TIP3    H266320   3.172   3.896   1.890  0.8819  0.7785  0.4299
14969TIP3   OH266321   0.833   2.669  15.193  0.4314  0.7181  0.2235
14969TIP3    H166322   0.927   2.648  15.189  0.2644  0.0264 -0.1912
14969TIP3    H266323   0.804   2.636  15.278  0.3218 -0.0985 -0.1292
14970TIP3   OH266324   2.114   1.161  10.943  0.1477 -0.1940  0.2518
14970TIP3    H166325   2.169   1.157  11.020  0.6938 -0.1490 -0.1306
14970TIP3    H266326   2.083   1.071  10.930  0.0197 -0.1913  0.5485
14971TIP3   OH266327   2.158   0.483  16.591 -0.1504 -0.1878 -0.0934
14971TIP3    H166328   2.213   0.425  16.644 -0.2591 -1.5684 -1.4148
14971TIP3    H266329   2.072   0.478  16.632  0.3053  0.7828  1.0735
14972TIP3   OH266330   0.102   2.676   2.752  0.1698  0.5283  0.6437
14972TIP3    H166331   0.049   2.648   2.677  2.2095 -0.4627 -0.5166
14972TIP3    H266332   0.077   2.618   2.823 -0.7768  0.5401  0.3344
14973TIP3   OH266333   5.038   3.111  16.935 -0.0573 -0.3734 -0.2422
14973TIP3    H166334   5.084   3.147  17.011 -0.0690 -0.5149 -0.1678
14973TIP3    H266335   5.094   3.133  16.861 -1.2213  1.9906 -0.5216
14974TIP3   OH266336   1.052   4.220   4.655 -0.0755  0.1544  0.2797
14974TIP3    H166337   0.984   4.222   4.722 -0.5341  2.5142 -0.1666
14974TIP3    H266338   1.058   4.310   4.623  1.2393 -0.5607 -1.7500
14975TIP3   OH266339   3.679   3.732   2.371 -0.1912 -0.5446 -0.1810
14975TIP3    H166340   3.715   3.819   2.388  0.0611 -0.7155  0.1630
14975TIP3    H266341   3.587   3.738   2.397  0.4813 -1.1732  2.5934
14976TIP3   OH266342   6.729   0.678   2.717  0.1376  0.0315 -0.6105
14976TIP3    H166343   6.786   0.744   2.679  1.2344 -0.3247  0.3722
14976TIP3    H266344   6.748   0.599   2.666 -0.5309  0.2452 -1.2076
14977TIP3   OH266345   2.684   5.219   4.583 -0.4448 -0.0084 -0.7265
14977TIP3    H166346   2.674   5.139   4.635 -1.2118 -0.1692 -1.1079
14977TIP3    H266347   2.595   5.243   4.558 -0.1490  0.4639 -1.3619
14978TIP3   OH266348   1.828   0.232   0.308 -1.0231 -0.4216 -0.7593
14978TIP3    H166349   1.814   0.293   0.381 -2.1146 -0.6716 -0.7404
14978TIP3    H266350   1.885   0.280   0.248  1.9149 -1.1034  1.3074
14979TIP3   OH266351   2.799   6.111   1.795  0.0320 -0.1458  0.0043
14979TIP3    H166352   2.835   6.023   1.786  1.3235  0.3254  0.4376
14979TIP3    H266353   2.726   6.100   1.856 -0.7562 -1.1487 -1.0640
14980TIP3   OH266354   5.475   0.849   1.727  0.4983 -0.0798 -0.5257
14980TIP3    H166355   5.460   0.941   1.748  1.2956  0.4060 -1.9140
14980TIP3    H266356   5.507   0.811   1.809 -1.8203  0.3374  0.6596
14981TIP3   OH266357   5.022   3.100   3.520 -0.3250 -0.2801  0.3490
14981TIP3    H166358   5.031   3.092   3.425 -0.3036 -1.3196  0.4302
14981TIP3    H266359   4.931   3.077   3.538 -0.0645 -1.0997  0.6726
14982TIP3   OH266360   5.969   4.754  16.440  0.5124  0.2515 -0.1666
14982TIP3    H166361   5.951   4.670  16.398  0.0383  0.4259 -0.3107
14982TIP3    H266362   6.045   4.737  16.496  0.2819 -0.3264 -0.0260
14983TIP3   OH266363   1.216   6.278   6.024 -0.0261 -0.2375  0.2853
14983TIP3    H166364   1.280   6.349   6.032 -2.6012  2.1043  1.5508
14983TIP3    H266365   1.187   6.261   6.113 -1.8056 -0.6045 -0.3332
14984TIP3   OH266366   0.496   0.218  14.629  0.5062  0.4037  0.1589
14984TIP3    H166367   0.428   0.163  14.591  2.0868  0.6083 -3.4085
14984TIP3    H266368   0.461   0.307  14.624 -0.5197  0.1593  2.2691
14985TIP3   OH266369   1.662   6.719   5.731 -0.4006  0.2542 -0.2839
14985TIP3    H166370   1.629   6.650   5.674 -1.3965  0.7571 -0.3400
14985TIP3    H266371   1.637   6.692   5.819 -3.9036  2.0751 -0.5195
14986TIP3   OH266372   1.304   4.432   0.919  0.1017  0.1680 -0.3236
14986TIP3    H166373   1.293   4.376   0.996  1.7687  0.7747  0.4160
14986TIP3    H266374   1.330   4.373   0.849 -0.3008 -0.2473 -0.1279
14987TIP3   OH266375   5.930   4.405   0.424 -0.4209 -0.0073 -0.5047
14987TIP3    H166376   5.863   4.338   0.412 -0.8999 -0.1895  2.4329
14987TIP3    H266377   6.003   4.359   0.467  1.7271  0.1811 -3.6238
14988TIP3   OH266378   2.634   3.626   3.512 -0.4626  0.4224  0.0672
14988TIP3    H166379   2.666   3.708   3.550  1.3809 -1.2750  2.4711
14988TIP3    H266380   2.695   3.606   3.441  2.8686 -1.6493  3.1952
14989TIP3   OH266381   2.569   4.743  14.055  0.0635 -0.0727 -0.3878
14989TIP3    H166382   2.604   4.807  13.993  0.3679 -0.0735 -0.2151
14989TIP3    H266383   2.567   4.660  14.006  0.5669 -0.1320 -0.3075
14990TIP3   OH266384   0.127   3.862  12.243  0.2419  0.0379 -0.1344
14990TIP3    H166385   0.178   3.906  12.310  0.4158 -2.5679  1.5591
14990TIP3    H266386   0.190   3.810  12.193  0.0690  1.6660 -2.1893
14991TIP3   OH266387   2.179   4.776  16.042 -0.0058 -0.3701 -0.0456
14991TIP3    H166388   2.161   4.813  15.956 -0.5363 -1.6092 -0.4898
14991TIP3    H266389   2.095   4.738  16.070  0.2409 -0.2757  0.8739
14992TIP3   OH266390   2.732   6.076  14.356 -0.1251  0.2430 -0.1572
14992TIP3    H166391   2.743   6.101  14.448 -1.1344  0.1910 -0.0067
14992TIP3    H266392   2.816   6.039  14.330 -0.5515 -1.9932  1.4489
14993TIP3   OH266393   1.400   0.527   1.173  0.4813  0.0274  0.3468
14993TIP3    H166394   1.333   0.586   1.138 -1.6370 -0.2219  3.5432
14993TIP3    H266395   1.483   0.570   1.152 -0.7032  1.3953 -1.9936
14994TIP3   OH266396   4.466   2.158   2.855 -0.0098 -0.0044  0.3114
14994TIP3    H166397   4.526   2.108   2.909  0.7276  1.6183  1.0382
14994TIP3    H266398   4.453   2.103   2.777  2.3073 -0.4656  0.1791
14995TIP3   OH266399   4.181   5.002  12.704  0.3777 -0.7908 -0.2856
14995TIP3    H166400   4.186   5.097  12.715 -1.3614 -0.7079  0.2803
14995TIP3    H266401   4.134   4.989  12.622 -2.7027 -0.9769  1.3104
14996TIP3   OH266402   3.144   5.149   3.861 -0.3105 -0.5528 -0.1435
14996TIP3    H166403   3.207   5.123   3.928  0.9665 -1.8357 -1.7636
14996TIP3    H266404   3.060   5.151   3.907  0.5639 -1.0743  1.5593
14997TIP3   OH266405   6.733   3.138  10.937 -0.4561 -0.6926  0.3512
14997TIP3    H166406   6.816   3.182  10.951 -1.2550  1.5041 -1.2263
14997TIP3    H266407   6.736   3.109  10.846 -1.6965  0.1458  0.0183
14998TIP3   OH266408   6.614   5.213   4.118 -0.3201 -0.2172 -0.1391
14998TIP3    H166409   6.543   5.200   4.055 -1.0571  1.4167  0.2916
14998TIP3    H266410   6.644   5.302   4.102  0.0593 -0.0746  1.2181
14999TIP3   OH266411   4.362   5.149   5.684  0.1181  0.0008 -0.2419
14999TIP3    H166412   4.404   5.063   5.696 -2.1457 -1.2946 -0.9867
14999TIP3    H266413   4.400   5.183   5.603  2.4316  0.6652  1.0155
15000TIP3   OH266414   1.558   0.949  16.741 -0.1249 -0.2762 -0.2965
15000TIP3    H166415   1.565   0.981  16.831  0.6897 -2.6574  0.5525
15000TIP3    H266416   1.647   0.954  16.707 -0.8273  3.4958 -2.1812
15001TIP3   OH266417   3.004   0.135  11.365 -0.0191  0.1190  0.2065
15001TIP3    H166418   2.966   0.064  11.312  1.7151 -0.1770 -0.7231
15001TIP3    H266419   2.929   0.183  11.398 -1.2085 -0.7321 -1.1341
15002TIP3   OH266420   4.467   6.719  15.244 -0.5053 -0.5004  1.0886
15002TIP3    H166421   4.523   6.796  15.252  2.7507 -2.4844 -0.1332
15002TIP3    H266422   4.497   6.661  15.314  0.0766 -2.1956 -0.4860
15003TIP3   OH266423   5.104   1.556  14.741  0.4598  0.0519 -0.3867
15003TIP3    H166424   5.113   1.631  14.682 -1.7371  1.3217  0.7352
15003TIP3    H266425   5.117   1.593  14.828 -3.4975 -0.1142  0.4420
15004TIP3   OH266426   6.763   1.378  11.016  0.2318 -0.2415 -0.1309
15004TIP3    H166427   6.697   1.367  10.948  0.7053  0.5132 -0.7343
15004TIP3    H266428   6.724   1.437  11.080  0.2525  0.0577 -0.3941
15005TIP3   OH266429   0.553   4.871   2.405  0.5844  0.0861  0.4746
15005TIP3    H166430   0.457   4.869   2.406  0.4986  1.1042 -1.6084
15005TIP3    H266431   0.579   4.783   2.433 -0.8724  0.2718  2.7132
15006TIP3   OH266432   3.137   4.212  16.839 -0.1218  0.2257 -0.1409
15006TIP3    H166433   3.084   4.177  16.911 -0.3653 -0.1290 -0.4858
15006TIP3    H266434   3.214   4.250  16.881 -1.1607  1.7520  0.4665
15007TIP3   OH266435   3.224   4.462   2.333 -0.5086  0.0911 -0.5615
15007TIP3    H166436   3.212   4.528   2.265  1.0437 -0.0788 -1.0319
15007TIP3    H266437   3.237   4.380   2.285  2.7799  0.3057 -0.2130
15008TIP3   OH266438   1.510   3.852  12.653 -1.0217  0.2361  0.2816
15008TIP3    H166439   1.488   3.876  12.563  0.7010 -0.5193 -0.3719
15008TIP3    H266440   1.484   3.760  12.661 -0.0833 -0.0494  0.1594
15009TIP3   OH266441   6.494   0.493   0.079 -0.2620 -0.1143 -0.4646
15009TIP3    H166442   6.529   0.485   0.168 -0.2805  0.2790 -0.4225
15009TIP3    H266443   6.518   0.581   0.051 -2.2476  0.6283 -0.0012
15010TIP3   OH266444   6.525   0.282   0.849 -0.5669 -0.1330  0.0162
15010TIP3    H166445   6.557   0.199   0.816  0.8928  0.3412  0.1677
15010TIP3    H266446   6.563   0.289   0.937 -0.9546  0.5348  0.1372
15011TIP3   OH266447   5.292   5.685   4.050  0.0042  0.0804  0.1085
15011TIP3    H166448   5.288   5.726   4.136 -1.2568 -1.5318  0.8690
15011TIP3    H266449   5.385   5.664   4.037  0.1587  0.0260  1.2346
15012TIP3   OH266450   4.207   1.130  15.522  0.4352  0.0139  0.6780
15012TIP3    H166451   4.187   1.064  15.589  0.8268 -0.8392 -0.0243
15012TIP3    H266452   4.129   1.132  15.466  1.5149 -2.0601 -1.0480
15013TIP3   OH266453   1.705   2.599   5.954 -0.2894 -0.3794 -0.3508
15013TIP3    H166454   1.656   2.536   6.008  1.5963 -0.4066  1.4641
15013TIP3    H266455   1.741   2.661   6.017  0.4781  0.6946 -1.8026
15014TIP3   OH266456   4.231   4.886   5.910 -0.5567 -0.6560  0.2170
15014TIP3    H166457   4.315   4.929   5.900 -0.2380 -1.6614 -2.4036
15014TIP3    H266458   4.253   4.796   5.937 -0.8211 -0.7804  0.0215
15015TIP3   OH266459   3.920   6.364   5.240  0.3701 -0.5770  0.1732
15015TIP3    H166460   3.825   6.376   5.238  0.3910  0.2861  2.1623
15015TIP3    H266461   3.932   6.275   5.273  0.2253 -0.4156  0.6826
15016TIP3   OH266462   5.045   6.196   1.217  0.1470  0.0564 -0.2344
15016TIP3    H166463   4.955   6.225   1.234 -0.1063 -1.1146  0.5031
15016TIP3    H266464   5.067   6.236   1.133 -0.5159  1.5721  0.2723
15017TIP3   OH266465   2.627   2.164  12.038 -0.1109 -0.3488 -0.2632
15017TIP3    H166466   2.574   2.173  11.958 -2.2606  0.6298  1.1976
15017TIP3    H266467   2.659   2.074  12.034 -0.2915 -0.3872 -2.1458
15018TIP3   OH266468   4.108   4.492   0.202 -0.0552 -0.0156  0.1742
15018TIP3    H166469   4.130   4.421   0.141 -0.9328 -0.8457  0.7860
15018TIP3    H266470   4.191   4.537   0.217  0.4698 -0.7422 -0.4440
15019TIP3   OH266471   6.735   1.880  14.987  0.2054 -0.1706  0.3889
15019TIP3    H166472   6.652   1.887  15.034  0.9596 -1.0847  1.9055
15019TIP3    H266473   6.789   1.951  15.022  0.6433 -0.6207  0.6361
15020TIP3   OH266474   6.707   2.425  15.193 -0.5973 -0.4186 -0.7308
15020TIP3    H166475   6.692   2.372  15.115 -0.4912 -2.2507  0.4230
15020TIP3    H266476   6.762   2.369  15.249 -1.7371  0.3021  1.1922
15021TIP3   OH266477   5.062   3.939   2.491  0.0896 -0.2506  0.0378
15021TIP3    H166478   5.108   3.936   2.407  0.2639  1.2827  0.0586
15021TIP3    H266479   5.038   3.848   2.508 -2.0239 -0.3518 -2.8005
15022TIP3   OH266480   3.941   5.284   0.084 -0.3976  0.1134  0.0573
15022TIP3    H166481   4.035   5.286   0.104 -0.2618 -0.8111 -0.4353
15022TIP3    H266482   3.920   5.375   0.062  0.4503  0.2824 -0.1102
15023TIP3   OH266483   6.780   1.988  12.254 -0.5148  0.2686 -0.1550
15023TIP3    H166484   6.851   1.975  12.317 -0.8270  0.2684  0.1987
15023TIP3    H266485   6.701   1.990  12.307 -0.9188 -1.0464 -0.6761
15024TIP3   OH266486   6.008   1.072   4.234 -1.1037  0.3211  0.4474
15024TIP3    H166487   5.998   1.135   4.305 -0.5459  1.3504 -0.3740
15024TIP3    H266488   6.095   1.035   4.246 -0.2569  1.8474 -0.7494
15025TIP3   OH266489   4.665   0.956   4.975  0.3933  0.4886 -0.2623
15025TIP3    H166490   4.575   0.927   4.958  0.5311 -1.1662  1.4350
15025TIP3    H266491   4.655   1.031   5.035  0.1350  0.5906 -0.4316
15026TIP3   OH266492   1.929   5.400  15.357  0.3726  0.2866  0.1743
15026TIP3    H166493   1.870   5.467  15.392 -0.6719  0.4686 -1.8194
15026TIP3    H266494   1.900   5.318  15.399  0.2895  0.7312  1.0123
15027TIP3   OH266495   2.903   1.996   1.655 -0.3516  0.2326 -0.1493
15027TIP3    H166496   2.964   1.941   1.605 -1.1047  1.0555 -2.0402
15027TIP3    H266497   2.913   1.965   1.745  0.9333 -1.4293 -0.7954
15028TIP3   OH266498   6.462   5.066  14.982 -0.6859 -0.1822  0.3101
15028TIP3    H166499   6.381   5.070  15.034 -0.3092  0.3793  0.8673
15028TIP3    H266500   6.482   5.158  14.962 -1.2613 -0.4166 -1.5396
15029TIP3   OH266501   1.038   5.066   5.908  0.3560  0.3355  0.1702
15029TIP3    H166502   1.007   5.079   5.998  0.7478  0.7750  0.2467
15029TIP3    H266503   1.130   5.091   5.911  0.7601 -1.0843 -0.0316
15030TIP3   OH266504   0.539   0.221  15.745 -0.0459  0.0314 -0.8458
15030TIP3    H166505   0.597   0.227  15.820 -1.4118  0.2084  0.2274
15030TIP3    H266506   0.564   0.296  15.690  0.5798  0.2341 -0.2985
15031TIP3   OH266507   5.767   2.723   2.767 -0.4581  0.2195 -0.2668
15031TIP3    H166508   5.744   2.744   2.858  0.0390 -0.4726  0.0203
15031TIP3    H266509   5.685   2.690   2.729 -0.0518 -2.1409  0.7300
15032TIP3   OH266510   3.316   3.457  15.919 -0.3784 -0.2289 -0.5485
15032TIP3    H166511   3.221   3.468  15.910 -0.3691  2.3744  1.4348
15032TIP3    H266512   3.354   3.512  15.850 -0.2836 -0.3140 -0.5655
15033TIP3   OH266513   5.242   0.809  14.235 -0.0386 -0.4848  0.2784
15033TIP3    H166514   5.270   0.767  14.154 -1.1844 -0.0616 -0.3599
15033TIP3    H266515   5.152   0.779  14.248  0.5594 -1.6401  2.1573
15034TIP3   OH266516   2.532   1.157   5.198 -0.1110  0.3589  0.1787
15034TIP3    H166517   2.458   1.097   5.213 -0.0224  0.4519  1.0541
15034TIP3    H266518   2.535   1.169   5.103  0.1818 -1.4204 -0.0651
15035TIP3   OH266519   2.342   0.081   2.147  0.2126  0.1108  0.4598
15035TIP3    H166520   2.403   0.151   2.170  0.6196  0.0914 -0.4973
15035TIP3    H266521   2.301   0.112   2.066  2.2265 -1.7879 -1.4375
15036TIP3   OH266522   2.746   4.954  11.450 -0.2150 -0.4404 -0.1774
15036TIP3    H166523   2.673   4.901  11.482  0.8980 -1.9361  0.0013
15036TIP3    H266524   2.737   4.953  11.355 -0.2339 -0.9165 -0.1722
15037TIP3   OH266525   5.471   0.756   0.354  0.3233  0.9507  0.2443
15037TIP3    H166526   5.564   0.733   0.351 -0.2137 -1.5066  0.4159
15037TIP3    H266527   5.425   0.672   0.348 -1.8949  2.0752  0.4427
15038TIP3   OH266528   3.509   0.839   3.532  0.1051 -0.2749  0.0230
15038TIP3    H166529   3.588   0.853   3.584 -0.2362  0.5228  0.3417
15038TIP3    H266530   3.533   0.862   3.443  0.1819  0.1421  0.1517
15039TIP3   OH266531   6.550   6.551   1.269 -0.0746 -0.1326  0.0304
15039TIP3    H166532   6.633   6.521   1.305 -0.4455 -2.0462 -0.5794
15039TIP3    H266533   6.567   6.564   1.175 -0.0701  1.0926  0.1852
15040TIP3   OH266534   5.218   2.890   3.690 -0.0535 -0.2725  0.0753
15040TIP3    H166535   5.220   2.983   3.712 -1.0986 -0.7820  2.7270
15040TIP3    H266536   5.125   2.869   3.682  0.0447 -1.4727  1.6062
15041TIP3   OH266537   2.580   5.422   4.336  0.1370 -0.6416 -0.0124
15041TIP3    H166538   2.524   5.411   4.260 -0.2150 -1.2217  0.3233
15041TIP3    H266539   2.522   5.455   4.405  0.7429  1.3632 -0.3861
15042TIP3   OH266540   1.292   3.330  10.998  0.1809  0.0156  0.2173
15042TIP3    H166541   1.203   3.302  11.018  0.8413 -1.2259  1.6765
15042TIP3    H266542   1.293   3.342  10.903 -1.2000 -1.2168  0.0024
15043TIP3   OH266543   6.344   1.471   1.700 -0.4343 -0.4687 -0.7067
15043TIP3    H166544   6.414   1.415   1.667 -0.3945  0.2308 -1.8463
15043TIP3    H266545   6.386   1.557   1.713 -0.4126 -0.7421  1.3357
15044TIP3   OH266546   5.250   5.866  16.563  0.6835  0.3671  0.0375
15044TIP3    H166547   5.273   5.781  16.600  3.3518  0.2510 -1.6691
15044TIP3    H266548   5.189   5.846  16.492  0.0608  0.0640  0.6430
15045TIP3   OH266549   5.998   3.566  13.618 -0.0542 -0.3365 -0.0251
15045TIP3    H166550   6.009   3.504  13.690  1.1878  2.0654  2.0122
15045TIP3    H266551   6.071   3.628  13.628 -0.7192  0.9850 -2.4463
15046TIP3   OH266552   5.561   5.494  13.784 -0.1368 -0.1497 -0.3343
15046TIP3    H166553   5.626   5.560  13.761 -0.9186 -0.1369 -2.8849
15046TIP3    H266554   5.611   5.423  13.824  1.0428  0.9520  0.2078
15047TIP3   OH266555   0.743   6.047  13.130  0.2821 -0.6059 -0.3064
15047TIP3    H166556   0.788   5.968  13.158 -0.4395 -0.9336 -0.0703
15047TIP3    H266557   0.812   6.100  13.088  0.8685 -1.1267 -0.0122
15048TIP3   OH266558   2.150   0.107   3.203 -0.1058  0.6562 -0.7071
15048TIP3    H166559   2.090   0.035   3.224  0.5594  0.4062  0.3744
15048TIP3    H266560   2.093   0.177   3.171 -0.7099 -0.6621 -2.7810
15049TIP3   OH266561   1.968   1.192   1.328 -0.7480  0.2444  0.5441
15049TIP3    H166562   2.020   1.151   1.259 -0.1738 -0.9146  1.6215
15049TIP3    H266563   1.991   1.144   1.407 -0.5111  2.2557  1.7853
15050TIP3   OH266564   2.073   3.624  12.708  0.0639  0.6131 -0.0580
15050TIP3    H166565   2.036   3.713  12.702 -1.2775  0.0773 -0.2399
15050TIP3    H266566   2.105   3.617  12.798  2.5889  2.1395 -0.7343
15051TIP3   OH266567   3.871   2.054  10.385  0.1402  0.2546  0.4838
15051TIP3    H166568   3.907   2.133  10.427  0.7011 -1.0738  2.6502
15051TIP3    H266569   3.776   2.071  10.380  0.2528  1.0690  0.8988
15052TIP3   OH266570   2.766   6.607   6.402 -0.2683  0.1986  0.6076
15052TIP3    H166571   2.809   6.555   6.334 -0.8466 -0.1218  0.4794
15052TIP3    H266572   2.821   6.596   6.479  1.0213  1.4762 -0.0786
15053TIP3   OH266573   0.176   4.280   2.858  0.1996 -0.0501 -0.1996
15053TIP3    H166574   0.266   4.263   2.888  0.3750  1.2163  0.0363
15053TIP3    H266575   0.186   4.304   2.766  0.2065  0.8215  0.0151
15054TIP3   OH266576   4.747   5.025  15.460  0.2199  0.0536 -0.1569
15054TIP3    H166577   4.813   5.053  15.397  0.6935  0.5512  0.5392
15054TIP3    H266578   4.781   4.944  15.497  0.9490  0.8018  0.8981
15055TIP3   OH266579   3.077   1.712   2.730  0.0803  0.0767  0.4089
15055TIP3    H166580   3.056   1.627   2.769  1.0361 -0.1573  0.4233
15055TIP3    H266581   3.066   1.775   2.801  2.1699 -0.3884  1.1873
15056TIP3   OH266582   4.204   1.813  13.073  0.1231  0.3152 -0.0343
15056TIP3    H166583   4.172   1.882  13.015 -0.1133 -0.0442 -0.3328
15056TIP3    H266584   4.220   1.738  13.015 -2.2070 -0.7856  0.6512
15057TIP3   OH266585   1.497   0.855   3.638  0.5165  0.3368 -0.0982
15057TIP3    H166586   1.546   0.922   3.686 -0.7112  0.3316  1.2110
15057TIP3    H266587   1.522   0.773   3.680  0.1770  0.2286 -0.1108
15058TIP3   OH266588   5.299   3.719  16.116  0.6329 -0.1681  0.7775
15058TIP3    H166589   5.383   3.765  16.116  0.4737  0.1313  0.8846
15058TIP3    H266590   5.307   3.655  16.186  0.3142  0.7409  1.6811
15059TIP3   OH266591   2.505   0.252   5.281  0.0997 -0.3037 -0.3499
15059TIP3    H166592   2.410   0.251   5.292  0.0261  2.7789  0.0923
15059TIP3    H266593   2.540   0.219   5.364 -0.6029  1.5873  0.7439
15060TIP3   OH266594   3.340   3.824   3.933  0.5299  0.1166 -0.0204
15060TIP3    H166595   3.406   3.760   3.960 -1.1159 -1.0486  1.4703
15060TIP3    H266596   3.301   3.854   4.015 -1.1843  0.3059 -0.8683
15061TIP3   OH266597   4.750   6.131  16.042 -0.0510 -0.1063 -0.2862
15061TIP3    H166598   4.746   6.056  15.983  0.4181 -0.1862 -0.2222
15061TIP3    H266599   4.843   6.153  16.047 -0.1263  0.1333  0.1277
15062TIP3   OH266600   1.851   0.801  13.193 -0.3653  0.5259  0.3898
15062TIP3    H166601   1.778   0.863  13.187 -0.2421  0.5584 -1.1613
15062TIP3    H266602   1.928   0.856  13.209 -0.4583  0.6414  0.4450
15063TIP3   OH266603   3.230   6.411   2.666  0.0961  0.3493 -0.1545
15063TIP3    H166604   3.148   6.416   2.617  0.5459 -2.1120 -1.2862
15063TIP3    H266605   3.204   6.420   2.758 -1.6890 -1.9327 -0.3522
15064TIP3   OH266606   3.339   6.593  17.096 -0.2548  0.0536  0.0310
15064TIP3    H166607   3.385   6.542  17.163  1.2496  0.4263 -0.6963
15064TIP3    H266608   3.403   6.608  17.028 -0.9007  2.1692 -0.1987
15065TIP3   OH266609   1.584   5.377   4.038 -0.4949  0.2320 -0.3815
15065TIP3    H166610   1.519   5.333   4.094  0.7200 -0.9164  0.1864
15065TIP3    H266611   1.570   5.341   3.951  0.6300 -1.5017  0.1225
15066TIP3   OH266612   2.282   0.121   0.900  0.3017 -0.5100  0.9155
15066TIP3    H166613   2.267   0.194   0.960 -0.8283 -0.0704  0.1379
15066TIP3    H266614   2.373   0.130   0.874  0.5256 -0.1206  1.7853
15067TIP3   OH266615   3.870   3.248   2.156  0.2649 -0.3063  0.6526
15067TIP3    H166616   3.957   3.209   2.157  0.0100 -0.8826  0.3249
15067TIP3    H266617   3.844   3.248   2.064 -0.0576 -0.0707  0.7413
15068TIP3   OH266618   2.223   6.401  14.613  0.1215  0.2545  0.0777
15068TIP3    H166619   2.267   6.324  14.649 -1.2525  0.0143  1.3376
15068TIP3    H266620   2.233   6.393  14.518  0.5494 -1.1283  0.2181
15069TIP3   OH266621   1.267   1.335  15.887 -0.0574  0.0235  0.5046
15069TIP3    H166622   1.335   1.392  15.922 -1.4583  0.8305  2.0902
15069TIP3    H266623   1.243   1.278  15.960  0.2653 -1.6353 -0.6140
15070TIP3   OH266624   5.824   0.506   5.321 -0.1277 -0.0487 -0.0947
15070TIP3    H166625   5.750   0.510   5.261  0.6633 -0.2024 -1.1068
15070TIP3    H266626   5.897   0.546   5.273  0.5370 -0.2166  0.7380
15071TIP3   OH266627   6.566   4.270  10.930  0.1009 -0.1019 -0.5915
15071TIP3    H166628   6.631   4.243  10.865  0.5296  0.3425 -0.3528
15071TIP3    H266629   6.540   4.358  10.902 -1.3765 -0.7700 -1.4350
15072TIP3   OH266630   6.670   1.184   2.552  0.3425 -0.1832 -0.8736
15072TIP3    H166631   6.707   1.213   2.635  0.0077 -1.8133 -0.1080
15072TIP3    H266632   6.673   1.261   2.496  0.5998  0.9486  0.6347
15073TIP3   OH266633   0.091   5.881   4.228 -0.5737 -0.2684 -0.0858
15073TIP3    H166634   0.088   5.974   4.205 -1.6355 -0.1006  0.6458
15073TIP3    H266635   0.053   5.837   4.152  1.3741 -0.2893 -1.1201
15074TIP3   OH266636   2.422   3.088   2.902  0.5491 -0.1124  0.2815
15074TIP3    H166637   2.398   3.176   2.874 -2.6590 -0.7173  0.6876
15074TIP3    H266638   2.453   3.045   2.823 -2.8198 -0.0753 -1.2205
15075TIP3   OH266639   1.454   5.879   4.933  0.1252 -0.2825 -0.2111
15075TIP3    H166640   1.495   5.798   4.963  1.3874  1.6483  4.0177
15075TIP3    H266641   1.435   5.927   5.013 -3.5209  2.3399 -2.3468
15076TIP3   OH266642   6.785   5.642   4.055  0.6341  0.2832  0.1046
15076TIP3    H166643   6.783   5.705   3.983  1.3665  0.1157 -0.0697
15076TIP3    H266644   6.697   5.604   4.055  1.5591 -2.2780 -3.0299
15077TIP3   OH266645   0.519   1.480  10.740  0.7218  0.3533  0.0764
15077TIP3    H166646   0.539   1.468  10.647  0.7622  1.5900 -0.0864
15077TIP3    H266647   0.600   1.514  10.777  0.4014  0.8159  0.3606
15078TIP3   OH266648   6.075   4.333   5.700  0.0842  0.1621 -0.2415
15078TIP3    H166649   6.169   4.314   5.705  0.0918  0.4102  0.6469
15078TIP3    H266650   6.032   4.250   5.722  0.1074  0.3709  0.6248
15079TIP3   OH266651   2.919   5.080   2.715 -0.5984  0.1119 -0.0638
15079TIP3    H166652   2.930   5.063   2.622  0.8456  0.2796  0.0623
15079TIP3    H266653   2.921   5.175   2.723  0.7402  0.0665  0.2907
15080TIP3   OH266654   4.483   3.869  14.721  0.0732  0.0908 -0.1463
15080TIP3    H166655   4.428   3.791  14.729 -0.3448  0.4206  0.2489
15080TIP3    H266656   4.521   3.881  14.808  1.1478 -0.3936 -0.5253
15081TIP3   OH266657   5.363   5.221  17.056 -0.2330 -0.0266 -0.3528
15081TIP3    H166658   5.318   5.160  16.997 -0.2631 -0.6192  0.2749
15081TIP3    H266659   5.427   5.167  17.102  0.2173  0.5577 -0.2872
15082TIP3   OH266660   2.250   3.688   3.992  0.3645  0.1186 -0.0437
15082TIP3    H166661   2.220   3.647   4.073 -0.5831 -1.0938 -0.9753
15082TIP3    H266662   2.335   3.727   4.015  0.5714 -1.0361  1.2784
15083TIP3   OH266663   5.247   4.918   4.433 -0.2741  0.4396 -0.3618
15083TIP3    H166664   5.295   4.863   4.372 -1.2681  0.8358 -1.5397
15083TIP3    H266665   5.313   4.950   4.494  0.7568  0.0792 -1.2670
15084TIP3   OH266666   0.818   0.989   5.319 -0.6585  0.5234 -0.1358
15084TIP3    H166667   0.801   0.936   5.397 -1.1641 -1.1211 -1.3260
15084TIP3    H266668   0.904   0.960   5.288 -0.4596  1.1712 -0.2072
15085TIP3   OH266669   2.663   4.341   2.722 -0.1647  0.0635 -0.0570
15085TIP3    H166670   2.695   4.411   2.779 -1.6508  3.1110 -2.6754
15085TIP3    H266671   2.581   4.312   2.763  0.3644 -0.0562  0.9441
15086TIP3   OH266672   3.965   4.476  14.541  0.2374  0.3958 -0.6534
15086TIP3    H166673   3.946   4.383  14.547  0.4933  0.4478  2.6063
15086TIP3    H266674   3.880   4.518  14.536  0.0643  0.0443 -0.6721
15087TIP3   OH266675   4.971   4.920   0.592 -0.2338  0.2652 -0.4987
15087TIP3    H166676   5.066   4.928   0.599  0.2059 -2.7477 -1.4728
15087TIP3    H266677   4.950   4.837   0.635 -2.0745 -0.2744 -2.2422
15088TIP3   OH266678   1.588   3.991  11.880  0.1233  0.1405  0.0574
15088TIP3    H166679   1.630   3.937  11.946 -1.8396  0.4376  1.6261
15088TIP3    H266680   1.640   4.071  11.878  0.6881 -0.2008  0.6204
15089TIP3   OH266681   5.710   2.069  15.903  0.4098  0.7022 -0.7435
15089TIP3    H166682   5.631   2.062  15.848 -0.0012 -0.7015 -0.0271
15089TIP3    H266683   5.782   2.044  15.845 -0.1158 -1.6049 -0.4963
15090TIP3   OH266684   2.248   2.878  14.767 -0.0486 -0.6035  0.4950
15090TIP3    H166685   2.246   2.841  14.679 -0.2195 -0.2221  0.3351
15090TIP3    H266686   2.235   2.803  14.825  0.5865 -0.9346  0.2183
15091TIP3   OH266687   0.167   2.286   3.121 -0.2239  0.2405  0.9159
15091TIP3    H166688   0.167   2.299   3.215 -0.4255 -1.3606  1.1674
15091TIP3    H266689   0.220   2.208   3.107 -0.0257  0.5734 -0.3194
15092TIP3   OH266690   6.584   4.167  12.352 -0.2119 -0.1167  0.6294
15092TIP3    H166691   6.603   4.220  12.275 -1.0420 -0.7096 -0.0105
15092TIP3    H266692   6.636   4.206  12.422  1.7297 -0.4464 -0.5401
15093TIP3   OH266693   3.836   1.322   4.004  0.1968 -0.4652  0.3928
15093TIP3    H166694   3.819   1.417   4.009 -0.1713 -0.5391  0.6473
15093TIP3    H266695   3.797   1.287   4.085 -1.0443 -1.0290 -0.4152
15094TIP3   OH266696   5.388   2.707  11.744 -0.4785 -0.2128  0.0420
15094TIP3    H166697   5.422   2.766  11.677 -0.1397  1.2363  1.4337
15094TIP3    H266698   5.452   2.710  11.815 -2.6324  1.4513  2.1210
15095TIP3   OH266699   3.114   1.601   4.705  0.2627 -0.9634 -0.1792
15095TIP3    H166700   3.056   1.534   4.739 -0.0026 -1.1469 -0.9883
15095TIP3    H266701   3.102   1.675   4.765 -0.2530 -1.2510  0.0795
15096TIP3   OH266702   3.802   5.686   3.047  0.0298 -0.0836  0.4568
15096TIP3    H166703   3.794   5.598   3.086 -1.9686 -1.5509 -2.8819
15096TIP3    H266704   3.895   5.692   3.023 -0.0596 -1.9258 -0.5243
15097TIP3   OH266705   2.316   1.269   0.765  0.9609  0.2321  0.0774
15097TIP3    H166706   2.355   1.347   0.725  0.7103  0.5746  0.4774
15097TIP3    H266707   2.298   1.296   0.856 -0.3552  0.1514 -0.1348
15098TIP3   OH266708   0.480   0.466  14.965 -0.2203 -0.0506  0.0784
15098TIP3    H166709   0.544   0.401  14.996  1.1291 -0.3143 -2.9411
15098TIP3    H266710   0.402   0.415  14.946 -1.2353  0.1729  3.1418
15099TIP3   OH266711   2.485   1.163  17.096 -0.8161 -0.0239 -0.0656
15099TIP3    H166712   2.508   1.132  17.184  0.3962  0.1609 -0.3114
15099TIP3    H266713   2.449   1.085  17.053 -0.4535 -0.3748  0.2558
15100TIP3   OH266714   5.536   3.931  14.750  1.0202 -0.3155 -0.3933
15100TIP3    H166715   5.446   3.900  14.740  1.4313 -3.3093  3.1756
15100TIP3    H266716   5.528   4.012  14.801  0.3661 -0.6300  0.0105
15101TIP3   OH266717   6.367   2.655  17.059  0.0071 -0.0281  0.1603
15101TIP3    H166718   6.434   2.626  17.121  0.4266  1.1305  0.2705
15101TIP3    H266719   6.357   2.748  17.076  0.4101  0.4117 -1.7719
15102TIP3   OH266720   0.953   6.213  12.998 -0.1032 -0.3733 -0.1597
15102TIP3    H166721   0.909   6.263  12.930  1.5032  0.9228 -0.3169
15102TIP3    H266722   0.938   6.263  13.079  0.5133 -0.2553 -0.1089
15103TIP3   OH266723   1.679   4.991   2.153  0.8959  0.0405  0.4110
15103TIP3    H166724   1.774   4.978   2.150  1.5225  3.5079  1.3185
15103TIP3    H266725   1.663   5.064   2.094 -1.2436 -0.4279  0.3372
15104TIP3   OH266726   5.865   4.126   4.295 -0.0535  0.2339 -0.1140
15104TIP3    H166727   5.810   4.132   4.373 -0.5276  1.5103 -0.5222
15104TIP3    H266728   5.804   4.136   4.222  0.6352  1.0573 -0.5942
15105TIP3   OH266729   6.216   3.614   0.015 -0.4053 -0.5493 -0.0182
15105TIP3    H166730   6.171   3.537  -0.020  0.1465 -0.8213 -0.1468
15105TIP3    H266731   6.308   3.602  -0.011 -0.5604  0.9138 -1.3587
15106TIP3   OH266732   4.598   0.496  15.428  0.1520 -0.1467  0.1548
15106TIP3    H166733   4.506   0.480  15.408 -0.1225 -0.6018  1.6816
15106TIP3    H266734   4.645   0.430  15.377 -0.2095  1.0240 -1.8129
15107TIP3   OH266735   0.895   4.525   3.047  0.0197  0.4338  0.1850
15107TIP3    H166736   0.949   4.584   3.100  0.4359 -1.1290  1.6103
15107TIP3    H266737   0.924   4.540   2.957  0.7100  1.7531  0.5956
15108TIP3   OH266738   2.146   0.525   3.018  0.0196  0.2585 -0.0033
15108TIP3    H166739   2.118   0.486   2.936  2.0729  1.1651 -1.2230
15108TIP3    H266740   2.107   0.612   3.018 -2.3217 -0.6914  1.4248
15109TIP3   OH266741   0.515   1.737  12.194 -0.4838 -0.4409 -0.0903
15109TIP3    H166742   0.489   1.781  12.113 -0.8410 -0.7893 -0.1705
15109TIP3    H266743   0.582   1.675  12.167 -1.2924 -1.2477 -0.2909
15110TIP3   OH266744   5.927   2.323  15.005 -0.1442  0.3234 -0.1611
15110TIP3    H166745   5.899   2.408  14.970 -0.3247 -0.0448 -0.9220
15110TIP3    H266746   6.016   2.339  15.036 -0.3927  0.9454  0.2639
15111TIP3   OH266747   0.797   0.790  15.491 -0.0782  0.3473  0.9243
15111TIP3    H166748   0.867   0.854  15.477  0.3024 -0.6484 -3.3965
15111TIP3    H266749   0.717   0.836  15.467 -0.3092  0.2510  1.5090
15112TIP3   OH266750   3.678   1.789   3.277  0.2051 -0.3928  0.2187
15112TIP3    H166751   3.685   1.738   3.358  0.4978 -0.3533  0.2171
15112TIP3    H266752   3.595   1.836   3.286 -0.5856 -1.6551 -0.2279
15113TIP3   OH266753   3.776   5.328  14.637  0.5345 -0.1596 -0.1972
15113TIP3    H166754   3.760   5.291  14.724 -0.5341  1.8030  0.5203
15113TIP3    H266755   3.716   5.281  14.579  0.7044 -0.9514  0.2500
15114TIP3   OH266756   1.811   0.233   4.761 -0.4974 -0.1052  0.2420
15114TIP3    H166757   1.856   0.165   4.712  1.3054  0.4318  1.0757
15114TIP3    H266758   1.865   0.247   4.839 -0.1304  3.0429 -0.4275
15115TIP3   OH266759   4.434   1.319  14.347  0.1130 -0.4745 -0.3551
15115TIP3    H166760   4.372   1.358  14.285  0.0354  0.4225  0.2693
15115TIP3    H266761   4.507   1.381  14.350 -0.4713  0.1953  1.4364
15116TIP3   OH266762   0.356   5.537  15.343  0.4088  0.0295  0.3461
15116TIP3    H166763   0.313   5.520  15.259 -1.3162  1.1789  0.9444
15116TIP3    H266764   0.287   5.523  15.408  1.1003  1.3092  1.4004
15117TIP3   OH266765   6.594   1.165  17.189 -0.1869  0.4054 -0.4408
15117TIP3    H166766   6.644   1.111  17.129  1.2817  2.7596 -1.4838
15117TIP3    H266767   6.538   1.219  17.133 -0.3096  1.2099  0.4197
15118TIP3   OH266768   5.147   4.954   3.403 -0.7956  0.3755 -0.2200
15118TIP3    H166769   5.161   4.902   3.324  1.7779 -0.2358  0.5451
15118TIP3    H266770   5.151   5.044   3.373  0.2378  0.1518 -0.8135
15119TIP3   OH266771   0.319   0.505  13.611  0.2149 -0.3928  0.4730
15119TIP3    H166772   0.250   0.516  13.676  0.7242  0.9628  0.8437
15119TIP3    H266773   0.393   0.554  13.647  0.7236 -0.1585 -0.8156
15120TIP3   OH266774   2.894   1.028   3.506  0.5495 -0.2504 -0.6176
15120TIP3    H166775   2.855   1.069   3.429  1.1819  0.2667 -0.6730
15120TIP3    H266776   2.971   1.081   3.525  0.8705 -0.8743 -0.1335
15121TIP3   OH266777   6.061   6.306  11.954  0.2561 -0.1627 -0.4238
15121TIP3    H166778   5.967   6.318  11.940  0.4670  0.5948 -1.2658
15121TIP3    H266779   6.079   6.350  12.037 -0.1838 -0.5864 -0.0989
15122TIP3   OH266780   1.164   5.244  14.147 -0.4205 -0.1020  0.5487
15122TIP3    H166781   1.208   5.169  14.187 -0.5399  0.0654  0.9943
15122TIP3    H266782   1.235   5.306  14.130 -0.4179 -0.0238  0.8374
15123TIP3   OH266783   0.629   0.184   1.116 -0.1303 -0.1189  0.2714
15123TIP3    H166784   0.724   0.193   1.110 -0.2068 -0.2038 -1.8785
15123TIP3    H266785   0.605   0.229   1.197  1.8299 -1.0307  1.4130
15124TIP3   OH266786   3.275   4.848   2.839  0.3121  0.5263  0.1430
15124TIP3    H166787   3.369   4.833   2.834  0.0436 -1.0834 -0.6174
15124TIP3    H266788   3.243   4.780   2.897 -0.4156  0.9825  0.2902
15125TIP3   OH266789   5.009   2.954   0.163  0.0215  0.1360 -0.6105
15125TIP3    H166790   4.959   3.006   0.226 -0.9282 -1.0639 -0.3368
15125TIP3    H266791   5.079   2.914   0.215  0.2235  0.4353 -0.6492
15126TIP3   OH266792   2.162   0.692   3.944 -0.2804  0.5739  0.2721
15126TIP3    H166793   2.144   0.785   3.936 -1.5602  0.3073 -0.1309
15126TIP3    H266794   2.221   0.673   3.871 -1.1656  0.7962 -0.5148
15127TIP3   OH266795   6.398   2.194  12.822 -0.3113 -0.2797 -0.5621
15127TIP3    H166796   6.329   2.138  12.787 -3.3585  1.1769  2.5034
15127TIP3    H266797   6.422   2.153  12.905  0.4858  0.7003 -0.2879
15128TIP3   OH266798   0.155   2.395  13.288  0.1213  0.3437  0.2037
15128TIP3    H166799   0.061   2.403  13.274  0.0308 -1.4490 -0.4881
15128TIP3    H266800   0.180   2.315  13.242  1.8054  0.2054  1.2408
15129TIP3   OH266801   1.747   5.262  13.335  0.4860 -0.2369  0.3928
15129TIP3    H166802   1.674   5.321  13.315 -0.3576 -1.6067 -0.7244
15129TIP3    H266803   1.726   5.226  13.421  1.1896  1.3138  1.2494
15130TIP3   OH266804   1.943   5.138   1.913  0.3852 -0.0324  0.4632
15130TIP3    H166805   1.942   5.140   1.817 -0.8316 -0.4318  0.4473
15130TIP3    H266806   1.967   5.048   1.935 -0.0963 -0.1531  0.5136
15131TIP3   OH266807   6.125   0.381   3.982 -0.3294 -0.3408 -0.1203
15131TIP3    H166808   6.151   0.333   3.903  1.4857  0.0398  0.2051
15131TIP3    H266809   6.087   0.314   4.039  1.5285 -1.3036  0.0547
15132TIP3   OH266810   3.163   1.195  14.513 -0.6763  0.1350 -0.5654
15132TIP3    H166811   3.234   1.144  14.473  0.5189 -1.0743  2.7725
15132TIP3    H266812   3.084   1.144  14.495 -0.1622 -0.4744 -1.1644
15133TIP3   OH266813   2.775   5.900  12.331 -0.5439  0.1539 -0.2829
15133TIP3    H166814   2.849   5.959  12.344 -0.7415  0.2970  0.2022
15133TIP3    H266815   2.763   5.858  12.417 -0.2792 -0.7378 -0.6667
15134TIP3   OH266816   6.668   1.339   3.578  0.5394 -0.0792 -0.4097
15134TIP3    H166817   6.577   1.313   3.564 -0.0782  0.4819  2.0672
15134TIP3    H266818   6.689   1.305   3.665  1.8409  1.9766  0.1515
15135TIP3   OH266819   5.010   4.028   4.633 -0.1854 -0.3186 -0.8068
15135TIP3    H166820   4.973   4.106   4.591  0.3751  0.0042 -0.7085
15135TIP3    H266821   5.091   4.011   4.584  1.4978  1.1809  1.2910
15136TIP3   OH266822   6.219   3.618   1.145 -0.4110  0.1246 -0.1640
15136TIP3    H166823   6.239   3.609   1.238  0.7850  1.4122 -0.2538
15136TIP3    H266824   6.283   3.561   1.101  1.0863  1.8532 -0.3092
15137TIP3   OH266825   0.263   4.554  12.690 -0.3739  0.3505  0.0859
15137TIP3    H166826   0.321   4.557  12.614 -1.0669 -3.6840 -0.8454
15137TIP3    H266827   0.175   4.567  12.655 -0.5331  0.4480  0.5135
15138TIP3   OH266828   5.560   0.540   1.368 -0.0971 -1.3349  0.6519
15138TIP3    H166829   5.611   0.588   1.433 -1.6444 -0.2110  1.0951
15138TIP3    H266830   5.604   0.557   1.285  0.5124 -0.7586  1.0847
15139TIP3   OH266831   3.629   2.379  12.621 -0.1253  0.5048 -0.1912
15139TIP3    H166832   3.678   2.305  12.585 -0.7316  0.6093 -1.2823
15139TIP3    H266833   3.612   2.435  12.545 -0.8554  1.0847  0.3854
15140TIP3   OH266834   4.547   3.437   4.681  0.1815  0.0218 -0.5534
15140TIP3    H166835   4.466   3.399   4.714 -0.2922  1.6561  0.3114
15140TIP3    H266836   4.610   3.424   4.752  0.2228  0.1550 -0.5639
15141TIP3   OH266837   2.983   0.097   5.571 -0.0289  0.0196  0.3082
15141TIP3    H166838   2.959   0.099   5.479  2.1710 -3.2927 -0.5028
15141TIP3    H266839   2.939   0.019   5.606  1.9349 -0.7867  1.0962
15142TIP3   OH266840   0.700   3.012  10.785  0.2757 -0.2282 -0.1982
15142TIP3    H166841   0.770   2.954  10.755 -0.2854 -0.3184 -1.3907
15142TIP3    H266842   0.707   3.089  10.729 -0.3360 -0.0808 -0.0855
15143TIP3   OH266843   6.633   4.533  12.290 -0.1273 -0.0365 -0.0666
15143TIP3    H166844   6.674   4.487  12.217 -0.5810  2.3137 -1.9401
15143TIP3    H266845   6.642   4.626  12.268 -2.4521  0.7101  1.6591
15144TIP3   OH266846   3.692   1.466   0.929 -0.8739 -0.4982 -0.3241
15144TIP3    H166847   3.635   1.540   0.948  0.2952  0.1549  0.7881
15144TIP3    H266848   3.692   1.460   0.833 -1.0705  0.8802 -0.4308
15145TIP3   OH266849   5.277   5.616   3.712 -0.3061  0.8203 -0.0650
15145TIP3    H166850   5.342   5.560   3.669 -0.9901 -1.5798  1.7604
15145TIP3    H266851   5.206   5.624   3.648  0.8159  1.6386 -1.2493
15146TIP3   OH266852   2.996   4.403   6.679 -0.6903  0.0270 -0.0122
15146TIP3    H166853   2.917   4.351   6.667 -0.1681 -0.7653 -0.1196
15146TIP3    H266854   3.004   4.454   6.599 -3.0720  2.9601  1.4031
15147TIP3   OH266855   2.997   2.539  15.078  0.3478  0.8585 -0.0198
15147TIP3    H166856   2.976   2.450  15.052  0.4170  0.3627  1.5382
15147TIP3    H266857   2.914   2.575  15.110  0.6427  0.8143  0.8109
15148TIP3   OH266858   2.792   0.474   3.927  0.8403  0.0082  0.8113
15148TIP3    H166859   2.847   0.523   3.988  1.6866  0.5170 -0.3268
15148TIP3    H266860   2.793   0.384   3.961 -1.1763  0.7852  3.2257
15149TIP3   OH266861   1.226   3.752  14.795  0.3967 -0.0607 -0.5976
15149TIP3    H166862   1.147   3.713  14.834  0.5954  0.5109  0.4152
15149TIP3    H266863   1.195   3.792  14.714 -0.2305 -0.4161 -0.5443
15150TIP3   OH266864   3.790   2.821   2.547  0.3210  0.5874  0.6674
15150TIP3    H166865   3.750   2.800   2.463 -1.2354 -0.5616  1.6392
15150TIP3    H266866   3.717   2.852   2.601  1.2833  1.2579  1.6253
15151TIP3   OH266867   1.804   2.712  12.755 -0.2261 -0.0509  0.4279
15151TIP3    H166868   1.734   2.778  12.761  0.2269  0.3632  1.4167
15151TIP3    H266869   1.758   2.631  12.733 -0.7015  0.7191 -1.6413
15152TIP3   OH266870   2.837   4.996  10.683 -0.1490 -0.1091  0.3102
15152TIP3    H166871   2.913   4.989  10.741  0.8866  0.9755 -0.8236
15152TIP3    H266872   2.867   4.955  10.601 -0.0870  1.9290 -0.7465
15153TIP3   OH266873   6.146   5.234  16.879  0.4474  0.1679  0.2429
15153TIP3    H166874   6.129   5.143  16.905 -1.1241  0.3099 -0.2148
15153TIP3    H266875   6.198   5.226  16.798 -3.0526 -0.4720 -2.1424
15154TIP3   OH266876   1.073   1.011  13.557  0.0697 -0.5768  0.6844
15154TIP3    H166877   1.167   1.018  13.570  0.0171 -0.0065  0.7870
15154TIP3    H266878   1.052   1.078  13.492 -0.6667  1.3359  2.7509
15155TIP3   OH266879   4.658   1.958   1.184 -0.2450  0.2204 -0.3851
15155TIP3    H166880   4.614   1.939   1.101  0.6463 -2.7213 -0.2838
15155TIP3    H266881   4.749   1.975   1.159  0.0043 -0.5657 -0.0262
15156TIP3   OH266882   1.625   1.722   0.492  0.2229  0.1949  0.0099
15156TIP3    H166883   1.705   1.757   0.453  1.6259 -1.5431  1.1990
15156TIP3    H266884   1.623   1.630   0.464 -1.5786  0.2930 -0.2970
15157TIP3   OH266885   2.727   1.355   4.570 -0.2048 -0.0093 -0.6939
15157TIP3    H166886   2.680   1.301   4.635  0.3201  0.2754 -0.0733
15157TIP3    H266887   2.798   1.396   4.619  2.4273 -2.5009 -2.1098
15158TIP3   OH266888   3.364   6.195  14.669  0.0982  0.6673  0.1418
15158TIP3    H166889   3.408   6.277  14.694 -1.1454  1.5249 -0.3457
15158TIP3    H266890   3.435   6.133  14.653  1.0426  1.2490  1.8170
15159TIP3   OH266891   4.286   2.826  15.538 -0.1723  0.4032  0.3954
15159TIP3    H166892   4.313   2.911  15.573  1.2655  0.9010 -1.7085
15159TIP3    H266893   4.231   2.847  15.463  2.8682 -0.2586 -2.2645
15160TIP3   OH266894   3.056   6.606  11.617  0.2193 -0.3603 -0.6033
15160TIP3    H166895   3.011   6.680  11.578 -2.3495 -1.4570  0.0899
15160TIP3    H266896   3.112   6.572  11.547 -0.1023  0.9876 -1.5476
15161TIP3   OH266897   5.844   0.755  15.525  0.1366  0.3747  0.2289
15161TIP3    H166898   5.902   0.679  15.535 -0.4301 -0.2388 -0.9435
15161TIP3    H266899   5.892   0.827  15.566  1.0686 -0.4284  0.5963
15162TIP3   OH266900   5.386   4.769   3.697  0.7237 -0.5799 -0.1518
15162TIP3    H166901   5.297   4.763   3.663  1.3185 -0.3579 -1.8591
15162TIP3    H266902   5.380   4.830   3.770 -0.5436 -0.6731 -0.1653
15163TIP3   OH266903   5.453   2.888  16.024 -0.7069  0.2229 -0.4126
15163TIP3    H166904   5.400   2.809  16.013 -0.5359  0.1788 -0.9915
15163TIP3    H266905   5.523   2.879  15.959 -1.6194  1.6242 -1.6713
15164TIP3   OH266906   3.057   5.180  13.599  0.5425  0.4078  0.3661
15164TIP3    H166907   3.046   5.092  13.562  0.2085  1.0162 -1.0522
15164TIP3    H266908   2.982   5.190  13.657 -0.6132  0.5036 -1.0745
15165TIP3   OH266909   4.314   6.009  13.816 -0.2713  0.3180  0.0428
15165TIP3    H166910   4.368   6.054  13.882 -1.0858  4.0984 -1.6210
15165TIP3    H266911   4.371   6.003  13.739 -0.2037 -1.6545  0.1917
15166TIP3   OH266912   6.498   2.219  10.677  0.0926  0.2724  0.0227
15166TIP3    H166913   6.408   2.232  10.646  0.5832  2.8683 -0.4771
15166TIP3    H266914   6.525   2.136  10.637 -1.8725 -0.3185 -0.2061
15167TIP3   OH266915   1.957   1.412   1.021  0.1670 -0.0727  0.8937
15167TIP3    H166916   1.979   1.418   1.114 -0.5228 -0.5508  1.0992
15167TIP3    H266917   1.868   1.449   1.015 -0.0994 -0.7477  0.5628
15168TIP3   OH266918   2.212   4.312  10.633  0.1933  0.1330 -0.2736
15168TIP3    H166919   2.286   4.353  10.679 -0.4297 -0.6617  1.5228
15168TIP3    H266920   2.136   4.362  10.662 -0.1166  0.2091 -1.2020
15169TIP3   OH266921   4.710   4.289  15.737 -0.1173  0.3203  0.0240
15169TIP3    H166922   4.796   4.300  15.696  0.8006  0.3187  1.8612
15169TIP3    H266923   4.666   4.373  15.721  0.9819  1.0547  0.7168
15170TIP3   OH266924   0.347   2.587   5.137 -0.2041  0.2387 -0.5272
15170TIP3    H166925   0.252   2.591   5.150 -0.0293 -0.2007  1.0033
15170TIP3    H266926   0.370   2.674   5.105 -1.0677  0.4853 -0.5167
15171TIP3   OH266927   2.903   2.485   6.156 -0.1563 -0.1084  0.0767
15171TIP3    H166928   2.993   2.455   6.145  0.6090  2.1035 -0.2251
15171TIP3    H266929   2.886   2.540   6.080 -1.5944 -0.0688  0.3924
15172TIP3   OH266930   1.864   2.189   5.622  0.4030  0.6884  0.2936
15172TIP3    H166931   1.907   2.120   5.573 -1.1359 -0.7520  0.8626
15172TIP3    H266932   1.910   2.192   5.706 -0.8987 -1.2914  1.1564
15173TIP3   OH266933   0.755   0.342   2.083 -0.3872  0.0891  0.7580
15173TIP3    H166934   0.677   0.288   2.077 -0.3503  0.1732 -0.9639
15173TIP3    H266935   0.724   0.425   2.118 -1.6508  1.0355 -2.2187
15174TIP3   OH266936   6.644   3.876   3.047 -0.1307  0.7136 -0.0496
15174TIP3    H166937   6.712   3.942   3.058 -0.6950  1.0444  1.8438
15174TIP3    H266938   6.691   3.793   3.038  0.5354  1.1471 -0.7010
15175TIP3   OH266939   0.409   4.859   1.196  0.0953  0.2559  0.7122
15175TIP3    H166940   0.381   4.836   1.284 -0.1682 -1.9286  0.1313
15175TIP3    H266941   0.499   4.827   1.190  0.5726  1.5943  0.5992
15176TIP3   OH266942   5.068   2.145   5.591  0.1569 -0.6940 -0.0747
15176TIP3    H166943   5.063   2.052   5.610  0.1288 -0.5237  0.8049
15176TIP3    H266944   5.161   2.162   5.577  0.5004 -0.4374  2.1342
15177TIP3   OH266945   4.765   3.415  13.717 -0.5383  0.4261 -0.0093
15177TIP3    H166946   4.745   3.344  13.657 -2.1569  0.6180  0.2656
15177TIP3    H266947   4.777   3.372  13.802  0.0672  0.3265 -0.1435
15178TIP3   OH266948   2.515   2.334   4.150  0.2282  0.0603 -0.1720
15178TIP3    H166949   2.542   2.246   4.125  1.0196  0.0085  0.7910
15178TIP3    H266950   2.568   2.355   4.227  0.0324  1.3662 -0.3578
15179TIP3   OH266951   2.035   6.445   0.460 -0.6012 -0.0321 -0.4721
15179TIP3    H166952   1.988   6.455   0.543 -0.5555 -0.3066 -0.4109
15179TIP3    H266953   1.972   6.405   0.400  0.4766 -3.7632  0.5842
15180TIP3   OH266954   3.083   0.796   3.444 -0.1714  0.0479  0.1921
15180TIP3    H166955   3.035   0.878   3.451 -0.4918  0.0160 -1.4259
15180TIP3    H266956   3.026   0.731   3.484 -0.6757  0.3228 -0.0751
15181TIP3   OH266957   5.865   0.447  16.018  0.4131 -0.3506  0.4388
15181TIP3    H166958   5.870   0.452  16.114  3.2620 -1.3722  0.4265
15181TIP3    H266959   5.886   0.356  15.997 -2.4728 -0.7694 -1.1390
15182TIP3   OH266960   2.142   2.199  10.782 -0.5599  0.3944 -0.1368
15182TIP3    H166961   2.176   2.132  10.723 -1.3928  1.2703 -1.6728
15182TIP3    H266962   2.127   2.153  10.864 -2.9018 -1.8098 -1.6689
15183TIP3   OH266963   6.057   0.835   2.678  0.4406 -0.7200  0.4995
15183TIP3    H166964   6.091   0.792   2.600 -1.5690 -0.3531 -0.6548
15183TIP3    H266965   6.061   0.768   2.747  1.4550 -1.3121 -0.1119
15184TIP3   OH266966   1.167   2.645  14.804  0.6346  0.0322  0.2121
15184TIP3    H166967   1.203   2.733  14.815  0.8427 -0.0348  0.0645
15184TIP3    H266968   1.237   2.587  14.833  0.8047 -0.1116 -0.4753
15185TIP3   OH266969   6.277   0.591  12.442 -0.3183  0.0401  0.3325
15185TIP3    H166970   6.360   0.604  12.395 -0.3489 -3.3794 -0.9968
15185TIP3    H266971   6.210   0.617  12.379 -0.2809  0.1683  0.3458
15186TIP3   OH266972   4.384   4.318   1.687  0.3565 -0.8244  0.3443
15186TIP3    H166973   4.304   4.328   1.635  1.6523  0.1618 -1.5733
15186TIP3    H266974   4.367   4.242   1.742 -0.6801 -2.7679 -2.4237
15187TIP3   OH266975   2.156   0.515   2.163  0.0658  0.2771  0.3177
15187TIP3    H166976   2.202   0.492   2.244 -1.0785 -0.3185  0.8135
15187TIP3    H266977   2.069   0.542   2.192  0.8754  4.1675 -0.3028
15188TIP3   OH266978   6.278   6.205  15.723 -0.0641 -0.1399 -0.1554
15188TIP3    H166979   6.340   6.278  15.725  1.3497 -1.3054  1.2399
15188TIP3    H266980   6.318   6.138  15.778 -2.3703 -1.1355  0.4351
15189TIP3   OH266981   2.170   2.842   4.711  0.0429 -0.3049 -0.3623
15189TIP3    H166982   2.130   2.763   4.747  3.0271 -1.7213  0.1271
15189TIP3    H266983   2.201   2.890   4.788 -0.1213  0.4295 -0.7440
15190TIP3   OH266984   4.780   0.161   4.778 -0.1853 -0.1044  0.4421
15190TIP3    H166985   4.766   0.068   4.793 -3.3240  0.5663  2.5623
15190TIP3    H266986   4.853   0.185   4.835  1.1735 -1.3297 -0.7129
15191TIP3   OH266987   4.847   1.353  15.267 -0.7815 -0.4054  0.2771
15191TIP3    H166988   4.886   1.372  15.352  2.7933  0.5767 -1.3737
15191TIP3    H266989   4.873   1.263  15.247  0.1421  0.0219 -0.5519
15192TIP3   OH266990   2.533   0.722  13.219  0.1808  0.3142 -0.0979
15192TIP3    H166991   2.614   0.672  13.206  0.2280  0.5047 -0.5857
15192TIP3    H266992   2.557   0.793  13.279  0.2665  0.1108  0.1070
15193TIP3   OH266993   0.556   4.392  14.584 -0.4118 -0.5918  0.2008
15193TIP3    H166994   0.463   4.384  14.605 -0.7766 -1.0577 -1.4453
15193TIP3    H266995   0.596   4.313  14.621 -1.1589 -1.7679 -1.3859
15194TIP3   OH266996   2.518   6.638   2.218  0.0212 -0.1345  0.5563
15194TIP3    H166997   2.468   6.713   2.188  0.0547 -0.4874 -0.4121
15194TIP3    H266998   2.493   6.566   2.159  0.9054 -0.5674  0.6825
15195TIP3   OH266999   2.396   5.583   0.942  0.0105 -0.2727 -0.1369
15195TIP3    H167000   2.331   5.530   0.895  0.4606  0.6051 -1.8477
15195TIP3    H267001   2.347   5.660   0.972 -0.0474 -0.3091 -0.1376
15196TIP3   OH267002   3.251   6.344  11.883  0.2248  0.4460 -0.2601
15196TIP3    H167003   3.271   6.413  11.819  0.5838 -0.8319 -1.5940
15196TIP3    H267004   3.268   6.262  11.836 -0.0688 -0.5671  1.3070
15197TIP3   OH267005   2.041   6.343  11.110  0.4495 -0.2202  0.3046
15197TIP3    H167006   2.090   6.276  11.157  0.4118 -0.7955 -0.4491
15197TIP3    H267007   2.042   6.313  11.019  0.4795  0.8340 -0.0538
15198TIP3   OH267008   6.048   6.652   1.747  0.2742 -0.3415 -0.0454
15198TIP3    H167009   6.006   6.593   1.684  1.1784  0.0706 -1.0535
15198TIP3    H267010   6.001   6.735   1.736 -0.3695 -0.5909  0.7047
15199TIP3   OH267011   6.621   6.021  10.957 -0.0753  0.2450 -0.3334
15199TIP3    H167012   6.673   6.101  10.946  3.4531 -1.9093 -0.7520
15199TIP3    H267013   6.603   5.991  10.868 -0.1881 -0.1415 -0.1844
15200TIP3   OH267014   4.363   5.579  13.712  0.1966 -0.3565  0.4311
15200TIP3    H167015   4.324   5.530  13.641 -0.1608 -0.4450  0.6867
15200TIP3    H267016   4.457   5.574  13.696  0.0710  0.6879 -0.7329
15201TIP3   OH267017   2.472   5.887  15.256  0.4463 -0.4530 -0.2792
15201TIP3    H167018   2.414   5.890  15.332 -0.2579  0.1306 -0.8280
15201TIP3    H267019   2.534   5.958  15.269 -0.8491  0.8854 -1.1525
15202TIP3   OH267020   0.993   4.571   3.922  0.6505  0.0945 -0.6064
15202TIP3    H167021   1.076   4.581   3.876  0.9995 -0.0012 -0.0124
15202TIP3    H267022   1.016   4.583   4.015 -0.0691  0.5009 -0.4762
15203TIP3   OH267023   0.807   2.532  16.492  0.4146  0.2382 -0.3150
15203TIP3    H167024   0.767   2.445  16.489  0.6501  0.0745  0.8122
15203TIP3    H267025   0.894   2.518  16.529  1.0744  0.7610 -1.5888
15204TIP3   OH267026   4.308   5.618   1.651 -0.2561  0.1415  0.8526
15204TIP3    H167027   4.310   5.705   1.692  1.2714 -0.5573  2.4487
15204TIP3    H267028   4.287   5.558   1.723  1.3452 -1.0448  0.3992
15205TIP3   OH267029   1.231   1.113  16.372  0.1540  0.5783 -0.2207
15205TIP3    H167030   1.240   1.092  16.465  0.9623 -0.4254 -0.5081
15205TIP3    H267031   1.140   1.094  16.352 -0.2027  1.4466  0.5095
15206TIP3   OH267032   0.127   1.870  15.796  0.1406  0.2458 -0.3102
15206TIP3    H167033   0.043   1.832  15.824  1.9965 -4.2684  0.0004
15206TIP3    H267034   0.165   1.904  15.876 -0.0726 -0.6770  0.2037
15207TIP3   OH267035   4.169   1.416   4.251  0.0858  0.5585 -0.0010
15207TIP3    H167036   4.093   1.444   4.301 -1.4778  1.8314 -2.8181
15207TIP3    H267037   4.238   1.477   4.275 -0.4188  0.7341  1.0244
15208TIP3   OH267038   1.639   3.161   4.319 -0.0249 -0.0679 -0.0062
15208TIP3    H167039   1.661   3.072   4.293  2.4034  0.0273  1.4329
15208TIP3    H267040   1.631   3.209   4.237 -1.2642 -1.5264 -0.7945
15209TIP3   OH267041   2.859   5.714   5.301 -0.1780  0.1980  0.4799
15209TIP3    H167042   2.849   5.660   5.380 -0.0741 -1.7634 -0.7906
15209TIP3    H267043   2.948   5.696   5.271 -1.1479 -1.4073 -1.6659
15210TIP3   OH267044   0.197   1.570   5.470 -0.1161  0.5045 -0.0096
15210TIP3    H167045   0.245   1.572   5.553 -0.6832  3.7138  0.3546
15210TIP3    H267046   0.111   1.536   5.493 -0.2622  1.3473  0.7277
15211TIP3   OH267047   6.583   1.430   4.288  0.2015  0.1038  0.2644
15211TIP3    H167048   6.545   1.459   4.205 -2.5842  0.5583  1.5693
15211TIP3    H267049   6.569   1.504   4.347 -0.9643 -1.4209  1.9757
15212TIP3   OH267050   0.151   6.412   4.226 -0.0098  0.1920 -0.1108
15212TIP3    H167051   0.104   6.463   4.292 -0.0704  0.9082 -0.6994
15212TIP3    H267052   0.123   6.449   4.142  1.5671  0.6073 -0.4787
15213TIP3   OH267053   3.402   5.025   4.051 -0.0529 -0.0390 -0.4509
15213TIP3    H167054   3.328   4.969   4.074  0.0027 -0.8484 -2.0923
15213TIP3    H267055   3.443   4.981   3.977  1.0885  1.2534 -0.6177
15214TIP3   OH267056   1.730   0.368  11.991  0.1444  0.0314  1.0280
15214TIP3    H167057   1.640   0.337  11.986  0.4593 -0.7210 -0.6463
15214TIP3    H267058   1.773   0.309  12.053 -0.9844  1.8263  3.7560
15215TIP3   OH267059   3.104   6.669  13.959  0.5752 -0.1774  0.1559
15215TIP3    H167060   3.155   6.669  14.040  0.0973  0.5575  0.4751
15215TIP3    H267061   3.116   6.582  13.922  1.2338 -0.3420  0.7439
15216TIP3   OH267062   6.129   1.938   3.653  0.0699 -0.3815  0.4454
15216TIP3    H167063   6.052   1.890   3.621 -1.3220  0.6456  2.1298
15216TIP3    H267064   6.094   2.018   3.691  2.0067  0.1727  1.1681
15217TIP3   OH267065   5.763   1.633  11.218 -0.4128 -0.0329  0.3248
15217TIP3    H167066   5.808   1.717  11.214 -0.4001 -0.0080  0.8457
15217TIP3    H267067   5.762   1.601  11.128  2.1518 -0.8428  0.5024
15218TIP3   OH267068   0.475   1.837   4.480  0.0113  0.5350  0.0891
15218TIP3    H167069   0.543   1.898   4.452  0.8261 -1.6442 -3.3565
15218TIP3    H267070   0.398   1.862   4.430 -0.0621 -0.3048 -0.2404
15219TIP3   OH267071   3.067   4.646  10.519 -0.1268 -0.4254  0.6346
15219TIP3    H167072   2.989   4.608  10.479 -0.0581  0.3387 -0.2475
15219TIP3    H267073   3.122   4.672  10.445  0.1795  0.6405  1.2243
15220TIP3   OH267074   4.229   5.633   3.347 -0.5846 -0.5136 -0.2922
15220TIP3    H167075   4.305   5.678   3.384 -1.3777 -0.7575  1.7479
15220TIP3    H267076   4.179   5.702   3.302 -0.8156  0.3055  1.1735
15221TIP3   OH267077   6.341   5.774   5.907 -0.1350  0.1853 -0.2042
15221TIP3    H167078   6.312   5.685   5.889 -1.4779  1.1555 -3.4834
15221TIP3    H267079   6.261   5.824   5.916  0.5986  1.2797  0.4824
15222TIP3   OH267080   2.285   2.241   4.293 -0.4616  0.1471  0.0776
15222TIP3    H167081   2.352   2.256   4.227 -0.9758 -1.3215 -0.8160
15222TIP3    H267082   2.312   2.295   4.368  1.1536  0.3452 -0.6212
15223TIP3   OH267083   3.135   1.049  15.515 -0.3704 -0.2547  0.0311
15223TIP3    H167084   3.180   1.120  15.560  1.1639 -1.3746  0.3538
15223TIP3    H267085   3.062   1.091  15.469  0.9668  1.6439 -0.4687
15224TIP3   OH267086   0.410   2.716   3.062 -0.3440  0.3426  0.4988
15224TIP3    H167087   0.318   2.745   3.058 -0.1674  0.7629 -2.9660
15224TIP3    H267088   0.414   2.641   3.003  1.7951  1.1702 -0.4946
15225TIP3   OH267089   1.676   3.963  11.592 -0.2417  0.5340  0.2426
15225TIP3    H167090   1.752   3.905  11.588 -0.6219 -0.1390  2.0192
15225TIP3    H267091   1.664   3.981  11.685 -3.4585 -1.0579  0.2983
15226TIP3   OH267092   6.241   1.055  16.602  0.1328 -0.0176  0.1564
15226TIP3    H167093   6.191   1.128  16.565  0.6359 -0.0851 -0.6806
15226TIP3    H267094   6.176   1.002  16.648 -0.3641  0.5496  0.1212
15227TIP3   OH267095   5.471   3.332  12.308  0.3207  0.1705 -0.1111
15227TIP3    H167096   5.557   3.344  12.349  0.4611  1.5377 -0.7677
15227TIP3    H267097   5.444   3.419  12.281 -1.6398 -0.1169  0.7424
15228TIP3   OH267098   0.359   0.473   2.602 -0.2328 -0.0568 -0.0722
15228TIP3    H167099   0.352   0.548   2.663 -0.7672  0.8432 -1.2018
15228TIP3    H267100   0.306   0.405   2.643  0.3962  0.1101  1.0665
15229TIP3   OH267101   3.808   4.307  15.598  0.2911  0.3097  0.4191
15229TIP3    H167102   3.820   4.277  15.508 -1.6001  2.5027 -0.6533
15229TIP3    H267103   3.890   4.352  15.619  1.7991 -2.4192  0.8423
15230TIP3   OH267104   3.816   6.356   4.594 -0.8313 -0.0627  0.6636
15230TIP3    H167105   3.783   6.269   4.618  0.5050 -0.8727 -0.3336
15230TIP3    H267106   3.739   6.412   4.596 -1.7910 -1.3482  0.9581
15231TIP3   OH267107   5.956   0.379   2.138 -0.0247 -0.0447  0.3419
15231TIP3    H167108   5.979   0.310   2.200  1.9238  1.0655  0.9208
15231TIP3    H267109   5.906   0.442   2.190  0.2099  0.1101  0.3775
15232TIP3   OH267110   6.531   4.296  16.274  0.8940  0.1566 -0.3846
15232TIP3    H167111   6.499   4.213  16.239  0.0344  0.4483 -0.3195
15232TIP3    H267112   6.558   4.276  16.363 -2.4649  0.5464  0.8855
15233TIP3   OH267113   0.448   3.893  12.817  0.2515 -0.0517 -0.3393
15233TIP3    H167114   0.477   3.908  12.907  0.3908  1.8459 -0.6693
15233TIP3    H267115   0.358   3.926  12.815 -0.0775 -0.9243 -0.7003
15234TIP3   OH267116   6.462   4.931  15.662 -0.3790  0.1015 -0.2478
15234TIP3    H167117   6.419   4.986  15.597  1.1140  1.2922 -0.2813
15234TIP3    H267118   6.399   4.861  15.680 -1.7942  1.0923 -1.1742
15235TIP3   OH267119   5.909   3.668   3.828 -0.0641  0.5569 -0.2534
15235TIP3    H167120   5.951   3.695   3.746 -2.3509 -0.2720 -1.7950
15235TIP3    H267121   5.981   3.663   3.891  1.7884  1.2131 -2.1880
15236TIP3   OH267122   3.208   3.926  10.734  0.1458  0.3737 -0.0476
15236TIP3    H167123   3.254   3.925  10.650  0.5416  1.6985  0.1249
15236TIP3    H267124   3.119   3.952  10.713  0.3976  1.3022 -0.0097
15237TIP3   OH267125   1.142   1.667   6.123 -0.4739  0.6031  0.2583
15237TIP3    H167126   1.216   1.725   6.141 -0.9059  0.8006  1.4758
15237TIP3    H267127   1.168   1.618   6.045  1.5412 -0.3505  1.4476
15238TIP3   OH267128   2.086   0.396   5.737  0.5491 -0.2990  0.0997
15238TIP3    H167129   2.176   0.392   5.707  0.1266  0.4044 -1.3523
15238TIP3    H267130   2.065   0.307   5.765  2.1905 -0.1289  2.0911
15239TIP3   OH267131   5.258   1.296  15.781 -0.0188  0.1832 -0.7982
15239TIP3    H167132   5.166   1.317  15.769  0.0806  0.3081 -1.3621
15239TIP3    H267133   5.287   1.354  15.852 -0.5528 -0.3911 -0.0850
15240TIP3   OH267134   6.771   4.848   0.659  0.3076 -0.0877  0.4627
15240TIP3    H167135   6.732   4.815   0.578 -1.5003  1.4388  0.6373
15240TIP3    H267136   6.827   4.777   0.690 -2.4943 -2.5415  0.2830
15241TIP3   OH267137   4.110   0.279   5.054 -0.5151 -0.0020  0.0804
15241TIP3    H167138   4.191   0.262   5.007 -0.8829 -3.2306  0.3656
15241TIP3    H267139   4.130   0.259   5.146 -1.9160 -2.5106 -0.0574
15242TIP3   OH267140   5.080   0.357  12.498 -0.3730 -0.4152  0.0013
15242TIP3    H167141   5.018   0.304  12.548 -1.3589  0.3750 -0.3603
15242TIP3    H267142   5.113   0.421  12.561 -0.8555 -0.0565 -0.1102
15243TIP3   OH267143   5.548   5.546  15.396  0.1977 -0.0835  0.1729
15243TIP3    H167144   5.472   5.598  15.422 -0.6126 -0.6218 -1.0270
15243TIP3    H267145   5.548   5.550  15.301  1.1348 -0.8537  0.1301
15244TIP3   OH267146   5.369   5.230   5.213  0.0103 -0.1240 -0.1854
15244TIP3    H167147   5.303   5.298   5.201 -0.5898 -0.7122 -0.2441
15244TIP3    H267148   5.364   5.176   5.134 -1.6493 -2.0424  1.1365
15245TIP3   OH267149   4.370   0.421   3.380 -0.4657 -0.1163  0.2257
15245TIP3    H167150   4.443   0.479   3.361 -1.2035  0.5220 -0.7234
15245TIP3    H267151   4.374   0.354   3.312  0.1712 -0.9998  1.1085
15246TIP3   OH267152   0.546   1.026   0.232  0.3571  0.1987 -0.5883
15246TIP3    H167153   0.640   1.040   0.241  0.8793 -1.8680 -1.9728
15246TIP3    H267154   0.518   0.991   0.317  0.8161  0.8982 -0.1465
15247TIP3   OH267155   2.685   2.126   1.545  0.3562 -0.1700  0.9930
15247TIP3    H167156   2.764   2.080   1.575  0.5829 -0.2440  0.2987
15247TIP3    H267157   2.612   2.070   1.573  0.6438 -1.2646 -0.3377
15248TIP3   OH267158   2.698   4.208  13.613  0.3497  0.1706 -0.8587
15248TIP3    H167159   2.678   4.281  13.554 -0.0846  1.5216  0.8710
15248TIP3    H267160   2.612   4.182  13.648  0.3694 -1.8803 -2.1873
15249TIP3   OH267161   3.356   2.245   2.442  0.0469 -0.0554  0.0700
15249TIP3    H167162   3.411   2.260   2.519  0.1797 -2.1030  0.4184
15249TIP3    H267163   3.267   2.244   2.477  0.1391 -1.5076  0.3302
15250TIP3   OH267164   1.791   4.488  10.162  0.2006  0.3939 -0.0709
15250TIP3    H167165   1.881   4.489  10.195 -0.5353 -2.2053  2.4595
15250TIP3    H267166   1.743   4.545  10.222 -0.3431 -0.6792  0.5376
15251TIP3   OH267167   5.825   4.970   1.603 -0.5292  0.2974  0.0676
15251TIP3    H167168   5.807   4.879   1.626 -0.4117  0.5353  1.2043
15251TIP3    H267169   5.912   4.987   1.640 -0.4510  0.8025 -0.3331
15252TIP3   OH267170   3.876   3.824  12.162  0.0875  1.2980  0.1797
15252TIP3    H167171   3.967   3.830  12.132  0.8499  0.2095  2.0908
15252TIP3    H267172   3.864   3.900  12.219 -0.3064  1.5878 -0.2812
15253TIP3   OH267173   0.024   2.621   5.405  0.0012  0.0007 -0.2619
15253TIP3    H167174  -0.059   2.584   5.378 -0.1395  0.3553 -0.3261
15253TIP3    H267175   0.074   2.547   5.440 -0.6380 -0.0752  0.5029
15254TIP3   OH267176   0.722   4.622   0.094  0.0224 -0.1115 -0.9011
15254TIP3    H167177   0.764   4.614   0.180  2.2199 -1.4982 -2.0068
15254TIP3    H267178   0.682   4.537   0.078 -1.1093  0.4063 -0.9484
15255TIP3   OH267179   3.700   4.828   2.496  0.7281 -0.6056 -0.2282
15255TIP3    H167180   3.670   4.903   2.547 -0.3596 -1.5179  0.5302
15255TIP3    H267181   3.779   4.799   2.540  2.2367  1.1683 -1.6082
15256TIP3   OH267182   0.350   2.339  15.662  0.1344  0.1566 -0.1676
15256TIP3    H167183   0.379   2.430  15.660 -0.5734  0.5399  2.6730
15256TIP3    H267184   0.279   2.338  15.726 -0.3092 -2.3044 -0.5928
15257TIP3   OH267185   3.500   5.037  14.339 -0.1279 -0.2865 -0.3261
15257TIP3    H167186   3.455   4.954  14.353  1.2670 -1.0220 -0.0380
15257TIP3    H267187   3.456   5.076  14.263 -2.9584  0.3052  1.4840
15258TIP3   OH267188   5.837   2.168   1.003 -0.3766  0.2121 -0.6516
15258TIP3    H167189   5.745   2.195   0.996 -0.8988 -1.0838  0.5073
15258TIP3    H267190   5.862   2.143   0.914 -2.4452 -3.1424 -0.4752
15259TIP3   OH267191   6.446   2.848   3.728 -0.3881  0.3576  0.6152
15259TIP3    H167192   6.363   2.878   3.690 -1.0361 -0.3263  1.4451
15259TIP3    H267193   6.451   2.756   3.704 -0.6449 -0.0015  1.8866
15260TIP3   OH267194   4.044   4.906  15.775  0.0363 -0.0093  0.3936
15260TIP3    H167195   3.993   4.940  15.849  0.8980 -0.1097  1.0454
15260TIP3    H267196   4.072   4.819  15.803  0.2334 -0.1163 -0.1250
15261TIP3   OH267197   2.307   2.536   2.739  0.5878 -0.3213 -0.1744
15261TIP3    H167198   2.297   2.532   2.644 -1.7622  1.2011 -0.0712
15261TIP3    H267199   2.310   2.630   2.759  0.7581 -0.6147  1.2805
15262TIP3   OH267200   0.038   5.273  13.123  0.3864  0.1185  0.0499
15262TIP3    H167201   0.016   5.350  13.175 -2.9729 -0.6297  0.0017
15262TIP3    H267202   0.018   5.199  13.180 -0.2235 -0.6840 -1.1580
15263TIP3   OH267203   0.911   4.876  16.482 -0.2553 -0.0698  0.0008
15263TIP3    H167204   0.900   4.856  16.575  0.4133  1.5902  0.4640
15263TIP3    H267205   1.005   4.864  16.466 -0.3715 -0.3752 -0.4821
15264TIP3   OH267206   5.150   6.483  14.506 -0.6434  0.2124  0.5487
15264TIP3    H167207   5.182   6.571  14.527 -1.9776  1.0730 -0.7799
15264TIP3    H267208   5.221   6.443  14.456 -0.7894  1.3431 -0.6305
15265TIP3   OH267209   3.887   6.031  16.473 -0.3027  0.4891 -0.5251
15265TIP3    H167210   3.845   5.988  16.547 -0.6468 -0.3764 -1.1961
15265TIP3    H267211   3.892   6.123  16.498 -0.0872  0.1578  0.7052
15266TIP3   OH267212   6.032   4.546   0.693 -0.2690 -0.4003 -0.3606
15266TIP3    H167213   6.006   4.577   0.606  0.1772 -2.3766 -1.2519
15266TIP3    H267214   6.064   4.624   0.738 -0.2044  0.6152 -2.0865
15267TIP3   OH267215   6.304   3.407   3.499 -0.1348 -0.5594 -0.7524
15267TIP3    H167216   6.254   3.402   3.418  0.9202 -3.7702 -1.3436
15267TIP3    H267217   6.317   3.316   3.525  0.8497  0.3165  2.2451
15268TIP3   OH267218   5.984   3.542   1.320 -0.2253 -0.6857 -0.1131
15268TIP3    H167219   6.072   3.506   1.313  0.5216  1.1273 -0.7101
15268TIP3    H267220   5.993   3.618   1.378 -1.0474  0.4167 -1.3412
15269TIP3   OH267221   6.234   0.694  13.999 -0.2187  0.6637  0.7034
15269TIP3    H167222   6.150   0.738  14.014  0.0505  1.3806  0.1900
15269TIP3    H267223   6.277   0.748  13.932 -0.9561 -1.8101 -1.9649
15270TIP3   OH267224   2.635   3.698  16.228 -0.0061  0.1617 -0.1214
15270TIP3    H167225   2.586   3.673  16.305  0.1370 -0.5768 -0.2677
15270TIP3    H267226   2.584   3.664  16.154  0.7977 -0.7654 -0.2667
15271TIP3   OH267227   2.431   0.859   5.352 -0.5826 -0.6420  0.6946
15271TIP3    H167228   2.472   0.871   5.266 -0.6446 -1.8812  0.4817
15271TIP3    H267229   2.504   0.857   5.413 -0.4399 -1.1921  0.5057
15272TIP3   OH267230   4.573   2.597  14.172 -0.1034  0.2384 -0.1976
15272TIP3    H167231   4.502   2.533  14.170 -0.6831  0.8802 -1.5590
15272TIP3    H267232   4.534   2.676  14.208  0.3147  0.1689  0.4255
15273TIP3   OH267233   1.890   4.268  16.554  0.6047 -0.1575  0.2462
15273TIP3    H167234   1.812   4.323  16.561 -0.9312 -2.0925 -0.6588
15273TIP3    H267235   1.957   4.316  16.603 -0.6465  2.3963 -0.3581
15274TIP3   OH267236   6.263   6.665  14.077  0.2830 -0.4680 -0.4749
15274TIP3    H167237   6.167   6.654  14.075  0.3851 -1.5101 -0.3053
15274TIP3    H267238   6.290   6.653  13.986  0.3930 -1.8055 -0.2934
15275TIP3   OH267239   5.787   2.896  12.741 -0.2496  0.0653 -0.1701
15275TIP3    H167240   5.786   2.845  12.822 -1.1554 -0.6815 -0.6267
15275TIP3    H267241   5.766   2.985  12.768  0.4813  0.0363  0.5336
15276TIP3   OH267242   5.619   1.555   1.392  0.7873  0.1135 -0.6000
15276TIP3    H167243   5.586   1.623   1.451  0.1250 -1.6599  1.1709
15276TIP3    H267244   5.712   1.549   1.410  0.6570 -0.1492 -0.0111
15277TIP3   OH267245   1.404   0.108   5.492  0.3213 -0.1820 -0.1020
15277TIP3    H167246   1.408   0.152   5.577 -0.0515  0.0003 -0.1796
15277TIP3    H267247   1.334   0.153   5.445 -0.8166 -1.5391  0.2181
15278TIP3   OH267248   3.563   3.853   5.510 -0.9640 -0.0959 -0.0298
15278TIP3    H167249   3.539   3.765   5.480 -2.0447  0.1802 -0.0222
15278TIP3    H267250   3.507   3.868   5.586 -0.4537  0.4245  0.2517
15279TIP3   OH267251   5.856   4.945   4.886  0.0689  0.0044  0.2123
15279TIP3    H167252   5.841   4.945   4.981 -1.0291 -1.4795  0.0639
15279TIP3    H267253   5.918   4.873   4.872 -0.6498 -0.5216 -0.3073
15280TIP3   OH267254   4.169   2.909   1.557  0.4908  0.3907  0.6352
15280TIP3    H167255   4.217   2.910   1.474 -0.7665 -1.4440 -0.1784
15280TIP3    H267256   4.100   2.974   1.545 -1.3782 -1.7171 -0.9237
15281TIP3   OH267257   5.419   5.948  15.500  0.0292  0.1759 -0.1845
15281TIP3    H167258   5.377   5.936  15.415  1.2569 -1.8414 -0.5626
15281TIP3    H267259   5.511   5.967  15.480 -0.1385  2.2784  0.6930
15282TIP3   OH267260   4.006   2.564   3.951  0.3919 -0.2081  0.0774
15282TIP3    H167261   3.987   2.597   3.863 -0.8676  0.6848  0.6720
15282TIP3    H267262   4.099   2.539   3.947  0.6850  0.9635 -1.1459
15283TIP3   OH267263   3.551   2.160   6.424  0.6539  0.7868  0.2791
15283TIP3    H167264   3.534   2.159   6.518 -1.5618 -1.0789 -0.0287
15283TIP3    H267265   3.607   2.084   6.408  2.1621  1.8723  0.2013
15284TIP3   OH267266   4.375   5.071  13.282 -0.3422  0.1935  0.5452
15284TIP3    H167267   4.289   5.029  13.289 -0.2804  0.1428  0.9913
15284TIP3    H267268   4.394   5.070  13.188 -0.9635  0.4801  0.4122
15285TIP3   OH267269   6.346   0.308   5.982  0.2042 -0.1270 -0.0953
15285TIP3    H167270   6.398   0.353   6.049 -1.8300 -0.5906  1.9364
15285TIP3    H267271   6.353   0.215   6.005 -0.7115 -0.2720 -0.3584
15286TIP3   OH267272   3.618   2.346   4.581 -0.9349  0.0081 -0.0020
15286TIP3    H167273   3.557   2.406   4.538  0.4628  1.5016  0.0044
15286TIP3    H267274   3.677   2.319   4.511 -1.3523 -1.1136  0.0699
15287TIP3   OH267275   2.262   6.438  11.869  0.2482  0.2671 -0.2310
15287TIP3    H167276   2.200   6.429  11.797 -0.0110 -0.6351  0.0907
15287TIP3    H267277   2.215   6.488  11.936  0.1593  0.2829 -0.3053
15288TIP3   OH267278   5.630   4.024  16.523  0.6668 -0.1680  0.1876
15288TIP3    H167279   5.687   3.953  16.495  1.1927 -0.2827  1.4466
15288TIP3    H267280   5.668   4.053  16.606 -0.0349  1.0108  0.1184
15289TIP3   OH267281   4.632   1.830  16.867  0.5820  0.5016  0.2022
15289TIP3    H167282   4.650   1.796  16.955 -0.1478 -1.5266 -0.3642
15289TIP3    H267283   4.675   1.767  16.808 -2.0858 -0.3489 -0.9559
15290TIP3   OH267284   1.865   6.275  13.342  0.2613  0.0556  0.3239
15290TIP3    H167285   1.938   6.336  13.331  0.1740  0.2293  0.7067
15290TIP3    H267286   1.903   6.198  13.384  0.0572  0.5043  1.3565
15291TIP3   OH267287   5.298   0.222  12.441  0.4670  0.8096  0.2201
15291TIP3    H167288   5.214   0.263  12.460  1.4968  3.4415 -0.5657
15291TIP3    H267289   5.310   0.159  12.513 -3.1658 -1.4323 -0.8841
15292TIP3   OH267290   5.061   0.119  10.608  0.0291  0.4582 -0.0410
15292TIP3    H167291   5.097   0.130  10.519 -1.7902 -1.6211 -1.1390
15292TIP3    H267292   5.102   0.189  10.659  1.3976  1.5413 -2.4269
15293TIP3   OH267293   3.219   3.557   1.490 -0.0270 -0.0259  0.5612
15293TIP3    H167294   3.241   3.467   1.464  0.2618 -0.0432  0.8579
15293TIP3    H267295   3.125   3.563   1.478 -0.0726 -0.4277  0.7102
15294TIP3   OH267296   6.109   0.045   0.276  0.5813  0.3328 -0.6574
15294TIP3    H167297   6.021   0.021   0.247  0.4466 -0.8583  0.6568
15294TIP3    H267298   6.114   0.139   0.259 -0.5762  0.2494 -1.6530
15295TIP3   OH267299   0.365   6.464   4.549 -0.0907 -0.1136 -0.1089
15295TIP3    H167300   0.409   6.496   4.470 -0.9480 -1.3519 -1.1433
15295TIP3    H267301   0.426   6.482   4.620  0.8542  0.7397 -1.1019
15296TIP3   OH267302   3.562   2.057  15.737 -0.6501 -0.3832 -0.6761
15296TIP3    H167303   3.537   2.134  15.789  2.2957 -0.9347  1.8604
15296TIP3    H267304   3.577   2.091  15.649  1.2810  2.2045  0.5158
15297TIP3   OH267305   2.660   5.620   4.062 -0.2448 -0.2371 -0.3204
15297TIP3    H167306   2.686   5.548   4.120  0.0098 -0.1992 -0.3848
15297TIP3    H267307   2.671   5.699   4.116  1.2476 -0.0780 -0.8063
15298TIP3   OH267308   1.766   4.321  14.172 -0.1429 -0.5192 -0.3281
15298TIP3    H167309   1.732   4.375  14.243  1.4797  1.8984 -1.2537
15298TIP3    H267310   1.782   4.236  14.212  1.6459  0.9963  2.5511
15299TIP3   OH267311   6.652   4.184   1.877  0.3580 -0.6426  0.4347
15299TIP3    H167312   6.638   4.274   1.904  0.1585 -1.0856  1.9348
15299TIP3    H267313   6.729   4.186   1.821  0.4595  0.4310  0.6054
15300TIP3   OH267314   2.489   1.696  12.568 -0.2747 -0.1290 -0.0703
15300TIP3    H167315   2.523   1.776  12.527  0.7153  0.0958  1.1196
15300TIP3    H267316   2.532   1.625  12.520  1.0557  0.1354  0.6793
15301TIP3   OH267317   2.010   1.086   3.130 -0.2137 -0.3022  0.1792
15301TIP3    H167318   1.938   1.044   3.177 -0.8077 -0.8551 -1.1478
15301TIP3    H267319   1.989   1.071   3.037  1.1160  0.3704 -0.2529
15302TIP3   OH267320   6.543   4.547   2.937 -0.3294 -0.1293  0.2886
15302TIP3    H167321   6.497   4.558   3.020 -1.0663  1.2839 -0.2837
15302TIP3    H267322   6.564   4.453   2.934 -2.6498 -0.7306  0.8505
15303TIP3   OH267323   5.900   6.395   0.240 -0.1779  0.0003  0.7615
15303TIP3    H167324   5.847   6.426   0.313 -0.1498  1.8750  0.0412
15303TIP3    H267325   5.887   6.460   0.171  0.0591 -1.5313 -0.8068
15304TIP3   OH267326   4.341   3.428   3.604  0.2801 -0.1870  0.5578
15304TIP3    H167327   4.397   3.505   3.599 -1.0179  0.9044  2.1073
15304TIP3    H267328   4.265   3.450   3.550 -0.2300 -0.2488  1.2430
15305TIP3   OH267329   1.956   5.309   4.544 -0.3722 -0.2719  0.4574
15305TIP3    H167330   1.966   5.366   4.620 -1.2866 -0.6120  0.8447
15305TIP3    H267331   1.881   5.253   4.565 -2.3329  1.3501 -1.7389
15306TIP3   OH267332   2.097   3.609   6.514  1.0540  0.7934  0.9663
15306TIP3    H167333   2.029   3.566   6.565 -0.8792  1.1552 -1.1197
15306TIP3    H267334   2.065   3.698   6.500  2.7541  1.4987  1.2781
15307TIP3   OH267335   2.595   4.808  15.463  0.5585  0.0231  0.0304
15307TIP3    H167336   2.550   4.853  15.391  0.2210 -0.0296  0.2030
15307TIP3    H267337   2.677   4.855  15.473  0.8518 -0.3047 -0.7458
15308TIP3   OH267338   1.683   6.041  11.328 -0.1933  0.6179 -0.1071
15308TIP3    H167339   1.683   6.037  11.424  0.9376 -0.7108 -0.1236
15308TIP3    H267340   1.773   6.062  11.305 -0.6477  1.8450 -0.8903
15309TIP3   OH267341   2.632   2.277  15.413 -0.1853  0.1779  0.1349
15309TIP3    H167342   2.636   2.365  15.449  0.7853  0.5321 -0.8062
15309TIP3    H267343   2.540   2.252  15.423 -0.3406  1.0394  0.9891
15310TIP3   OH267344   4.448   4.243  12.933  0.0126 -0.1530 -0.4005
15310TIP3    H167345   4.496   4.163  12.910  0.8619  0.7096 -1.7487
15310TIP3    H267346   4.485   4.311  12.877 -0.9684  1.1254  0.4274
15311TIP3   OH267347   5.987   1.164  13.404 -0.6061  0.3854  0.5460
15311TIP3    H167348   5.898   1.166  13.368 -0.7979 -0.0081  0.9847
15311TIP3    H267349   6.014   1.073  13.397 -0.1809  0.5293  0.2900
15312TIP3   OH267350   5.322   0.433  15.627  0.2652 -0.1654  0.1615
15312TIP3    H167351   5.266   0.453  15.702 -1.0535 -1.2400 -0.5032
15312TIP3    H267352   5.314   0.510  15.570 -0.3523 -0.2127  0.1826
15313TIP3   OH267353   0.690   4.264  13.427 -0.3711  0.3166  0.1600
15313TIP3    H167354   0.770   4.237  13.473 -0.7263  0.1908  0.7094
15313TIP3    H267355   0.718   4.335  13.370 -0.2755  1.8256  1.9994
15314TIP3   OH267356   1.506   5.894  12.645 -0.1060 -0.1437 -0.0635
15314TIP3    H167357   1.488   5.977  12.688  0.4752  0.1574 -0.3851
15314TIP3    H267358   1.420   5.854  12.632 -0.2721 -0.4496  1.7516
15315TIP3   OH267359   1.509   0.211  12.661  0.3542  0.1628 -0.1056
15315TIP3    H167360   1.499   0.304  12.642  1.2789  0.2508 -0.2079
15315TIP3    H267361   1.574   0.180  12.598 -0.4175 -0.6961 -0.4992
15316TIP3   OH267362   1.454   3.759  13.474  0.0984 -0.6102  0.2869
15316TIP3    H167363   1.447   3.713  13.558  2.2844 -1.3299  0.1514
15316TIP3    H267364   1.461   3.851  13.497 -2.7891 -0.4063  0.6521
15317TIP3   OH267365   0.959   5.162   6.552  0.3198  0.4026  0.2433
15317TIP3    H167366   1.025   5.210   6.602  0.4096  0.2238  0.2965
15317TIP3    H267367   0.961   5.203   6.465 -0.3449  1.1981  0.5820
15318TIP3   OH267368   6.134   1.045  15.843 -0.4819 -0.1723  0.1348
15318TIP3    H167369   6.118   1.092  15.761 -2.3335 -1.0707 -0.0739
15318TIP3    H267370   6.068   0.976  15.844  0.4935 -1.1448  1.6720
15319TIP3   OH267371   4.002   4.508  13.293  0.2031  0.1379  0.2032
15319TIP3    H167372   3.960   4.450  13.357  1.0762  0.2376  0.8735
15319TIP3    H267373   4.036   4.449  13.226 -0.7387  0.0354 -0.2087
15320TIP3   OH267374   0.505   0.574  12.069  0.5178 -0.1636 -0.3435
15320TIP3    H167375   0.566   0.549  12.138  1.6325 -0.4673 -1.3983
15320TIP3    H267376   0.468   0.491  12.037 -0.3741  0.0078  0.1935
15321TIP3   OH267377   5.786   5.330   2.748 -0.0480  0.3326 -0.2379
15321TIP3    H167378   5.705   5.279   2.737 -0.5219  0.6061  1.6844
15321TIP3    H267379   5.792   5.383   2.668 -1.5252 -0.0085 -0.6036
15322TIP3   OH267380   6.144   2.921   0.639  0.1202  0.2835 -0.0520
15322TIP3    H167381   6.151   3.005   0.684  1.6160 -0.4843  1.2247
15322TIP3    H267382   6.223   2.873   0.664 -0.7519 -1.5607 -0.6460
15323TIP3   OH267383   2.271   2.043  13.953 -0.2752 -0.4634  0.2452
15323TIP3    H167384   2.315   2.119  13.914 -0.4014  0.0719  1.1006
15323TIP3    H267385   2.324   2.023  14.031 -0.7150 -0.7296  0.4767
15324TIP3   OH267386   4.494   1.632   5.030 -0.4567 -0.0441  0.0280
15324TIP3    H167387   4.410   1.651   5.073 -0.2756  0.3078  0.2259
15324TIP3    H267388   4.512   1.710   4.978 -0.5537 -0.3709 -0.5042
15325TIP3   OH267389   2.236   3.439   2.559 -0.3148  0.6019 -0.0387
15325TIP3    H167390   2.316   3.395   2.533 -0.4602  1.0294 -1.2871
15325TIP3    H267391   2.256   3.532   2.552 -1.0235  0.7161 -0.7660
15326TIP3   OH267392   6.268   3.773   0.562  0.1711  0.8932  0.5879
15326TIP3    H167393   6.245   3.681   0.548  2.3972  0.1228  1.4143
15326TIP3    H267394   6.335   3.770   0.631  1.5976  2.9454 -0.5925
15327TIP3   OH267395   4.823   5.803  11.387 -0.5636  0.0582 -0.0566
15327TIP3    H167396   4.898   5.766  11.341 -0.2384 -1.6093  1.6791
15327TIP3    H267397   4.860   5.872  11.442 -0.6357  0.6278 -0.7127
15328TIP3   OH267398   4.297   6.267   1.130  1.0100  0.1961 -0.1314
15328TIP3    H167399   4.202   6.254   1.123  0.8049  1.6813 -0.4285
15328TIP3    H267400   4.326   6.196   1.188 -0.1123 -0.8794 -0.8193
15329TIP3   OH267401   1.545   2.045   3.132  0.0865 -0.1742  0.3194
15329TIP3    H167402   1.460   2.036   3.175 -0.7561 -0.8367 -1.3643
15329TIP3    H267403   1.527   2.103   3.057  0.9487 -0.9179 -0.4824
15330TIP3   OH267404   5.765   4.509   4.492 -0.3162 -0.2579  0.7399
15330TIP3    H167405   5.793   4.419   4.475 -0.8337 -0.3512  0.3546
15330TIP3    H267406   5.846   4.557   4.508  0.0333 -0.6119  0.0581
15331TIP3   OH267407   5.619   4.751   4.007  0.4491  0.4780 -0.0615
15331TIP3    H167408   5.606   4.837   4.047  0.6866  0.4389  0.1028
15331TIP3    H267409   5.677   4.705   4.068  0.1256  0.1122 -0.0248
15332TIP3   OH267410   5.286   1.659   5.018  0.3402  0.1915 -0.4513
15332TIP3    H167411   5.292   1.605   4.940 -2.1732  1.2639 -1.4908
15332TIP3    H267412   5.291   1.749   4.986 -1.2912  0.6696  0.5130
15333TIP3   OH267413   5.380   1.639   2.059 -0.0124 -0.5002 -0.3565
15333TIP3    H167414   5.414   1.706   1.999 -0.2201 -2.6013 -2.9888
15333TIP3    H267415   5.455   1.582   2.076 -0.5024 -1.1763 -0.4277
15334TIP3   OH267416   5.773   2.395  12.015 -0.3329 -0.4293 -0.7054
15334TIP3    H167417   5.833   2.388  12.089 -0.1857  0.1745 -0.7565
15334TIP3    H267418   5.720   2.473  12.036  0.1818  0.1651 -1.5740
15335TIP3   OH267419   3.968   3.137   3.234  0.2369  0.3453  0.5726
15335TIP3    H167420   3.977   3.080   3.158 -1.4446  2.6466 -1.5072
15335TIP3    H267421   3.910   3.089   3.294 -0.6241 -0.3955 -0.8181
15336TIP3   OH267422   1.534   1.711   2.768 -0.1511  0.1120  0.0468
15336TIP3    H167423   1.474   1.640   2.746 -1.9899  1.6100  0.0393
15336TIP3    H267424   1.517   1.779   2.703 -0.2863  1.5904  1.5584
15337TIP3   OH267425   6.597   0.400  13.254  0.2264 -0.1464 -0.0916
15337TIP3    H167426   6.576   0.388  13.347  0.5490 -0.1533 -0.0166
15337TIP3    H267427   6.656   0.475  13.253 -0.5225  0.4445 -0.3904
15338TIP3   OH267428   6.022   0.725   1.859  0.0754  0.4157 -0.7463
15338TIP3    H167429   5.965   0.649   1.872  1.8588 -1.0005 -0.8190
15338TIP3    H267430   6.094   0.693   1.805  0.5935  2.3277 -1.2709
15339TIP3   OH267431   6.709   0.010  12.388 -0.0912 -0.3519  0.4147
15339TIP3    H167432   6.635   0.070  12.383  0.4878  0.4862  1.4979
15339TIP3    H267433   6.780   0.062  12.425  0.9876 -1.1991 -0.3935
15340TIP3   OH267434   1.020   6.393   4.971 -0.1899  0.3225  0.1185
15340TIP3    H167435   1.078   6.457   4.928  0.0093  0.3268  0.3912
15340TIP3    H267436   1.060   6.308   4.953 -0.9182  0.1929 -0.9748
15341TIP3   OH267437   3.387   5.173   3.536 -0.1315 -0.0786 -0.1978
15341TIP3    H167438   3.460   5.166   3.597  0.6748 -1.3696 -1.2410
15341TIP3    H267439   3.324   5.106   3.565 -0.7538  0.7719  0.4708
15342TIP3   OH267440   0.207   4.129   1.526 -0.0759  0.5953  0.1511
15342TIP3    H167441   0.136   4.099   1.469  0.5754  0.2763 -0.5129
15342TIP3    H267442   0.260   4.050   1.541 -0.8826  0.3799  2.2003
15343TIP3   OH267443   2.033   0.961  13.295 -0.3262 -0.4202  0.2682
15343TIP3    H167444   2.110   0.916  13.330  0.9965  0.7618 -0.9754
15343TIP3    H267445   1.995   1.005  13.371 -0.4395 -1.9022  1.1047
15344TIP3   OH267446   3.528   6.582   1.254  0.0644  0.1938 -0.0249
15344TIP3    H167447   3.600   6.522   1.267 -0.7084 -0.6233  0.6079
15344TIP3    H267448   3.464   6.533   1.203 -0.2786  0.7099 -0.1054
15345TIP3   OH267449   2.561   1.159  15.875 -0.3628 -0.0003 -0.1473
15345TIP3    H167450   2.470   1.142  15.849 -0.3046 -0.8959  0.2029
15345TIP3    H267451   2.597   1.072  15.895  0.6884  0.3043 -0.6464
15346TIP3   OH267452   3.052   5.085  17.155  0.3468 -0.2840 -0.0971
15346TIP3    H167453   2.992   5.141  17.205  0.2226 -1.7470  1.4674
15346TIP3    H267454   3.134   5.087  17.204  2.2728  2.9205 -2.9936
15347TIP3   OH267455   1.437   4.936   0.752 -0.4026  0.0460  0.2048
15347TIP3    H167456   1.376   4.990   0.802 -0.8435  1.7766 -1.9960
15347TIP3    H267457   1.382   4.867   0.713 -0.4576 -0.0166  0.3953
15348TIP3   OH267458   2.954   1.564   2.954  0.4172  0.4505 -0.4049
15348TIP3    H167459   2.866   1.528   2.969  0.6885 -0.2530 -0.4788
15348TIP3    H267460   2.954   1.647   3.003  0.3334 -0.4347  1.1643
15349TIP3   OH267461   5.177   1.076   3.417  0.1576 -0.0034 -0.3960
15349TIP3    H167462   5.214   1.153   3.374  1.7340  0.6842  1.9974
15349TIP3    H267463   5.238   1.006   3.396 -1.1832 -0.6299 -2.4282
15350TIP3   OH267464   2.196   3.535   4.215  0.5237  0.5036  0.3289
15350TIP3    H167465   2.186   3.445   4.244 -0.3922  0.1662 -0.9046
15350TIP3    H267466   2.109   3.574   4.227  0.2394  0.4817 -1.4077
15351TIP3   OH267467   0.621   5.957   2.730  0.0163  0.7498 -0.3518
15351TIP3    H167468   0.648   5.938   2.820 -0.1777  0.3753 -0.3682
15351TIP3    H267469   0.580   6.043   2.735  2.2128  1.8622 -0.5378
15352TIP3   OH267470   3.597   0.407   1.780 -0.9914  0.1457  0.0601
15352TIP3    H167471   3.561   0.496   1.778 -1.1218  0.1144 -2.2001
15352TIP3    H267472   3.691   0.419   1.769 -1.1624  0.0224 -2.0153
15353TIP3   OH267473   0.628   4.335   0.147  0.0165 -0.4777 -0.2556
15353TIP3    H167474   0.694   4.285   0.196  1.0372  1.6458  0.6642
15353TIP3    H267475   0.545   4.313   0.189  0.8341  1.1124  2.4437
15354TIP3   OH267476   3.599   4.284   3.108  0.5968 -0.6197 -0.0899
15354TIP3    H167477   3.597   4.319   3.019 -0.1453  0.5618  0.3697
15354TIP3    H267478   3.533   4.214   3.108  0.1780 -0.2324 -0.3258
15355TIP3   OH267479   6.740   6.052  16.003 -0.2351  0.5189  0.2998
15355TIP3    H167480   6.778   5.970  15.971 -0.9300  0.5910 -0.7613
15355TIP3    H267481   6.806   6.118  15.984 -0.8574  0.6554 -1.5962
15356TIP3   OH267482   5.247   2.787   2.041 -0.6177  0.3437  0.4842
15356TIP3    H167483   5.342   2.778   2.039 -0.4636  1.5933  0.9243
15356TIP3    H267484   5.222   2.754   2.127 -0.6930 -0.7489  0.0591
15357TIP3   OH267485   2.068   1.403   1.651 -0.4732 -0.0018  0.4756
15357TIP3    H167486   2.080   1.413   1.746 -0.5380 -1.2062  0.6292
15357TIP3    H267487   2.012   1.326   1.642 -2.8346  1.7061 -0.4745
15358TIP3   OH267488   1.226   0.736  16.526 -0.5155 -0.6226  0.3459
15358TIP3    H167489   1.256   0.805  16.467 -1.4626  0.3441  0.9543
15358TIP3    H267490   1.305   0.688  16.549  0.5782  1.6683  1.6987
15359TIP3   OH267491   4.954   3.305  13.919  0.3610  0.3000 -0.1448
15359TIP3    H167492   4.984   3.361  13.991 -0.2457  0.0361  0.3313
15359TIP3    H267493   5.032   3.259  13.889  0.7992  1.1406 -0.3059
15360TIP3   OH267494   6.563   1.375   5.033  0.1048 -0.3996 -0.0193
15360TIP3    H167495   6.592   1.284   5.023 -1.9769 -1.3803  1.9693
15360TIP3    H267496   6.612   1.407   5.109  1.1815  0.3547 -0.9933
15361TIP3   OH267497   2.544   0.022  13.489 -0.7802 -0.2767 -0.2954
15361TIP3    H167498   2.497  -0.060  13.470 -2.3188  0.8055 -1.3608
15361TIP3    H267499   2.623   0.018  13.435 -0.5993 -1.2504  0.0200
15362TIP3   OH267500   4.533   0.968  12.144  0.0909  0.8523 -0.4280
15362TIP3    H167501   4.528   1.055  12.105 -1.6329  1.0676  0.1993
15362TIP3    H267502   4.462   0.919  12.104  2.0357 -0.8712 -2.0250
15363TIP3   OH267503   0.375   4.089  15.185 -0.6819  0.6042 -0.0210
15363TIP3    H167504   0.424   4.008  15.186 -2.7766 -0.7827  2.1449
15363TIP3    H267505   0.401   4.134  15.265 -1.7215  0.5913  0.3399
15364TIP3   OH267506   2.438   5.575  15.175 -0.2912 -0.1844  0.2811
15364TIP3    H167507   2.471   5.657  15.213 -0.4777  0.1616 -0.2864
15364TIP3    H267508   2.361   5.554  15.228  0.8214 -1.0190  1.6415
15365TIP3   OH267509   1.600   4.106  13.824 -0.1781  0.3513 -0.0786
15365TIP3    H167510   1.634   4.016  13.817  0.2177  0.2560  2.2165
15365TIP3    H267511   1.648   4.155  13.758  0.5592 -0.8614 -0.4864
15366TIP3   OH267512   0.235   5.557   0.224 -0.1406 -0.2008 -0.1073
15366TIP3    H167513   0.224   5.499   0.149 -2.4750 -0.3714  0.2751
15366TIP3    H267514   0.245   5.498   0.299 -0.4145 -0.0749  0.0284
15367TIP3   OH267515   5.723   4.457   5.831 -0.0301 -0.0039  0.0099
15367TIP3    H167516   5.636   4.419   5.818  0.7304 -1.1826 -2.2001
15367TIP3    H267517   5.782   4.395   5.789  1.9093  0.7337  1.5415
15368TIP3   OH267518   2.684   4.100  12.598  0.5842 -0.3916 -0.5684
15368TIP3    H167519   2.731   4.022  12.568 -0.5324 -0.2137 -3.0512
15368TIP3    H267520   2.609   4.067  12.646  1.9667 -0.7105  1.5060
15369TIP3   OH267521   5.439   1.217  15.314  0.1436  0.6017  0.4141
15369TIP3    H167522   5.361   1.193  15.263  0.4557 -0.9598  0.6109
15369TIP3    H267523   5.411   1.291  15.367 -1.1954  0.1427  0.4008
15370TIP3   OH267524   4.858   2.896   5.309 -0.5500  0.5050 -0.4412
15370TIP3    H167525   4.915   2.851   5.372 -0.0667 -0.5822 -1.5952
15370TIP3    H267526   4.791   2.831   5.287 -2.3697  1.7920  0.9652
15371TIP3   OH267527   2.450   3.091   4.269 -0.5884  0.3617  0.0025
15371TIP3    H167528   2.505   3.120   4.341  0.1408  0.6196 -0.6363
15371TIP3    H267529   2.454   2.995   4.273  0.8382  0.3604 -0.6909
15372TIP3   OH267530   6.020   2.337  13.698 -0.3659  0.0882  0.2824
15372TIP3    H167531   6.107   2.370  13.722  0.0109  0.4264 -1.3963
15372TIP3    H267532   5.977   2.320  13.782  0.3427  2.4537  1.2234
15373TIP3   OH267533   1.150   1.529  14.201 -0.3717 -0.0662 -0.4023
15373TIP3    H167534   1.111   1.561  14.283 -0.7977 -0.6588 -0.3669
15373TIP3    H267535   1.160   1.435  14.214  1.7374  0.1445 -0.1550
15374TIP3   OH267536   3.469   5.178  12.469 -0.4058  0.0422 -0.1029
15374TIP3    H167537   3.517   5.233  12.531 -0.2767  2.9775 -2.5305
15374TIP3    H267538   3.532   5.111  12.442  0.3139  0.2026  1.1077
15375TIP3   OH267539   5.273   2.300   0.883  0.6652  0.1446 -0.2422
15375TIP3    H167540   5.320   2.243   0.943 -0.7023  0.9568  1.7095
15375TIP3    H267541   5.341   2.350   0.838  1.8105 -1.8838 -0.9147
15376TIP3   OH267542   0.926   2.013   4.497 -0.2926 -0.0775  0.0364
15376TIP3    H167543   0.914   2.087   4.558  2.0484  0.1409  0.3093
15376TIP3    H267544   0.960   1.943   4.552 -1.5277 -1.0803 -0.4225
15377TIP3   OH267545   2.602   1.278   0.477  0.0269  0.0236  0.0144
15377TIP3    H167546   2.633   1.188   0.466  0.2851 -0.1866  1.9996
15377TIP3    H267547   2.678   1.333   0.457  1.0304 -0.3905  2.3499
15378TIP3   OH267548   3.949   6.502   4.773 -0.2535 -0.1980 -0.2365
15378TIP3    H167549   3.920   6.449   4.847 -0.4869 -1.1143 -0.9643
15378TIP3    H267550   3.914   6.457   4.696 -0.3035  0.9171 -0.8953
15379TIP3   OH267551   4.886   4.860   3.996  0.7520  0.3570 -0.2227
15379TIP3    H167552   4.869   4.946   4.033 -0.1502 -0.3759  1.1662
15379TIP3    H267553   4.806   4.837   3.949 -0.2940 -0.9904  2.0627
15380TIP3   OH267554   0.337   1.611   4.270  1.2102 -0.3575  0.6777
15380TIP3    H167555   0.401   1.642   4.206  0.0369 -1.6701 -1.2062
15380TIP3    H267556   0.284   1.688   4.290  2.8034  0.5462  1.6613
15381TIP3   OH267557   6.040   4.146  11.657  0.8998 -0.3398  0.5843
15381TIP3    H167558   5.984   4.110  11.589  0.3495  0.7800  0.4223
15381TIP3    H267559   6.105   4.077  11.674  0.7102 -0.8482 -0.6625
15382TIP3   OH267560   0.620   1.201   5.984 -0.3008  0.5348 -0.4700
15382TIP3    H167561   0.551   1.210   6.050 -0.0968  1.4331 -0.3601
15382TIP3    H267562   0.699   1.182   6.035 -0.1166  1.3615 -0.4230
15383TIP3   OH267563   6.638   5.333   1.545 -0.3549  0.1210 -0.3836
15383TIP3    H167564   6.571   5.265   1.547 -0.4442  0.2168  1.1938
15383TIP3    H267565   6.711   5.294   1.498  0.1526 -1.6481  1.7265
15384TIP3   OH267566   5.761   0.487   3.412 -0.4637  0.0899 -0.3781
15384TIP3    H167567   5.796   0.448   3.332 -1.6723 -1.9400  0.0108
15384TIP3    H267568   5.669   0.507   3.391 -0.4429  0.7562  0.1155
15385TIP3   OH267569   1.223   2.409  15.203 -0.4863  0.2394  0.4727
15385TIP3    H167570   1.278   2.363  15.267 -1.0245 -1.2349 -0.0914
15385TIP3    H267571   1.273   2.405  15.121 -0.1454  1.4598  0.5956
15386TIP3   OH267572   5.127   1.365  16.161 -0.3414  0.5325 -0.5627
15386TIP3    H167573   5.136   1.349  16.255  1.9318 -0.0598 -0.8141
15386TIP3    H267574   5.214   1.394  16.133 -1.4381  2.5971 -2.1767
15387TIP3   OH267575   3.562   5.748  16.304 -0.0918 -0.1099  0.0204
15387TIP3    H167576   3.539   5.839  16.324 -1.1189 -0.3347 -0.0591
15387TIP3    H267577   3.595   5.712  16.386  0.8378  0.4872 -0.0897
15388TIP3   OH267578   4.073   1.635   1.922  0.6277 -0.2967 -0.4332
15388TIP3    H167579   4.116   1.691   1.858  1.4782  1.5378  1.5930
15388TIP3    H267580   4.126   1.645   2.001 -1.6147 -0.6459  1.2073
15389TIP3   OH267581   4.544   1.961  16.139 -0.1694 -0.1907  0.0899
15389TIP3    H167582   4.569   1.870  16.124 -1.4171 -0.2164 -2.4501
15389TIP3    H267583   4.480   1.957  16.210 -0.8854 -1.4373 -0.5850
15390TIP3   OH267584   0.428   1.487   2.305  0.1766  0.1225 -0.5149
15390TIP3    H167585   0.484   1.436   2.364 -0.9583 -0.5489  0.0142
15390TIP3    H267586   0.436   1.442   2.221  0.2477 -0.1086 -0.3868
15391TIP3   OH267587   2.846   2.221   3.364 -0.5597 -0.5033  0.4377
15391TIP3    H167588   2.760   2.200   3.402 -0.3808  0.2788  1.3219
15391TIP3    H267589   2.834   2.308   3.325 -0.7019 -1.2331 -1.2344
15392TIP3   OH267590   1.357   6.010   0.374  0.4486  0.8669  0.1792
15392TIP3    H167591   1.410   5.940   0.336 -0.9342 -0.4474  0.5793
15392TIP3    H267592   1.369   6.084   0.315 -0.6254 -0.7010 -2.1578
15393TIP3   OH267593   2.628   0.854   4.018  0.0136  0.3191 -0.3124
15393TIP3    H167594   2.637   0.767   3.980  2.4243  0.2378  0.2455
15393TIP3    H267595   2.679   0.850   4.100 -1.0574  1.8318  0.4911
15394TIP3   OH267596   5.703   4.819  14.941  0.2624 -0.6478 -0.3152
15394TIP3    H167597   5.687   4.865  15.022 -0.3034 -3.3732  1.2547
15394TIP3    H267598   5.640   4.855  14.879 -1.1432 -0.3485  1.2313
15395TIP3   OH267599   5.051   5.678   0.689 -0.1877 -0.4685 -0.0821
15395TIP3    H167600   4.956   5.687   0.690 -0.2476 -1.0298 -0.5518
15395TIP3    H267601   5.067   5.586   0.710  0.2859 -0.1760  0.9112
15396TIP3   OH267602   2.605   1.054  13.160 -0.1055 -0.2506  0.0364
15396TIP3    H167603   2.578   1.022  13.246  0.7630 -0.1762  0.3530
15396TIP3    H267604   2.525   1.087  13.120 -0.5110 -0.2334  0.8416
15397TIP3   OH267605   0.609   0.751  14.507  0.7704  0.2783  0.2136
15397TIP3    H167606   0.681   0.749  14.445 -0.0014 -0.5523 -0.6934
15397TIP3    H267607   0.530   0.750  14.453  0.0771  0.1485  1.1892
15398TIP3   OH267608   0.236   5.627  13.227 -0.3119  0.6564 -0.1569
15398TIP3    H167609   0.167   5.647  13.164 -0.5265 -0.4145 -0.2778
15398TIP3    H267610   0.250   5.710  13.274 -0.1317  1.4850 -1.6062
15399TIP3   OH267611   5.891   5.960  13.643  0.2586  0.6511  0.0516
15399TIP3    H167612   5.838   6.036  13.619  1.0238  1.5002  0.9988
15399TIP3    H267613   5.836   5.910  13.703 -0.7688 -0.2847 -1.5838
15400TIP3   OH267614   0.568   5.289  12.438  0.3188  0.4832  0.0096
15400TIP3    H167615   0.661   5.284  12.414  0.1812  1.9880 -1.0257
15400TIP3    H267616   0.523   5.248  12.364  0.0954  1.2284 -0.2749
15401TIP3   OH267617   1.430   5.935   1.043  0.2261 -0.0753  0.1272
15401TIP3    H167618   1.489   5.986   1.099  0.3882  0.0773 -0.1813
15401TIP3    H267619   1.343   5.969   1.062  0.3294  0.2946 -0.0499
15402TIP3   OH267620   5.417   2.622  14.483 -0.3730 -0.2525  0.3363
15402TIP3    H167621   5.403   2.623  14.578 -2.0666  0.3293  0.1310
15402TIP3    H267622   5.383   2.706  14.454 -2.2131 -1.3918 -1.0388
15403TIP3   OH267623   5.046   2.336   4.374  0.2848 -0.6410 -0.5027
15403TIP3    H167624   5.129   2.293   4.393 -0.3104 -2.2323 -1.2117
15403TIP3    H267625   4.986   2.304   4.441 -0.1015 -0.7052 -0.8676
15404TIP3   OH267626   1.962   0.381  13.165  0.3330 -0.1483  0.2015
15404TIP3    H167627   1.956   0.445  13.093 -2.0723 -1.1264 -0.5721
15404TIP3    H267628   1.919   0.423  13.239 -1.7940 -1.0051 -0.4818
15405TIP3   OH267629   1.638   3.125   4.984 -0.3883 -0.0141  0.2982
15405TIP3    H167630   1.723   3.163   5.009 -0.8420  1.7880 -0.7347
15405TIP3    H267631   1.630   3.047   5.039  1.5903  0.1842  0.9595
15406TIP3   OH267632   1.201   3.048   4.987 -0.2294  0.5700 -0.1821
15406TIP3    H167633   1.236   3.133   5.013 -3.6958  2.4167 -0.9926
15406TIP3    H267634   1.145   3.021   5.059 -2.3205  1.0341 -1.5482
15407TIP3   OH267635   0.013   4.328  11.271 -0.5433 -0.3099  0.2944
15407TIP3    H167636  -0.016   4.264  11.205 -0.6426 -0.6982  0.7150
15407TIP3    H267637   0.042   4.403  11.219 -1.1954 -0.3718 -0.1792
15408TIP3   OH267638   1.441   6.251   5.311 -0.1618  0.2377  0.4309
15408TIP3    H167639   1.469   6.332   5.269  0.2372  0.1391  0.5015
15408TIP3    H267640   1.349   6.266   5.333 -0.7635 -0.1875 -1.6127
15409TIP3   OH267641   2.393   3.026  15.818  0.4937 -0.5389 -0.1969
15409TIP3    H167642   2.398   3.119  15.840 -0.6542 -0.4260 -0.3616
15409TIP3    H267643   2.426   2.981  15.896  1.1032  0.0021 -0.1370
15410TIP3   OH267644   1.252   2.096   6.469  0.2130 -0.1282  0.0836
15410TIP3    H167645   1.164   2.130   6.456 -0.1866 -0.0076  2.7152
15410TIP3    H267646   1.304   2.172   6.495  0.7205 -0.5014  0.1765
15411TIP3   OH267647   2.003   5.540   1.774  0.1987 -0.2702  0.2195
15411TIP3    H167648   1.912   5.513   1.765  0.2187 -0.0387 -0.9081
15411TIP3    H267649   2.045   5.471   1.824 -0.6851 -0.1682  1.1264
15412TIP3   OH267650   4.628   1.160  14.036 -0.1085 -0.0914  0.3026
15412TIP3    H167651   4.660   1.078  13.998  0.5041 -0.6080  1.8410
15412TIP3    H267652   4.544   1.175  13.994  0.0840 -1.1465 -0.5046
15413TIP3   OH267653   2.414   5.098   6.021 -0.2039 -0.2371  0.5175
15413TIP3    H167654   2.369   5.078   5.939 -0.6847 -1.4670  1.0603
15413TIP3    H267655   2.381   5.033   6.083  2.2777 -1.1841  0.9630
15414TIP3   OH267656   2.125   0.017  11.652 -0.2856  0.0889  0.1585
15414TIP3    H167657   2.089   0.103  11.677 -0.0852  0.1772  0.1481
15414TIP3    H267658   2.056  -0.023  11.599 -0.0933  0.5456 -0.4537
15415TIP3   OH267659   3.164   1.792  14.073 -0.3712 -0.0588 -0.3057
15415TIP3    H167660   3.148   1.753  14.159  2.6879  1.6231  1.1730
15415TIP3    H267661   3.167   1.717  14.013 -0.3883 -1.5119  1.4150
15416TIP3   OH267662   6.453   6.455   1.781 -0.6923 -0.1771 -0.1301
15416TIP3    H167663   6.504   6.433   1.859  0.4321  0.6368 -0.6028
15416TIP3    H267664   6.362   6.438   1.806 -0.5408  1.6492  1.9296
15417TIP3   OH267665   2.096   3.172   0.667 -0.5658  0.1033 -0.5443
15417TIP3    H167666   2.072   3.095   0.719  1.5075 -0.9201 -0.9649
15417TIP3    H267667   2.138   3.135   0.589  2.0433  1.6059  0.0237
15418TIP3   OH267668   6.017   6.299  11.677 -0.5155  0.5860 -0.3753
15418TIP3    H167669   6.021   6.204  11.665 -0.3775  0.6728 -1.0850
15418TIP3    H267670   6.019   6.312  11.771  1.2188 -0.0407 -0.2991
15419TIP3   OH267671   4.137   3.539   1.608  0.2946 -0.3721 -0.5880
15419TIP3    H167672   4.086   3.522   1.687  0.8269  0.2091 -0.1231
15419TIP3    H267673   4.210   3.477   1.612 -0.2173 -1.0435 -1.1412
15420TIP3   OH267674   3.217   2.970   0.226  0.1137  0.5180 -0.2876
15420TIP3    H167675   3.135   3.014   0.248  0.2752  0.4127  0.5578
15420TIP3    H267676   3.285   3.031   0.255  0.3633  1.2094 -2.1954
15421TIP3   OH267677   3.317   5.126   6.106  0.1300 -0.4113  0.3962
15421TIP3    H167678   3.319   5.200   6.167  0.2125  0.1013 -0.2171
15421TIP3    H267679   3.245   5.072   6.137  0.2429 -0.2152  1.0176
15422TIP3   OH267680   1.016   3.885   0.838 -0.0184  0.4626 -0.3293
15422TIP3    H167681   1.108   3.864   0.821  0.2546 -1.0977  2.4339
15422TIP3    H267682   1.017   3.978   0.862  1.2346  0.0313  1.5443
15423TIP3   OH267683   3.172   6.461  16.825 -0.2014 -0.0531 -0.1171
15423TIP3    H167684   3.174   6.554  16.849  0.5580  0.0307 -0.4866
15423TIP3    H267685   3.103   6.424  16.880 -0.8822  0.8312 -0.3531
15424TIP3   OH267686   1.199   0.131   3.075  0.1751 -0.2850 -0.3811
15424TIP3    H167687   1.225   0.190   3.145 -0.8855 -0.7429  0.4327
15424TIP3    H267688   1.233   0.171   2.995 -1.0839  1.8031  0.0499
15425TIP3   OH267689   6.441   1.023  16.801 -0.3002 -0.0079  0.2419
15425TIP3    H167690   6.405   1.069  16.876 -0.4389 -0.3689  0.3972
15425TIP3    H267691   6.384   1.048  16.728 -0.8039 -0.4916  0.4661
15426TIP3   OH267692   1.447   5.885  15.965 -0.0363 -0.0654  0.5668
15426TIP3    H167693   1.496   5.805  15.947  1.1028  0.3276  1.7427
15426TIP3    H267694   1.514   5.948  15.994 -0.7328  1.6526 -1.2927
15427TIP3   OH267695   3.653   4.823   4.739  0.0708 -0.4824  0.5737
15427TIP3    H167696   3.662   4.833   4.834 -1.2087 -1.6091  0.8476
15427TIP3    H267697   3.599   4.897   4.712 -0.9140 -1.0231  0.9985
15428TIP3   OH267698   3.487   5.862  15.650  0.6395 -0.5521 -0.5963
15428TIP3    H167699   3.533   5.815  15.580  1.5703  0.8243 -0.9468
15428TIP3    H267700   3.510   5.954  15.637 -0.1209 -0.1257  0.8267
15429TIP3   OH267701   2.394   1.203  13.073 -0.1080  0.0531  0.0078
15429TIP3    H167702   2.304   1.197  13.105  0.2257 -1.0265  0.8317
15429TIP3    H267703   2.429   1.281  13.116 -0.8025  0.7990 -0.7555
15430TIP3   OH267704   2.397   3.817  16.389 -0.3159  0.4168  0.1899
15430TIP3    H167705   2.313   3.774  16.404  1.0562 -2.1926  0.8885
15430TIP3    H267706   2.456   3.777  16.452  1.8097  1.1390 -1.2481
15431TIP3   OH267707   1.298   1.003  13.703 -0.0909  0.0133  0.5795
15431TIP3    H167708   1.277   1.004  13.797 -0.7764 -2.5062  0.5364
15431TIP3    H267709   1.338   0.917  13.689 -2.5854 -0.9112 -1.8822
15432TIP3   OH267710   6.203   4.890   5.946 -0.0296 -0.1753 -0.8453
15432TIP3    H167711   6.287   4.884   5.901 -0.0943  0.7110 -1.0962
15432TIP3    H267712   6.181   4.983   5.944  0.0926 -0.0339  1.2595
15433TIP3   OH267713   2.482   1.653   6.316  0.0320  0.3568  0.0584
15433TIP3    H167714   2.549   1.593   6.348  2.2810  2.1750 -0.9022
15433TIP3    H267715   2.432   1.602   6.252  1.3737 -0.7260 -0.1684
15434TIP3   OH267716   2.738   2.777  11.829  0.9622  0.5604  0.2325
15434TIP3    H167717   2.740   2.855  11.774 -1.4437 -0.3007 -1.2193
15434TIP3    H267718   2.759   2.809  11.917  0.0672  2.8484 -0.3200
15435TIP3   OH267719   1.700   4.952   5.608  0.2145  0.1279 -0.0088
15435TIP3    H167720   1.690   4.879   5.668  0.6389  0.6462  0.7102
15435TIP3    H267721   1.783   4.993   5.632  0.9812 -0.3242 -1.7131
15436TIP3   OH267722   4.417   0.686   1.473  0.8606 -0.1079  0.2641
15436TIP3    H167723   4.421   0.773   1.511  0.3727  0.2873 -0.5755
15436TIP3    H267724   4.406   0.701   1.379 -1.1002 -1.0641  0.3006
15437TIP3   OH267725   3.333   1.203  15.206 -0.1678 -0.2592  0.2957
15437TIP3    H167726   3.412   1.155  15.228 -0.4798 -2.8420 -3.3410
15437TIP3    H267727   3.357   1.256  15.130 -1.5147  0.2478  0.1903
15438TIP3   OH267728   0.151   1.003   3.992 -0.3530 -0.1219  0.5831
15438TIP3    H167729   0.131   1.014   3.899  0.0277  2.2812  0.7039
15438TIP3    H267730   0.232   1.054   4.004 -0.7289  0.1016  2.3358
15439TIP3   OH267731   5.174   3.809  14.176  0.3511  0.3661  0.3711
15439TIP3    H167732   5.085   3.796  14.142  0.8073  0.4315 -0.9137
15439TIP3    H267733   5.228   3.822  14.097  2.0042 -2.4206  0.8941
15440TIP3   OH267734   0.554   0.426   5.646  0.0746 -0.4249  0.3870
15440TIP3    H167735   0.521   0.410   5.735 -0.9352  0.5222  0.2090
15440TIP3    H267736   0.476   0.443   5.594  0.7228 -0.0438 -0.4890
15441TIP3   OH267737   2.958   4.576  15.018  0.5956  0.6758  0.2899
15441TIP3    H167738   2.994   4.557  14.932 -0.5853 -1.4414  0.1970
15441TIP3    H267739   3.014   4.528  15.079  0.9651  1.5368  0.6356
15442TIP3   OH267740   1.506   0.262  11.283  0.0516 -0.2600  0.0314
15442TIP3    H167741   1.533   0.334  11.226 -0.4250 -0.1560 -0.0700
15442TIP3    H267742   1.500   0.186  11.225 -0.5836 -0.1208 -0.0990
15443TIP3   OH267743   1.695   6.339  11.450  0.3568 -0.5815  0.2778
15443TIP3    H167744   1.619   6.285  11.430  0.9245 -1.5957  0.7758
15443TIP3    H267745   1.659   6.426  11.466 -0.8230 -1.2694  1.5244
15444TIP3   OH267746   4.952   1.857   3.235 -0.7474 -0.0609 -0.4259
15444TIP3    H167747   4.903   1.885   3.312 -1.0060 -0.0607 -0.5884
15444TIP3    H267748   4.988   1.938   3.198  0.1318 -0.1481  0.1936
15445TIP3   OH267749   2.354   0.252  16.099 -0.2485  0.2211  0.1837
15445TIP3    H167750   2.289   0.318  16.125 -1.3462 -1.5887  2.4482
15445TIP3    H267751   2.375   0.206  16.181  1.8247 -1.0647 -0.9865
15446TIP3   OH267752   1.949   5.545  15.758  0.4267  0.4879 -1.1030
15446TIP3    H167753   1.920   5.558  15.848  0.6836  1.1328 -1.1101
15446TIP3    H267754   1.898   5.470  15.727 -0.1586  0.6888 -0.6467
15447TIP3   OH267755   2.232   1.865  15.370  0.0421 -0.3529  0.0834
15447TIP3    H167756   2.191   1.937  15.418 -1.5439 -0.8181 -0.5079
15447TIP3    H267757   2.325   1.887  15.370 -0.3438  1.4877  0.2811
15448TIP3   OH267758   3.801   5.422   3.192 -0.1246  0.8372  0.4206
15448TIP3    H167759   3.721   5.413   3.245  0.1096  1.0126  0.8070
15448TIP3    H267760   3.870   5.437   3.256  0.6349 -1.6429  0.2990
15449TIP3   OH267761   6.525   1.987  12.413 -0.5730 -0.2199  0.2155
15449TIP3    H167762   6.545   1.902  12.453  1.8840 -0.5880 -1.5217
15449TIP3    H267763   6.554   2.051  12.478  2.8119 -0.8035 -0.5183
15450TIP3   OH267764   4.441   2.784   0.263 -0.2618 -0.4357 -0.2032
15450TIP3    H167765   4.501   2.737   0.321  0.3676  0.9038  0.2702
15450TIP3    H267766   4.379   2.717   0.234  0.4045 -1.4848  0.6999
15451TIP3   OH267767   6.304   4.342   3.169 -0.2656  0.2866  0.0445
15451TIP3    H167768   6.348   4.427   3.164 -0.2957  0.2509 -1.1749
15451TIP3    H267769   6.375   4.279   3.185  0.1316  0.2692 -1.5734
15452TIP3   OH267770   4.827   2.235   3.069  0.5109 -0.4651 -0.0390
15452TIP3    H167771   4.885   2.310   3.084  2.1758 -1.6860 -0.1512
15452TIP3    H267772   4.879   2.159   3.092 -1.1501 -1.6157  0.0623
15453TIP3   OH267773   5.079   5.978   6.212  0.3134  0.2885  0.1181
15453TIP3    H167774   5.056   5.946   6.299 -3.3187  1.3462 -0.2594
15453TIP3    H267775   5.084   6.073   6.222  2.3522  0.2761 -0.4096
15454TIP3   OH267776   2.527   2.851  14.438 -0.5037  0.1003 -0.0936
15454TIP3    H167777   2.535   2.934  14.483 -0.0366 -1.4496  2.9668
15454TIP3    H267778   2.561   2.867  14.350  2.0277  2.5182  1.1989
15455TIP3   OH267779   0.134   0.343  16.746  0.1413 -0.2989 -0.2670
15455TIP3    H167780   0.055   0.390  16.775 -0.1015 -1.1707  0.5212
15455TIP3    H267781   0.193   0.349  16.821  0.7776  0.2108 -0.7982
15456TIP3   OH267782   5.043   0.528   5.129 -0.3352  0.1701 -0.4240
15456TIP3    H167783   5.053   0.623   5.115 -2.6463  0.5705  0.3461
15456TIP3    H267784   5.050   0.517   5.223  0.8158 -0.5835 -0.5823
15457TIP3   OH267785   2.373   2.557   4.925  0.1930  0.2905 -0.3087
15457TIP3    H167786   2.290   2.510   4.915  0.1935  0.1452  0.3514
15457TIP3    H267787   2.347   2.645   4.953  0.2914  0.0281  0.6209
15458TIP3   OH267788   4.370   4.635  12.905  0.4294 -0.1211  0.6459
15458TIP3    H167789   4.284   4.594  12.900 -0.0345  0.9450 -1.0318
15458TIP3    H267790   4.406   4.625  12.817  2.0373 -0.5417  1.3220
15459TIP3   OH267791   2.418   1.855  11.254  0.4528  0.6375 -0.2464
15459TIP3    H167792   2.420   1.782  11.191  1.3771  1.0606 -0.7273
15459TIP3    H267793   2.498   1.904  11.236  0.5789  0.9466  1.0683
15460TIP3   OH267794   3.027   2.160  11.507  0.2798  0.3959  0.0078
15460TIP3    H167795   3.042   2.096  11.438 -0.6781 -0.6240  0.7073
15460TIP3    H267796   3.082   2.130  11.580 -1.5861 -0.8029  1.0147
15461TIP3   OH267797   4.735   5.764  12.439 -0.2508 -0.4006  0.7937
15461TIP3    H167798   4.701   5.853  12.435  1.0357  0.2827  3.1154
15461TIP3    H267799   4.723   5.738  12.530  1.3801 -1.7637  0.6677
15462TIP3   OH267800   1.336   2.022  12.005  0.1465 -0.3216 -0.2089
15462TIP3    H167801   1.410   2.078  12.029  0.0013  0.4254 -1.3931
15462TIP3    H267802   1.298   2.065  11.928 -0.2936 -1.7759 -0.8416
15463TIP3   OH267803   5.098   1.020  15.412 -0.1674  0.1838 -0.2369
15463TIP3    H167804   5.149   1.036  15.332  1.6860 -1.0752  0.6104
15463TIP3    H267805   5.163   1.026  15.483 -1.5116 -0.0345  1.0577
15464TIP3   OH267806   4.487   4.677  16.989  0.1029 -0.0055 -0.0259
15464TIP3    H167807   4.562   4.694  17.046 -1.9558  2.2016  2.2877
15464TIP3    H267808   4.419   4.644  17.047 -1.0763 -0.9599 -1.8515
15465TIP3   OH267809   1.034   1.165   5.763  0.3452 -0.1493  0.6905
15465TIP3    H167810   0.948   1.123   5.765 -0.9318  2.0743 -1.4550
15465TIP3    H267811   1.095   1.095   5.742 -1.3209 -1.3469 -0.3932
15466TIP3   OH267812   6.768   6.693   2.223 -0.1641 -0.2552 -0.3918
15466TIP3    H167813   6.810   6.750   2.158 -1.7352  1.2194 -0.1895
15466TIP3    H267814   6.841   6.650   2.268  1.1905  2.5600  0.2978
15467TIP3   OH267815   0.271   3.418  16.666  0.0028  0.4610 -0.0818
15467TIP3    H167816   0.254   3.504  16.630 -0.0503 -0.0346 -1.2651
15467TIP3    H267817   0.363   3.400  16.644 -0.1505 -0.0182 -0.3456
15468TIP3   OH267818   5.104   2.193  14.418  0.4515 -0.4343 -0.2278
15468TIP3    H167819   5.098   2.196  14.514 -2.2401 -0.7139 -0.3238
15468TIP3    H267820   5.024   2.149  14.390  1.6012 -1.2019 -2.6054
15469TIP3   OH267821   5.838   6.726   1.951 -0.0349  0.1189 -0.2566
15469TIP3    H167822   5.931   6.716   1.932 -0.3054 -0.1497 -1.5017
15469TIP3    H267823   5.805   6.784   1.883 -0.9090 -0.3147 -0.2193
15470TIP3   OH267824   4.309   5.627  14.266  0.7648 -0.3521 -0.0631
15470TIP3    H167825   4.303   5.600  14.174 -0.4541 -1.4127  0.3087
15470TIP3    H267826   4.275   5.553  14.315 -1.8243  1.4704  1.0743
15471TIP3   OH267827   3.706   0.417  17.001 -0.0857 -0.3074 -0.5517
15471TIP3    H167828   3.631   0.371  16.963 -0.4849  1.7285 -2.4094
15471TIP3    H267829   3.667   0.478  17.064  0.2096 -0.6768 -0.0043
15472TIP3   OH267830   1.030   0.628   3.322 -0.0805 -0.1821 -0.3372
15472TIP3    H167831   0.994   0.666   3.242  2.5205 -0.5993 -1.8204
15472TIP3    H267832   1.108   0.681   3.340 -0.2671 -0.4958  1.5805
15473TIP3   OH267833   6.634   0.811  11.751  0.7549 -0.2822 -0.0157
15473TIP3    H167834   6.691   0.875  11.792  1.0983 -1.4967  1.5189
15473TIP3    H267835   6.684   0.730  11.751  0.0999 -0.7191 -1.3181
15474TIP3   OH267836   0.186   3.727   4.357  0.1214 -0.3097  0.8004
15474TIP3    H167837   0.154   3.651   4.308  0.8151 -0.5673  0.7438
15474TIP3    H267838   0.281   3.720   4.354  0.1852  0.2225  1.3290
15475TIP3   OH267839   1.964   3.297   1.803  1.4192 -0.1052 -0.1840
15475TIP3    H167840   1.911   3.372   1.777  0.8920 -0.3802  0.0684
15475TIP3    H267841   2.010   3.326   1.882 -0.4924 -0.7325  1.2473
15476TIP3   OH267842   5.125   2.308   0.192 -0.1884  0.0082  0.4668
15476TIP3    H167843   5.049   2.335   0.244 -0.1133  1.8672 -0.3115
15476TIP3    H267844   5.200   2.330   0.246 -0.1416  0.7883  0.0892
15477TIP3   OH267845   4.034   5.293  12.161 -0.3336  0.3904  0.1028
15477TIP3    H167846   3.985   5.215  12.135 -0.2034  1.2671 -3.1548
15477TIP3    H267847   4.073   5.269  12.246 -1.8822 -2.3165  0.1717
15478TIP3   OH267848   5.746   5.020  15.389  0.0372  0.3931  0.2672
15478TIP3    H167849   5.753   5.105  15.346 -4.3282  0.4178 -0.8774
15478TIP3    H267850   5.741   5.041  15.482  0.5892  1.2102  0.1275
15479TIP3   OH267851   1.557   4.443  11.665  0.3518  0.3617 -0.4247
15479TIP3    H167852   1.627   4.377  11.667 -0.7899 -0.9358 -1.2034
15479TIP3    H267853   1.476   4.392  11.678 -0.5074  1.7411 -0.1400
15480TIP3   OH267854   1.951   6.118  16.938  0.4399  0.6086 -0.0268
15480TIP3    H167855   1.887   6.075  16.994  0.0347  0.4944 -0.5653
15480TIP3    H267856   1.902   6.140  16.859  0.0816  3.8853  0.9648
15481TIP3   OH267857   6.210   5.850   3.696 -0.5968  0.0819 -0.9321
15481TIP3    H167858   6.302   5.877   3.685 -0.0863 -2.0705 -2.4833
15481TIP3    H267859   6.203   5.828   3.789 -0.4245  3.0192 -0.0996
15482TIP3   OH267860   1.635   2.342  15.328  0.5159 -0.2114  0.1741
15482TIP3    H167861   1.681   2.270  15.284 -0.5423 -0.2850 -0.8877
15482TIP3    H267862   1.638   2.319  15.421 -0.2907 -1.9708 -0.1805
15483TIP3   OH267863   6.709   0.128  13.270  0.0180 -0.3853 -0.1042
15483TIP3    H167864   6.695   0.222  13.258 -1.2134 -0.8596 -3.1501
15483TIP3    H267865   6.621   0.091  13.279  0.3435 -1.4512 -1.0234
15484TIP3   OH267866   0.340   6.473  11.475  0.1359 -0.2548  0.3897
15484TIP3    H167867   0.264   6.438  11.522  0.3732  0.4000  1.2820
15484TIP3    H267868   0.415   6.440  11.525  0.3622  1.7253  1.4397
15485TIP3   OH267869   3.168   3.267  13.924 -0.0974 -0.2689  0.2019
15485TIP3    H167870   3.198   3.306  13.841 -1.3654 -0.0905 -0.2000
15485TIP3    H267871   3.180   3.173  13.912  0.6823 -0.1808  0.2225
15486TIP3   OH267872   0.981   5.527   0.753 -0.1723  0.0937 -0.5942
15486TIP3    H167873   1.018   5.441   0.770  1.1178  0.4410 -1.4549
15486TIP3    H267874   0.912   5.511   0.688 -1.3149 -0.5038  0.7048
15487TIP3   OH267875   5.829   5.983  16.668 -0.0179 -0.1209 -0.3271
15487TIP3    H167876   5.886   6.060  16.663  1.8587 -1.1711  2.7529
15487TIP3    H267877   5.877   5.919  16.720 -2.1491 -2.8822 -1.4311
15488TIP3   OH267878   0.955   0.312   1.888  0.1581 -0.3337 -0.5257
15488TIP3    H167879   1.043   0.321   1.927 -0.4506 -1.6581  1.2779
15488TIP3    H267880   0.896   0.310   1.963 -1.4301  0.2845 -1.7103
15489TIP3   OH267881   2.430   3.706   5.561 -0.3091  0.3304  0.1653
15489TIP3    H167882   2.474   3.651   5.626  0.4016  0.0737 -0.5195
15489TIP3    H267883   2.359   3.652   5.528 -0.5969  0.4156  0.6339
15490TIP3   OH267884   4.921   3.819   0.341  0.0736  0.1866  0.4766
15490TIP3    H167885   4.991   3.775   0.294 -0.2366 -0.3613  0.5243
15490TIP3    H267886   4.929   3.911   0.316 -0.2614 -0.1400 -0.8661
15491TIP3   OH267887   0.912   2.600   0.007  0.2669 -0.1945 -0.3845
15491TIP3    H167888   0.961   2.577  -0.072 -0.0217 -0.4487 -0.4898
15491TIP3    H267889   0.971   2.658   0.055 -0.4480  1.9317 -1.9198
15492TIP3   OH267890   4.834   3.285  11.641 -0.4540 -0.2917 -0.0711
15492TIP3    H167891   4.832   3.269  11.735 -0.7320 -2.0162 -0.3360
15492TIP3    H267892   4.760   3.236  11.606  0.3670 -0.7093 -1.3159
15493TIP3   OH267893   2.329   4.266  14.983  0.9113 -0.2206 -0.2180
15493TIP3    H167894   2.259   4.237  14.925  0.8588  0.8426 -0.7199
15493TIP3    H267895   2.406   4.218  14.953  0.5856 -0.7500 -0.2257
15494TIP3   OH267896   0.251   1.702   0.727  0.7519  0.4304  0.5139
15494TIP3    H167897   0.186   1.718   0.795 -0.1260 -1.8718  0.3027
15494TIP3    H267898   0.221   1.755   0.653  0.4725  1.2268  1.1815
15495TIP3   OH267899   3.541   0.126  15.147 -0.0223  0.1963  0.0626
15495TIP3    H167900   3.634   0.146  15.138  0.8335 -2.2095  2.1850
15495TIP3    H267901   3.499   0.212  15.156  2.4424  1.3254  2.2719
15496TIP3   OH267902   5.701   1.074  13.015 -0.1343  0.2927 -0.0778
15496TIP3    H167903   5.734   1.097  12.928 -0.2693  2.0701  0.3078
15496TIP3    H267904   5.621   1.126  13.025 -1.3343 -1.5226  0.2807
15497TIP3   OH267905   5.889   0.086   1.705 -0.4134  0.7725  0.4180
15497TIP3    H167906   5.803   0.111   1.737 -0.2104  0.8163  0.9453
15497TIP3    H267907   5.875   0.058   1.614 -1.2229 -0.6379  0.9521
15498TIP3   OH267908   3.779   3.171  10.721  0.0607 -0.2791 -0.3891
15498TIP3    H167909   3.873   3.170  10.704  0.2297  1.3213  0.2564
15498TIP3    H267910   3.765   3.098  10.781  0.9843 -0.2099 -0.0700
15499TIP3   OH267911   1.425   6.387   2.330  0.3627 -0.0540 -0.1582
15499TIP3    H167912   1.360   6.317   2.326  0.3611 -0.2861  2.4773
15499TIP3    H267913   1.380   6.464   2.295  0.0568 -1.0735 -2.1819
15500TIP3   OH267914   5.348   5.788  14.759  0.2538 -0.0523  0.0476
15500TIP3    H167915   5.292   5.830  14.824  0.7973  0.3906  0.2424
15500TIP3    H267916   5.428   5.842  14.758  2.2036 -2.6322  2.3552
15501TIP3   OH267917   1.320   3.971   1.217 -0.3792 -0.2494 -0.2286
15501TIP3    H167918   1.274   3.887   1.213  0.5217 -0.7674  0.0412
15501TIP3    H267919   1.404   3.950   1.258  0.9270  0.3126 -2.4790
15502TIP3   OH267920   4.457   3.905   3.494 -0.5186 -0.0794  0.2116
15502TIP3    H167921   4.416   3.952   3.567  3.0891  0.7301  1.9038
15502TIP3    H267922   4.451   3.813   3.519 -0.8820  0.0537  0.6315
15503TIP3   OH267923   3.652   3.036   3.989  0.0461  0.0074 -0.0583
15503TIP3    H167924   3.630   3.065   3.901 -0.1120 -2.0518 -0.7501
15503TIP3    H267925   3.670   2.942   3.980 -1.0466 -0.5031  2.2736
15504TIP3   OH267926   5.573   0.061  12.681 -0.3288 -0.0824  0.6215
15504TIP3    H167927   5.484   0.089  12.660 -1.6140 -0.7817  4.3695
15504TIP3    H267928   5.569  -0.034  12.681  0.5453 -0.1253  0.3959
15505TIP3   OH267929   2.482   0.687   0.781  0.2584  0.5433  0.2579
15505TIP3    H167930   2.450   0.758   0.837 -1.0093 -0.7161  1.1972
15505TIP3    H267931   2.404   0.653   0.738  1.3065  2.4064 -3.5824
15506TIP3   OH267932   2.483   4.407  11.052  0.2728 -0.1673  0.1480
15506TIP3    H167933   2.469   4.372  10.964  1.2947  0.7209 -0.4036
15506TIP3    H267934   2.428   4.485  11.056 -0.2560 -0.5569  0.5354
15507TIP3   OH267935   3.595   0.169   2.664  0.0495  0.4121 -0.0222
15507TIP3    H167936   3.620   0.219   2.586  0.9945 -1.6500 -1.1084
15507TIP3    H267937   3.669   0.110   2.680 -0.6251 -0.0177  1.7736
15508TIP3   OH267938   1.170   1.224   1.059 -0.4337 -0.0585  0.0661
15508TIP3    H167939   1.215   1.149   1.099  1.3254 -1.0922 -3.5053
15508TIP3    H267940   1.223   1.299   1.083  1.2954 -0.8131 -1.2222
15509TIP3   OH267941   5.393   1.142   3.768  0.2527 -0.2989  0.1648
15509TIP3    H167942   5.427   1.181   3.849 -0.0333 -0.9293  0.5944
15509TIP3    H267943   5.471   1.116   3.720  0.4604  0.9015 -0.1919
15510TIP3   OH267944   3.701   0.452   4.369  0.1793 -0.2431 -0.0066
15510TIP3    H167945   3.771   0.393   4.397  0.3428  0.4190  1.0301
15510TIP3    H267946   3.621   0.402   4.382  0.4997 -1.8917 -3.4020
15511TIP3   OH267947   1.894   4.509   2.448 -0.1865  0.3894  0.4263
15511TIP3    H167948   1.880   4.603   2.463 -1.9029  0.5330 -1.6016
15511TIP3    H267949   1.969   4.504   2.389  0.4000  0.4295  1.1648
15512TIP3   OH267950   5.291   0.490   5.347  0.4620 -0.5845  0.3953
15512TIP3    H167951   5.210   0.518   5.390  1.4277  1.0865  1.2295
15512TIP3    H267952   5.299   0.398   5.369 -1.5402 -0.9587 -0.2681
15513TIP3   OH267953   4.586   2.690   2.561 -0.6320 -0.0507  0.1660
15513TIP3    H167954   4.650   2.752   2.593 -0.4912  1.6132 -2.9816
15513TIP3    H267955   4.501   2.734   2.572 -0.8696 -0.6130  0.6966
15514TIP3   OH267956   6.257   3.573   1.406 -0.3441 -0.4907 -0.4989
15514TIP3    H167957   6.218   3.651   1.446  0.7087 -0.5980  0.8091
15514TIP3    H267958   6.328   3.548   1.466 -0.7002 -2.5025 -0.8561
15515TIP3   OH267959   0.933   6.618   4.197 -0.1306 -0.5580 -0.0267
15515TIP3    H167960   0.859   6.648   4.250  0.9594  0.8303  0.7690
15515TIP3    H267961   0.960   6.536   4.239  0.3582  0.2356  1.2890
15516TIP3   OH267962   6.396   4.793  16.814 -0.6196 -0.2867 -0.0921
15516TIP3    H167963   6.403   4.801  16.719  1.3938 -0.4377 -0.0004
15516TIP3    H267964   6.398   4.699  16.831 -0.2764 -0.2424  0.1306
15517TIP3   OH267965   0.148   4.384  10.882  0.0057 -0.5405  0.6636
15517TIP3    H167966   0.241   4.363  10.893  1.0337  2.7652 -0.5087
15517TIP3    H267967   0.148   4.467  10.834 -3.4731  1.1968  3.2325
15518TIP3   OH267968   6.329   5.241   5.458 -0.3647  0.1765 -0.3697
15518TIP3    H167969   6.235   5.224   5.457 -0.4434  0.5375 -2.0508
15518TIP3    H267970   6.358   5.221   5.369  0.7210  2.2355 -0.5391
15519TIP3   OH267971   4.887   5.585  11.010  0.2449 -0.2186  0.2087
15519TIP3    H167972   4.916   5.623  11.093 -0.3809  0.2265  0.2351
15519TIP3    H267973   4.866   5.494  11.031 -0.1418 -0.0443  0.6009
15520TIP3   OH267974   4.103   3.972  13.540  0.2678 -0.5075  0.5135
15520TIP3    H167975   4.014   3.958  13.508 -0.0688 -2.1525  1.9888
15520TIP3    H267976   4.127   4.058  13.507 -1.2728 -0.6690 -1.2194
15521TIP3   OH267977   5.606   2.411  15.048  0.2462  0.3585 -0.0024
15521TIP3    H167978   5.630   2.503  15.064 -2.2580  0.8472  1.6533
15521TIP3    H267979   5.557   2.414  14.966  2.5161 -0.0426 -1.4512
15522TIP3   OH267980   4.763   3.231   6.300 -0.0726  0.2576 -0.4446
15522TIP3    H167981   4.812   3.259   6.377 -0.1764  1.6865 -0.8715
15522TIP3    H267982   4.704   3.304   6.281  1.6464  1.0624 -3.3273
15523TIP3   OH267983   5.125   4.259   3.695  0.1564  0.6385  0.6338
15523TIP3    H167984   5.186   4.245   3.623  0.3872  2.9367  0.3023
15523TIP3    H267985   5.092   4.172   3.717  0.5186 -0.1849 -1.8480
15524TIP3   OH267986   3.618   2.120   2.598  0.2423  0.3668  0.0943
15524TIP3    H167987   3.696   2.093   2.549  0.1152  1.7228 -0.9331
15524TIP3    H267988   3.563   2.043   2.601  0.0499  0.3284 -2.3507
15525TIP3   OH267989   1.534   4.628  15.543 -0.5724  0.2038  0.5621
15525TIP3    H167990   1.542   4.643  15.637 -0.7964  1.8687  0.3473
15525TIP3    H267991   1.587   4.696  15.503 -1.1072  0.0069 -0.5232
15526TIP3   OH267992   3.144   4.664   6.053  0.0328  0.4928 -0.3171
15526TIP3    H167993   3.063   4.619   6.031 -0.4339  1.2609 -0.1995
15526TIP3    H267994   3.181   4.612   6.125 -1.7726  1.6523  1.5735
15527TIP3   OH267995   0.054   0.690   4.547  0.3352 -0.3104 -0.4190
15527TIP3    H167996  -0.025   0.636   4.546 -0.8682  1.2100  1.9169
15527TIP3    H267997   0.041   0.753   4.476 -1.4131  0.9294  0.9092
15528TIP3   OH267998   1.536   4.764   0.394 -0.4025 -0.5895  0.4859
15528TIP3    H167999   1.487   4.761   0.313 -2.1987  0.0686  1.4886
15528TIP3    H268000   1.550   4.857   0.411 -3.6819 -0.3266  2.8802
15529TIP3   OH268001   3.348   6.722   6.103  0.5743 -0.4574 -0.9078
15529TIP3    H168002   3.264   6.700   6.144  1.7992 -2.2420  0.8088
15529TIP3    H268003   3.353   6.817   6.108  0.6697 -0.5218  3.3300
15530TIP3   OH268004   4.263   4.322  16.357  0.3352  0.3974 -0.6379
15530TIP3    H168005   4.307   4.295  16.437 -0.4113 -1.3868 -0.7583
15530TIP3    H268006   4.187   4.373  16.386 -1.3683 -2.3128  0.0496
15531TIP3   OH268007   0.225   3.889  11.157  0.0535  0.0429  0.0095
15531TIP3    H168008   0.231   3.971  11.207 -0.7106 -0.5328  1.0959
15531TIP3    H268009   0.184   3.914  11.075  2.7989  1.3027 -1.1155
15532TIP3   OH268010   6.295   6.400   5.717 -0.0949 -0.7500 -0.2115
15532TIP3    H168011   6.225   6.422   5.655 -0.1223 -0.1812  0.0153
15532TIP3    H268012   6.335   6.484   5.739 -0.3490 -0.8964  0.8576
15533TIP3   OH268013   6.507   0.225  14.839 -0.4927  0.1270  0.0295
15533TIP3    H168014   6.540   0.264  14.920 -0.4532 -0.2893  0.2150
15533TIP3    H268015   6.448   0.291  14.803 -0.7787  0.1733  0.5797
15534TIP3   OH268016   4.699   3.099   5.436 -0.2930  0.2039  0.0588
15534TIP3    H168017   4.702   3.024   5.377  0.6317 -0.0312  0.3964
15534TIP3    H268018   4.609   3.100   5.469  0.3481 -2.4525  2.2074
15535TIP3   OH268019   2.558   0.917  13.433  0.9797 -0.6203 -0.2821
15535TIP3    H168020   2.586   0.891  13.520  0.8878  0.9918  0.2595
15535TIP3    H268021   2.531   1.009  13.442 -0.3613 -0.8261 -1.7021
15536TIP3   OH268022   5.401   4.971   5.313  0.7464 -0.1442  0.3536
15536TIP3    H168023   5.319   4.936   5.277 -0.7904 -0.0032  3.4400
15536TIP3    H268024   5.387   5.065   5.318  1.2307 -0.0859  0.6559
15537TIP3   OH268025   5.368   5.498   5.985 -0.0328 -0.1687 -0.6850
15537TIP3    H168026   5.415   5.514   6.067  2.2166 -2.8287 -1.2756
15537TIP3    H268027   5.276   5.496   6.010  0.3559  1.9198  1.1881
15538TIP3   OH268028   5.378   2.401  15.223  0.2887 -0.3503  0.0503
15538TIP3    H168029   5.347   2.336  15.160  0.7001 -0.0212 -0.5021
15538TIP3    H268030   5.458   2.437  15.184  0.3550  0.1196  0.5900
15539TIP3   OH268031   4.462   2.470   4.171 -0.0006 -0.5095 -0.1031
15539TIP3    H168032   4.479   2.486   4.078  0.0604  1.3276  0.1825
15539TIP3    H268033   4.367   2.457   4.176  0.0471 -1.0361 -0.4628
15540TIP3   OH268034   5.261   4.716   3.984  0.7495 -0.2292  0.5427
15540TIP3    H168035   5.229   4.794   4.029  0.1898 -0.7238  1.0174
15540TIP3    H268036   5.193   4.650   4.000  2.3685 -1.5684  2.2899
15541TIP3   OH268037   2.247   4.905  11.004 -0.4303 -0.3208 -0.0078
15541TIP3    H168038   2.239   4.989  11.048 -1.5330  0.1228 -1.0085
15541TIP3    H268039   2.202   4.916  10.921 -2.5249 -2.5016  0.6976
15542TIP3   OH268040   2.865   3.884  12.097  0.1603 -0.1468  0.3478
15542TIP3    H168041   2.862   3.827  12.174  1.5898  0.7505  1.0984
15542TIP3    H268042   2.862   3.973  12.132 -0.9130  0.2878 -0.7575
15543TIP3   OH268043   4.672   3.956   4.948  0.4065 -0.1468 -0.1829
15543TIP3    H168044   4.583   3.944   4.916  0.3775 -0.6949  0.0873
15543TIP3    H268045   4.688   3.880   5.005  1.4394 -0.6556 -1.1036
15544TIP3   OH268046   5.131   1.654  14.335 -0.3205 -0.0340 -0.0296
15544TIP3    H168047   5.189   1.630  14.263  0.1084 -1.8297  0.8665
15544TIP3    H268048   5.045   1.666  14.293  0.4295  1.6040 -1.1974
15545TIP3   OH268049   6.743   3.857   2.449  0.7352  0.4903 -0.4510
15545TIP3    H168050   6.774   3.768   2.431  1.5938  0.7299 -0.2131
15545TIP3    H268051   6.704   3.851   2.536  1.4526  0.4920 -0.1177
15546TIP3   OH268052   5.293   2.850  17.110  0.0998  0.5678  0.1974
15546TIP3    H168053   5.306   2.832  17.203  0.5622  0.6685  0.1563
15546TIP3    H268054   5.334   2.936  17.096 -1.3466  1.2918  0.2227
15547TIP3   OH268055   5.194   1.314   1.832 -0.0023 -0.1237  0.3684
15547TIP3    H168056   5.099   1.315   1.819 -0.3577  0.5138  2.6601
15547TIP3    H268057   5.208   1.252   1.903  1.2167  0.3862  0.6011
15548TIP3   OH268058   0.664   0.672   4.529  0.6032 -0.0590 -0.2795
15548TIP3    H168059   0.623   0.758   4.533  2.9494  1.1110 -0.2264
15548TIP3    H268060   0.756   0.687   4.550  0.8509 -2.7756  1.0771
15549TIP3   OH268061   4.061   5.574   4.243  0.4508 -0.3124 -0.1542
15549TIP3    H168062   4.052   5.669   4.239  0.8023 -0.1856  1.4893
15549TIP3    H268063   4.156   5.559   4.242  0.4974 -0.4661  1.7729
15550TIP3   OH268064   2.382   3.679   2.883  0.0919  0.1893  0.0200
15550TIP3    H168065   2.435   3.638   2.951  0.8560  2.3109  0.8136
15550TIP3    H268066   2.355   3.763   2.921  0.3759  1.3784 -2.1953
15551TIP3   OH268067   6.293   1.543   5.928  0.1498 -0.4211 -0.0692
15551TIP3    H168068   6.303   1.459   5.971  0.1780 -1.0202 -1.2056
15551TIP3    H268069   6.376   1.589   5.945  1.0823 -1.5391 -1.3385
15552TIP3   OH268070   0.662   6.578  14.793 -0.6727  0.0184 -0.1557
15552TIP3    H168071   0.618   6.656  14.758  0.0054  1.1000  1.3244
15552TIP3    H268072   0.745   6.575  14.745 -1.1459 -0.4428 -0.9805
15553TIP3   OH268073   4.817   2.601   5.438  0.3397  0.2950  0.5017
15553TIP3    H168074   4.841   2.515   5.472  0.1735  0.5710  1.3571
15553TIP3    H268075   4.873   2.662   5.486  0.3810  0.6757 -0.0193
15554TIP3   OH268076   1.871   3.828   4.574  0.3254 -0.1375 -0.6958
15554TIP3    H168077   1.929   3.779   4.633  0.8676 -0.3249 -1.3664
15554TIP3    H268078   1.788   3.780   4.577  0.4074 -0.2550 -0.2332
15555TIP3   OH268079   4.684   3.314   3.324 -0.4061  0.1157 -0.0458
15555TIP3    H168080   4.678   3.219   3.326  1.8722 -0.1109 -0.8737
15555TIP3    H268081   4.601   3.343   3.286 -0.9744 -1.5557 -0.1359
15556TIP3   OH268082   2.891   5.716   4.258 -0.2182  0.4214  0.2057
15556TIP3    H168083   2.818   5.777   4.256  0.2314  0.9641  0.2023
15556TIP3    H268084   2.855   5.637   4.300 -1.1314  0.2346 -0.8752
15557TIP3   OH268085   3.767   6.024   0.250  0.2801 -0.1921 -0.3899
15557TIP3    H168086   3.709   6.100   0.242  0.2317 -0.2942 -1.0168
15557TIP3    H268087   3.730   5.973   0.322 -0.2000 -0.0742 -0.5535
15558TIP3   OH268088   4.478   4.764  15.982 -0.5200 -0.6384  1.0518
15558TIP3    H168089   4.532   4.836  16.014 -0.6834  0.2394 -0.5501
15558TIP3    H268090   4.542   4.694  15.962  0.0681  0.3273 -0.6552
15559TIP3   OH268091   0.348   0.748   3.476  0.2493  0.1771  0.3712
15559TIP3    H168092   0.336   0.829   3.524  1.8759 -0.3045  1.7027
15559TIP3    H268093   0.294   0.684   3.522  0.8763 -0.0217  0.8397
15560TIP3   OH268094   5.685   2.921  12.229  0.5892  0.1622  0.8209
15560TIP3    H168095   5.671   2.873  12.311 -1.8049  0.3318  0.5980
15560TIP3    H268096   5.624   2.994  12.234 -1.3040 -1.0240 -1.9932
15561TIP3   OH268097   5.514   1.407   2.443  0.0941 -0.4614  0.5608
15561TIP3    H168098   5.460   1.420   2.365  1.9273  0.7080 -0.5767
15561TIP3    H268099   5.527   1.312   2.448 -2.1248 -0.8154  0.9907
15562TIP3   OH268100   6.298   1.059   4.458 -0.3247 -0.3922 -0.0917
15562TIP3    H168101   6.363   1.071   4.389 -0.4468  0.3015 -0.0858
15562TIP3    H268102   6.327   1.116   4.529 -1.5518  0.8098 -0.5203
15563TIP3   OH268103   1.356   0.100   5.933  0.4587 -0.3841 -0.5318
15563TIP3    H168104   1.335   0.022   5.986 -0.2364 -0.8606 -1.4758
15563TIP3    H268105   1.445   0.123   5.958  0.4189 -1.0639  0.2783
15564TIP3   OH268106   6.490   3.764   1.340 -0.1558  0.7589  0.0018
15564TIP3    H168107   6.491   3.842   1.283  1.8559  0.3596 -0.5892
15564TIP3    H268108   6.437   3.790   1.415 -2.1904  1.6083 -1.6178
15565TIP3   OH268109   5.853   4.317   0.839  0.3701  0.1861 -0.0352
15565TIP3    H168110   5.783   4.365   0.883  0.5788 -0.6086  1.2186
15565TIP3    H268111   5.866   4.364   0.757 -0.3941  1.4225  0.5129
15566TIP3   OH268112   2.224   2.372  11.653 -0.3204  0.1778 -0.0884
15566TIP3    H168113   2.259   2.460  11.637  0.3350  0.1439  1.0314
15566TIP3    H268114   2.296   2.326  11.697 -0.6618 -0.9276 -0.6585
15567TIP3   OH268115   5.459   2.846  10.930 -0.5712  0.2371 -0.3185
15567TIP3    H168116   5.435   2.827  10.839 -0.6969 -0.1168 -0.2147
15567TIP3    H268117   5.473   2.940  10.932 -0.9319  0.3009 -0.6190
15568TIP3   OH268118   3.368   5.188  11.566  0.1734 -0.9733  0.1516
15568TIP3    H168119   3.287   5.141  11.587 -0.4857 -0.8363 -1.8894
15568TIP3    H268120   3.430   5.119  11.539 -0.4207 -0.8437 -1.6918
15569TIP3   OH268121   2.489   4.607   4.334 -0.0810  0.2368  0.0090
15569TIP3    H168122   2.530   4.691   4.357  1.1950 -0.8331  1.9896
15569TIP3    H268123   2.395   4.624   4.339  0.1308  1.7958 -0.6722
15570TIP3   OH268124   1.015   0.490  16.994  0.2338 -0.1239 -0.2895
15570TIP3    H168125   1.028   0.506  16.900 -2.3884  2.1148 -0.3973
15570TIP3    H268126   0.936   0.437  16.998  0.2522 -0.0858  0.6653
15571TIP3   OH268127   3.718   2.077  12.212 -0.2024  0.2109  0.3470
15571TIP3    H168128   3.676   2.001  12.252  1.1607 -1.4280 -1.2114
15571TIP3    H268129   3.666   2.151  12.243 -1.4827 -1.3030  2.0531
15572TIP3   OH268130   2.591   6.087   4.350 -0.1689 -0.1283  0.8254
15572TIP3    H168131   2.500   6.107   4.325  0.0767 -0.4134 -0.3557
15572TIP3    H268132   2.600   6.125   4.437 -2.0368 -1.8200  1.8575
15573TIP3   OH268133   3.888   4.350  12.405  0.1575 -0.2743 -0.1134
15573TIP3    H168134   3.904   4.274  12.461  0.5058 -0.8117 -0.9309
15573TIP3    H268135   3.942   4.419  12.443  1.0367 -0.8628 -0.2601
15574TIP3   OH268136   4.359   2.944  11.041 -0.0879  0.0722  0.3211
15574TIP3    H168137   4.302   2.957  10.966  0.1761 -1.9685 -0.3017
15574TIP3    H268138   4.395   2.856  11.029 -0.0463 -0.3487  2.8169
15575TIP3   OH268139   6.685   2.055  14.149  0.1120 -0.3836 -0.2518
15575TIP3    H168140   6.606   2.001  14.161  0.6921 -0.7038  3.0943
15575TIP3    H268141   6.661   2.140  14.185  1.6710 -0.9658  2.4520
15576TIP3   OH268142   1.939   5.425   3.437 -0.0053  0.1822  0.3511
15576TIP3    H168143   1.897   5.475   3.367 -0.6740 -2.2875 -1.1478
15576TIP3    H268144   1.962   5.341   3.397  0.8831 -0.8337  2.7437
15577TIP3   OH268145   1.281   1.430   0.359  0.4354 -0.0180 -0.3286
15577TIP3    H168146   1.283   1.353   0.303 -0.0701 -0.5051  0.3027
15577TIP3    H268147   1.195   1.468   0.344  0.8810  0.7455 -1.0410
15578TIP3   OH268148   4.336   4.628   0.230  0.1182 -0.1302  0.1863
15578TIP3    H168149   4.413   4.577   0.256  0.6519  0.5158 -0.1181
15578TIP3    H268150   4.370   4.715   0.210 -0.5758 -0.0540 -0.7282
15579TIP3   OH268151   5.113   1.202   1.345 -0.9541 -0.0224 -0.2786
15579TIP3    H168152   5.134   1.109   1.349 -2.1270 -0.3214 -0.6909
15579TIP3    H268153   5.163   1.241   1.417  0.2635 -0.8139 -0.6706
15580TIP3   OH268154   2.755   0.900   0.992  0.7936  0.2787  0.1852
15580TIP3    H168155   2.731   0.875   0.902 -0.8578  0.7769  0.4455
15580TIP3    H268156   2.792   0.820   1.030  2.8238  0.4228 -1.3270
15581TIP3   OH268157   6.549   0.709  16.216  0.2370 -0.0722  0.6212
15581TIP3    H168158   6.588   0.667  16.292 -1.8680 -0.7862  1.3743
15581TIP3    H268159   6.508   0.788  16.251 -0.6202 -0.3278  0.2190
15582TIP3   OH268160   1.486   1.374   5.473 -0.4659  0.0512  0.5461
15582TIP3    H168161   1.504   1.296   5.525  2.4673 -0.2018 -0.6183
15582TIP3    H268162   1.402   1.356   5.431 -0.2811 -2.0978  0.9805
15583TIP3   OH268163   6.390   1.907   5.209 -0.1861  0.1847 -0.2051
15583TIP3    H168164   6.438   1.902   5.126  0.7001 -1.7170  0.3633
15583TIP3    H268165   6.435   1.846   5.267 -2.6202 -0.9200  0.6966
15584TIP3   OH268166   3.182   0.981   6.190  0.3030  0.4258  0.0883
15584TIP3    H168167   3.261   1.013   6.146  1.4395 -1.2344  0.8016
15584TIP3    H268168   3.205   0.983   6.283  0.2381 -1.7734  0.2085
15585TIP3   OH268169   5.700   2.277   0.722 -0.2312 -0.4140  0.3882
15585TIP3    H168170   5.708   2.247   0.631 -0.4067  0.2917  0.1313
15585TIP3    H268171   5.788   2.269   0.758 -0.2119 -0.9295  0.2333
15586TIP3   OH268172   0.849   0.237   4.522 -0.0977 -0.0087  0.0789
15586TIP3    H168173   0.822   0.310   4.466 -0.1327 -0.7852 -0.9397
15586TIP3    H268174   0.779   0.229   4.586 -0.1027  0.8328  0.1919
15587TIP3   OH268175   1.809   3.834  10.786  0.6743  0.0091 -0.1789
15587TIP3    H168176   1.770   3.792  10.863 -1.0048 -0.6580 -1.3427
15587TIP3    H268177   1.744   3.897  10.757  1.3983  0.4321 -0.9198
15588TIP3   OH268178   5.082   0.870   2.933  0.6218  0.1467  0.2463
15588TIP3    H168179   5.097   0.894   2.841  0.7505 -1.4367 -0.1733
15588TIP3    H268180   5.091   0.952   2.981 -1.6445  1.4475 -1.3895
15589TIP3   OH268181   0.618   4.401  12.282 -0.3284  0.8078 -0.0932
15589TIP3    H168182   0.523   4.410  12.284 -0.5687 -1.2726  0.5374
15589TIP3    H268183   0.642   4.385  12.374  0.7686  2.2431 -0.0968
15590TIP3   OH268184   2.240   1.344   5.733  0.4778 -0.0811  0.3859
15590TIP3    H168185   2.209   1.333   5.643  1.0974  1.7216 -0.0763
15590TIP3    H268186   2.302   1.272   5.746  0.7847 -0.0521 -0.8242
15591TIP3   OH268187   2.773   2.371   0.589 -0.1152 -0.0565 -0.5536
15591TIP3    H168188   2.810   2.422   0.661 -0.1392  0.6046 -1.0027
15591TIP3    H268189   2.682   2.355   0.616  0.3368 -1.2508  0.3171
15592TIP3   OH268190   3.965   1.487  16.120  0.2485  0.7376  0.3526
15592TIP3    H168191   3.957   1.559  16.182  0.7812  1.0714  0.0347
15592TIP3    H268192   3.960   1.408  16.175 -1.1603  0.9754  0.6149
15593TIP3   OH268193   2.200   5.629  14.129 -0.3934  0.3106 -0.7991
15593TIP3    H168194   2.152   5.671  14.201 -0.6628  0.9038 -1.3158
15593TIP3    H268195   2.286   5.610  14.167 -0.9132 -0.4718  0.0334
15594TIP3   OH268196   6.750   4.278  13.166 -0.5738 -0.3486  0.0944
15594TIP3    H168197   6.707   4.333  13.100  0.2165 -0.6252 -0.6728
15594TIP3    H268198   6.818   4.334  13.204 -0.0245 -0.6613 -0.4128
15595TIP3   OH268199   4.835   5.176  13.469 -0.3156 -0.3386 -0.4526
15595TIP3    H168200   4.823   5.160  13.563 -0.2647  0.0997 -0.3687
15595TIP3    H268201   4.782   5.109  13.426  0.3179 -1.0659 -0.1215
15596TIP3   OH268202   4.404   1.168   3.641 -0.0035 -0.3574  0.3638
15596TIP3    H168203   4.427   1.134   3.728  0.0705  1.2764  1.0085
15596TIP3    H268204   4.341   1.237   3.658  1.2273  1.1120 -0.7393
15597TIP3   OH268205   2.072   0.542   5.976 -0.5585  0.9278  0.7582
15597TIP3    H168206   2.073   0.472   6.041  5.8429  0.1912  0.4736
15597TIP3    H268207   2.074   0.496   5.892  3.4332  1.1533  0.5677
15598TIP3   OH268208   2.712   3.383  13.216  0.4668 -0.0012 -0.3803
15598TIP3    H168209   2.664   3.319  13.269  1.6878  0.9782  2.0876
15598TIP3    H268210   2.679   3.468  13.245  1.5640  0.5830 -0.7850
15599TIP3   OH268211   1.501   2.340  11.566 -0.2054  0.5661 -0.2458
15599TIP3    H168212   1.524   2.260  11.519  1.0015  0.5900  0.2813
15599TIP3    H268213   1.580   2.364  11.615 -0.8613  1.5291  0.3932
15600TIP3   OH268214   5.120   2.687  11.516  0.1594  0.2946  0.0780
15600TIP3    H168215   5.178   2.747  11.469 -1.5605  3.1785  1.4148
15600TIP3    H268216   5.179   2.634  11.569  1.6955  2.3151  0.5125
15601TIP3   OH268217   3.277   1.136   3.243 -0.2693  0.1978 -0.5904
15601TIP3    H168218   3.368   1.163   3.251 -0.8143  1.7212  1.6801
15601TIP3    H268219   3.232   1.213   3.208 -0.7802 -0.3049 -1.0555
15602TIP3   OH268220   4.661   5.992  14.958  0.3608 -0.0891  0.3066
15602TIP3    H168221   4.670   5.932  15.032  1.3667  0.7609  0.9122
15602TIP3    H268222   4.639   6.076  14.998 -1.5020 -0.1170 -0.5637
15603TIP3   OH268223   3.593   5.385  17.168 -0.2119  1.0193  0.4656
15603TIP3    H168224   3.660   5.396  17.101  1.0985  0.4847  1.6469
15603TIP3    H268225   3.541   5.466  17.163 -0.7478  0.6090 -1.7722
15604TIP3   OH268226   6.627   5.148   5.879 -0.1881  0.0176 -0.1150
15604TIP3    H168227   6.670   5.065   5.898 -0.1386  0.2650  0.9082
15604TIP3    H268228   6.665   5.210   5.942  0.5179  1.0668 -1.5254
15605TIP3   OH268229   3.998   6.712   2.371 -0.0794 -0.2845  0.5648
15605TIP3    H168230   3.934   6.644   2.349 -0.0447 -0.0345 -0.3713
15605TIP3    H268231   3.968   6.789   2.322  0.7880 -0.0917  0.3300
15606TIP3   OH268232   3.800   3.373  11.556 -0.1238  0.3012 -0.1114
15606TIP3    H168233   3.814   3.334  11.469 -2.3939 -1.1242  0.0853
15606TIP3    H268234   3.854   3.451  11.555  1.5957 -0.7991 -2.0094
15607TIP3   OH268235   2.579   1.264  16.714 -0.2230 -0.1960  0.0412
15607TIP3    H168236   2.634   1.304  16.646 -0.5490  3.3939  1.6801
15607TIP3    H268237   2.492   1.300  16.699 -0.8446 -1.2208  0.9979
15608TIP3   OH268238   6.348   5.754   1.108  0.1539  0.1413  0.3926
15608TIP3    H168239   6.427   5.700   1.107  0.4451  0.5720 -0.7600
15608TIP3    H268240   6.308   5.735   1.193  0.1494 -2.0287 -0.0462
15609TIP3   OH268241   6.575   2.060   4.021  0.0017  0.6565 -0.3470
15609TIP3    H168242   6.604   2.095   4.105  0.2717 -0.0676 -0.1307
15609TIP3    H268243   6.496   2.111   3.999 -1.2128 -0.4393  1.2900
15610TIP3   OH268244   1.755   5.152   4.626  0.8432 -0.2770 -0.4496
15610TIP3    H168245   1.765   5.068   4.581 -0.7484 -0.2710 -0.8959
15610TIP3    H268246   1.704   5.132   4.704  1.5254  0.0931  0.1028
15611TIP3   OH268247   3.496   0.561   0.339 -0.1074 -0.4861 -0.3840
15611TIP3    H168248   3.581   0.538   0.377 -1.0972 -1.7497  1.1580
15611TIP3    H268249   3.491   0.511   0.258  1.4846  1.2600 -1.6647
15612TIP3   OH268250   3.869   1.821   4.637 -0.1048 -0.2383 -0.0520
15612TIP3    H168251   3.938   1.883   4.615 -1.1315  0.4628 -1.4107
15612TIP3    H268252   3.845   1.781   4.554 -0.1571 -1.7445  0.6555
15613TIP3   OH268253   2.203   0.319  11.706 -0.2555  0.0629 -0.2441
15613TIP3    H168254   2.178   0.305  11.798 -0.6230  0.4608 -0.2773
15613TIP3    H268255   2.293   0.287  11.700  0.3254  1.4432  0.6287
15614TIP3   OH268256   4.601   1.013  16.534  0.3277 -0.0547  0.2931
15614TIP3    H168257   4.678   1.051  16.491 -1.0431  0.1121 -2.2224
15614TIP3    H268258   4.632   0.928  16.568  1.7372  0.2308 -0.2017
15615TIP3   OH268259   0.945   5.801  15.825 -0.0912 -0.7003 -0.2352
15615TIP3    H168260   0.858   5.830  15.852 -1.0235 -0.7834 -2.8727
15615TIP3    H268261   0.959   5.718  15.870 -1.5567 -0.8763 -0.0755
15616TIP3   OH268262   4.279   6.723  16.244  0.0098  0.4572  0.2400
15616TIP3    H168263   4.357   6.735  16.189 -0.9303  0.0238 -1.2424
15616TIP3    H268264   4.307   6.661  16.312  0.4278 -1.3555 -1.4927
15617TIP3   OH268265   1.474   6.291   3.496  0.3033 -0.2994 -0.1113
15617TIP3    H168266   1.391   6.251   3.471 -0.3655  0.3581  0.9491
15617TIP3    H268267   1.494   6.254   3.582 -0.3189  1.5449  0.8827
15618TIP3   OH268268   2.963   6.111  14.933 -0.2714  0.2103  0.7003
15618TIP3    H168269   2.912   6.097  14.853 -1.0718 -3.0566  1.6303
15618TIP3    H268270   2.996   6.024  14.956  1.2672  1.3089  3.0815
15619TIP3   OH268271   2.852   1.995  11.325  0.9541 -0.4176 -0.3718
15619TIP3    H168272   2.943   1.999  11.299  0.4987 -0.1672 -2.0127
15619TIP3    H268273   2.802   2.010  11.245 -0.5446 -1.0569  0.3792
15620TIP3   OH268274   3.799   2.970  14.435 -0.2856 -0.2588  0.4287
15620TIP3    H168275   3.868   2.919  14.479  0.0879  0.4844  0.7129
15620TIP3    H268276   3.738   2.904  14.403  1.5457 -1.1353 -1.5665
15621TIP3   OH268277   0.856   0.569   6.320  0.7901 -0.2451 -0.0245
15621TIP3    H168278   0.828   0.478   6.310  1.3341 -0.6356  1.6825
15621TIP3    H268279   0.905   0.570   6.402 -0.5643  1.9178  0.8485
15622TIP3   OH268280   1.858   2.793  14.639  0.1058  0.1631 -0.5376
15622TIP3    H168281   1.834   2.751  14.556 -2.2862 -1.3339  0.7842
15622TIP3    H268282   1.920   2.732  14.679 -0.3986 -0.2098 -0.3105
15623TIP3   OH268283   0.823   2.119   2.379 -0.0556  0.2468 -0.2403
15623TIP3    H168284   0.746   2.111   2.322 -0.0468  0.7324 -0.3312
15623TIP3    H268285   0.817   2.208   2.415 -0.7905 -0.5001  1.5980
15624TIP3   OH268286   3.267   0.743  13.334 -0.2408  0.5444 -0.5971
15624TIP3    H168287   3.276   0.832  13.298  0.7986  0.1773 -1.3110
15624TIP3    H268288   3.173   0.726  13.333 -0.3843  1.3095 -1.2791
15625TIP3   OH268289   2.612   6.757   3.308 -0.0883  0.2998  0.2449
15625TIP3    H168290   2.566   6.838   3.285 -1.0800 -0.7009 -1.4398
15625TIP3    H268291   2.691   6.787   3.353 -0.3681  2.2083 -0.4478
15626TIP3   OH268292   1.965   6.213   5.792  0.0941 -0.4969  0.1683
15626TIP3    H168293   1.899   6.196   5.725  0.5047 -1.2823 -0.0429
15626TIP3    H268294   1.971   6.132   5.842  2.3857 -1.2073 -1.1100
15627TIP3   OH268295   3.615   6.322   4.316 -0.2496  0.8528  0.5075
15627TIP3    H168296   3.565   6.254   4.269  0.9500 -0.8880  1.6186
15627TIP3    H268297   3.664   6.273   4.382  1.2191  2.7633  0.9000
15628TIP3   OH268298   2.827   1.419   2.602 -0.0964  0.0926  0.2994
15628TIP3    H168299   2.838   1.326   2.581  1.6731  0.1752  0.7269
15628TIP3    H268300   2.837   1.423   2.698  0.7556  0.8216  0.1926
15629TIP3   OH268301   1.334   0.379   0.703  0.0486  0.4973 -0.2407
15629TIP3    H168302   1.275   0.309   0.677 -0.5232  0.5280  0.8919
15629TIP3    H268303   1.418   0.337   0.716  0.5707  0.6144 -2.8216
15630TIP3   OH268304   5.229   3.947  12.555 -0.3743  0.0453  0.0477
15630TIP3    H168305   5.287   4.015  12.590  0.9634 -1.2700  0.5083
15630TIP3    H268306   5.283   3.868  12.554 -1.6493 -0.8653 -1.1684
15631TIP3   OH268307   6.297   1.843  17.066  0.6357 -0.3909  0.0585
15631TIP3    H168308   6.350   1.923  17.063  1.0073 -0.6102  0.6241
15631TIP3    H268309   6.351   1.778  17.022  0.6520 -0.5091  0.2527
15632TIP3   OH268310   1.443   0.865   0.735  0.2875 -0.5492 -0.1082
15632TIP3    H168311   1.479   0.810   0.804  1.8916  2.1995  1.4176
15632TIP3    H268312   1.359   0.824   0.713  0.2886 -2.2245  2.5649
15633TIP3   OH268313   5.870   4.545  16.260  0.1631 -0.3094 -0.0159
15633TIP3    H168314   5.813   4.526  16.185 -0.8247  1.7286  0.1554
15633TIP3    H268315   5.829   4.500  16.334 -1.4700  1.3901  0.1687
15634TIP3   OH268316   5.297   4.626  16.501 -0.5314 -0.3084  0.9068
15634TIP3    H168317   5.222   4.635  16.441 -1.5897 -0.8505  2.1024
15634TIP3    H268318   5.337   4.712  16.502 -0.0999 -0.4355 -1.0508
15635TIP3   OH268319   0.889   6.129   3.563 -0.4759  0.0181  0.1501
15635TIP3    H168320   0.848   6.186   3.628  1.2244  0.3846  0.9593
15635TIP3    H268321   0.911   6.049   3.611  0.5727  0.1943  0.0047
15636TIP3   OH268322   1.682   3.988   4.824  0.6611 -0.2291  0.0137
15636TIP3    H168323   1.592   4.014   4.841  0.8256 -0.1645  0.8743
15636TIP3    H268324   1.676   3.915   4.762  0.1012  0.6771 -1.0234
15637TIP3   OH268325   1.355   0.603   3.147 -0.4154  0.4098 -0.5696
15637TIP3    H168326   1.370   0.694   3.124  0.6251 -0.2626 -2.9433
15637TIP3    H268327   1.288   0.573   3.086  0.5160 -0.8290 -1.0379
15638TIP3   OH268328   3.563   3.240  12.696  0.0009  0.3565 -0.3633
15638TIP3    H168329   3.574   3.151  12.730 -1.3540  0.1992 -0.2780
15638TIP3    H268330   3.650   3.280  12.705  0.3718 -0.6078  0.5980
15639TIP3   OH268331   0.422   6.467   3.240  0.5139  0.3229  0.1621
15639TIP3    H168332   0.511   6.444   3.268 -0.3007 -0.5159  2.2554
15639TIP3    H268333   0.434   6.538   3.177  2.6317  0.5110  0.7103
15640TIP3   OH268334   1.529   5.545  14.686 -0.1673  0.6151  0.1630
15640TIP3    H168335   1.537   5.633  14.723 -0.7563  0.9930 -0.5757
15640TIP3    H268336   1.604   5.537  14.626  0.0121  0.5275  0.3991
15641TIP3   OH268337   2.860   2.297  11.308 -0.4159 -0.8684 -0.4538
15641TIP3    H168338   2.868   2.261  11.219  0.0296 -1.8416 -0.0372
15641TIP3    H268339   2.927   2.251  11.358 -0.7646 -0.4341  0.4266
15642TIP3   OH268340   3.245   4.988   0.987 -0.2701 -0.3703 -0.0215
15642TIP3    H168341   3.324   4.966   1.037  1.1593 -0.3054 -2.1120
15642TIP3    H268342   3.211   4.903   0.959 -0.6924 -0.3753  0.4957
15643TIP3   OH268343   3.180   5.975  13.582 -0.1063 -0.6759  0.1968
15643TIP3    H168344   3.223   5.891  13.600 -0.3981 -0.6280  1.1819
15643TIP3    H268345   3.086   5.955  13.588 -0.2365 -0.6809 -1.4706
15644TIP3   OH268346   1.037   2.681   1.282 -0.2393  0.5219  0.0197
15644TIP3    H168347   0.983   2.753   1.248  0.7550  1.1307 -0.3129
15644TIP3    H268348   1.002   2.665   1.369  1.8292  4.0451  1.7398
15645TIP3   OH268349   1.940   0.940  15.466 -0.5567 -0.3545  0.2278
15645TIP3    H168350   1.849   0.938  15.438 -0.7019 -0.8185  0.7033
15645TIP3    H268351   1.978   0.860  15.429 -0.3734 -0.2192  0.1245
15646TIP3   OH268352   4.299   3.292   1.668  0.1438 -0.0643 -0.5445
15646TIP3    H168353   4.239   3.236   1.618  1.2273  0.6036 -2.7128
15646TIP3    H268354   4.267   3.287   1.758 -3.2631  0.4002 -1.5934
15647TIP3   OH268355   3.190   5.366  13.104 -0.0408 -0.8678  1.1041
15647TIP3    H168356   3.190   5.294  13.042 -0.6365 -0.1942  0.2948
15647TIP3    H268357   3.283   5.379  13.126  0.6453  0.9069 -2.1310
15648TIP3   OH268358   6.377   6.438  16.644 -0.1401  0.2239 -0.3773
15648TIP3    H168359   6.345   6.503  16.581 -0.1577  0.9284  0.3421
15648TIP3    H268360   6.469   6.427  16.623  0.0247  1.0023 -0.0626
15649TIP3   OH268361   5.399   0.645  13.416  0.0677  0.2515 -0.0733
15649TIP3    H168362   5.395   0.563  13.367  0.1856  0.6312 -0.7240
15649TIP3    H268363   5.358   0.624  13.500 -0.1621 -0.3971 -0.3397
15650TIP3   OH268364   5.032   5.572  15.503  0.1700  0.1187 -0.2126
15650TIP3    H168365   4.992   5.530  15.579 -0.9964 -2.0737 -1.9197
15650TIP3    H268366   4.985   5.655  15.494 -2.6005 -1.3909 -0.8423
15651TIP3   OH268367   0.035   6.008   1.177 -0.1151  0.1663  0.0103
15651TIP3    H168368  -0.032   5.940   1.176  0.1575 -0.1082  0.0924
15651TIP3    H268369   0.100   5.978   1.114 -0.3737  0.7479 -0.5476
15652TIP3   OH268370   6.319   4.463   2.231 -0.3955 -0.1157 -0.1056
15652TIP3    H168371   6.359   4.542   2.266 -2.2315  1.1399 -0.6698
15652TIP3    H268372   6.264   4.430   2.303 -1.1442  0.2555 -0.4945
15653TIP3   OH268373   6.464   3.639  16.891 -0.3852 -0.0232  0.0150
15653TIP3    H168374   6.496   3.558  16.932  1.6577  0.2492 -0.8782
15653TIP3    H268375   6.504   3.709  16.943  1.6587  0.3259 -1.8424
15654TIP3   OH268376   6.575   6.653  10.903  0.3410 -0.2097 -0.0978
15654TIP3    H168377   6.647   6.608  10.857  1.8995 -0.3883  2.3545
15654TIP3    H268378   6.586   6.628  10.995 -1.6856  1.3813  0.6377
15655TIP3   OH268379   3.498   3.501  10.683  0.2098  0.2385  0.2886
15655TIP3    H168380   3.430   3.533  10.743 -1.4766 -1.8115 -0.3907
15655TIP3    H268381   3.456   3.502  10.597  0.5869 -2.1545  0.0154
15656TIP3   OH268382   1.069   4.480   0.793 -0.0647  0.1788  0.4096
15656TIP3    H168383   1.140   4.486   0.857  0.3227  2.6281 -0.1421
15656TIP3    H268384   0.999   4.434   0.839  1.2909 -0.8715  1.5106
15657TIP3   OH268385   4.835   5.404   2.318 -0.0679  0.1404 -0.0650
15657TIP3    H168386   4.866   5.449   2.239  0.5916  0.5600  0.4220
15657TIP3    H268387   4.860   5.313   2.305 -1.2161 -0.0562 -0.9637
15658TIP3   OH268388   1.938   3.643   5.262 -0.1663  0.4533  0.4098
15658TIP3    H168389   1.874   3.643   5.333 -1.0597  0.3267 -0.3715
15658TIP3    H268390   1.886   3.631   5.182  0.9059 -0.5203 -0.1819
15659TIP3   OH268391   6.317   5.698  12.765  0.0407 -0.3783 -0.0681
15659TIP3    H168392   6.322   5.792  12.783  0.1492  0.1977 -2.6904
15659TIP3    H268393   6.224   5.677  12.772 -0.0398  0.0222  0.0928
15660TIP3   OH268394   3.024   3.467  15.148 -0.1427  0.1442 -0.1199
15660TIP3    H168395   3.035   3.378  15.116  0.1194  0.9263 -2.3493
15660TIP3    H268396   2.999   3.518  15.071 -1.6276  1.7721  1.3489
15661TIP3   OH268397   4.826   6.741   1.894 -0.5106  0.2243 -0.1722
15661TIP3    H168398   4.773   6.798   1.838 -0.8881 -0.1125 -0.1627
15661TIP3    H268399   4.917   6.765   1.873 -0.6505  0.2882 -0.7359
15662TIP3   OH268400   1.936   5.676  11.238  0.5792 -0.1339  0.1597
15662TIP3    H168401   1.891   5.718  11.165  0.9827  0.5505  0.2893
15662TIP3    H268402   2.014   5.636  11.199 -0.7924 -2.5287 -0.3029
15663TIP3   OH268403   0.591   6.552  15.356 -0.0599 -0.2927  0.2375
15663TIP3    H168404   0.576   6.551  15.451  1.7796 -0.2900  0.5623
15663TIP3    H268405   0.619   6.463  15.335  0.5371 -0.0258 -0.1151
15664TIP3   OH268406   5.062   4.199  15.235  0.3195  0.6490 -0.2405
15664TIP3    H168407   5.044   4.106  15.221 -0.1072  0.6925 -0.0233
15664TIP3    H268408   4.989   4.244  15.191 -0.0533  0.8397  0.5430
15665TIP3   OH268409   2.294   1.440  12.599 -0.0332  0.5306 -0.3782
15665TIP3    H168410   2.386   1.460  12.619  0.1900 -0.3524 -0.4652
15665TIP3    H268411   2.253   1.430  12.684  0.0799  0.3779 -0.3408
15666TIP3   OH268412   3.223   4.130   1.396  0.0585 -0.0366  0.8356
15666TIP3    H168413   3.226   4.120   1.301  0.1547 -1.5652  0.9794
15666TIP3    H268414   3.207   4.042   1.429 -0.9410  0.6251  2.2024
15667TIP3   OH268415   0.812   4.599   2.162  0.1428 -0.1487 -0.3146
15667TIP3    H168416   0.796   4.643   2.079  1.4252 -0.7101 -0.8794
15667TIP3    H268417   0.886   4.647   2.201 -1.5420  1.2564  1.3931
15668TIP3   OH268418   3.349   2.010   5.109 -0.4762  0.0418  0.1353
15668TIP3    H168419   3.259   1.998   5.138 -0.5870 -2.2474 -0.9753
15668TIP3    H268420   3.345   2.004   5.014  1.0404 -2.1389  0.1233
15669TIP3   OH268421   4.400   2.204   4.885  0.1176 -0.8350 -0.4646
15669TIP3    H168422   4.343   2.227   4.811 -0.1527  0.9556  0.2382
15669TIP3    H268423   4.349   2.230   4.962  1.1686 -0.8639  0.2569
15670TIP3   OH268424   6.584   6.722  13.718  0.2109 -0.0444  0.3814
15670TIP3    H168425   6.572   6.735  13.624  0.0009 -0.3331  0.3639
15670TIP3    H268426   6.547   6.635  13.735  1.3469 -0.5167  0.5187
15671TIP3   OH268427   5.677   3.988  14.487 -0.1836  0.5516 -0.3395
15671TIP3    H168428   5.761   3.943  14.496 -0.6559 -0.1358  1.0043
15671TIP3    H268429   5.630   3.965  14.567 -0.5035  3.3353  0.3654
15672TIP3   OH268430   5.338   3.932  15.758  0.1490  0.1435  0.2177
15672TIP3    H168431   5.275   3.861  15.744  1.7924 -1.7989  2.0408
15672TIP3    H268432   5.285   4.005  15.790 -1.4125 -0.7964 -0.1378
15673TIP3   OH268433   1.271   1.733   0.926 -0.4673 -0.2163  0.0020
15673TIP3    H168434   1.269   1.814   0.874  0.4852  0.1258  0.4787
15673TIP3    H268435   1.239   1.758   1.012  0.7497 -0.1129  0.4411
15674TIP3   OH268436   6.529   4.362  15.121 -0.2348 -0.3706  0.3005
15674TIP3    H168437   6.573   4.382  15.039 -0.7020  1.5169  0.4761
15674TIP3    H268438   6.594   4.313  15.172 -0.1191 -2.0244 -1.3419
15675TIP3   OH268439   0.427   0.550  12.747  0.5143  0.4567  0.0808
15675TIP3    H168440   0.420   0.467  12.700  3.2275 -0.8373  1.6808
15675TIP3    H268441   0.339   0.566  12.781 -0.0022 -2.0398  0.1048
15676TIP3   OH268442   4.264   4.182  15.967  0.6830  0.0129  0.1776
15676TIP3    H168443   4.232   4.272  15.959 -1.3312 -0.5625  1.2976
15676TIP3    H268444   4.229   4.150  16.050 -0.4633 -2.4958 -1.1608
15677TIP3   OH268445   0.410   3.743   6.742  0.0716 -0.5991  0.2185
15677TIP3    H168446   0.434   3.686   6.669  0.7173 -0.3421  0.2230
15677TIP3    H268447   0.351   3.807   6.703  1.3199  0.2405 -0.3597
15678TIP3   OH268448   0.704   3.441   1.157 -0.2556  0.2217 -0.2004
15678TIP3    H168449   0.635   3.388   1.197 -1.4088  0.7098 -1.4477
15678TIP3    H268450   0.693   3.427   1.063  1.5230  0.1307 -0.4362
15679TIP3   OH268451   1.530   3.091  15.679  0.2952 -0.2340  0.3621
15679TIP3    H168452   1.467   3.152  15.640  0.6648  0.1433  0.3436
15679TIP3    H268453   1.493   3.005  15.662 -1.0427  0.0089  1.7839
15680TIP3   OH268454   1.105   6.301  11.231  0.1634  0.2168  0.5717
15680TIP3    H168455   1.026   6.259  11.197  1.1868 -0.4096 -1.1036
15680TIP3    H268456   1.087   6.395  11.222  0.4962  0.0972 -2.0912
15681TIP3   OH268457   2.285   6.749   1.212 -0.5350 -0.0596  0.5352
15681TIP3    H168458   2.295   6.801   1.292 -0.5331 -0.3264  0.7101
15681TIP3    H268459   2.195   6.765   1.183 -0.4409  0.2758  0.4200
15682TIP3   OH268460   3.426   5.901  11.308 -0.2473 -0.1748  0.8381
15682TIP3    H168461   3.433   5.855  11.224  0.7558  1.0984  0.1826
15682TIP3    H268462   3.339   5.942  11.306  1.3512  3.7271 -1.7844
15683TIP3   OH268463   2.228   4.580  11.521  0.2630  0.0068  0.4782
15683TIP3    H168464   2.250   4.620  11.437 -0.8278 -1.2326 -0.4303
15683TIP3    H268465   2.300   4.606  11.579  0.0263  2.5838 -0.2378
15684TIP3   OH268466   1.061   5.327   5.771 -0.1309 -0.0898 -0.4744
15684TIP3    H168467   1.136   5.284   5.730 -0.2680 -0.0069 -0.8142
15684TIP3    H268468   1.038   5.271   5.844  1.2251  0.6620  0.5786
15685TIP3   OH268469   4.931   4.664   2.397  0.0028  0.0120 -0.0447
15685TIP3    H168470   4.843   4.628   2.400 -0.7892  1.8608  1.3599
15685TIP3    H268471   4.923   4.743   2.343  0.5080  0.7825  0.9578
15686TIP3   OH268472   2.867   0.333   5.700  0.2763  0.0689  0.2773
15686TIP3    H168473   2.913   0.262   5.655  0.7449 -1.3529  2.8053
15686TIP3    H268474   2.909   0.337   5.786 -1.7950  1.3511  1.2861
15687TIP3   OH268475   2.647   4.905  12.833  0.0219 -0.0998 -0.6065
15687TIP3    H168476   2.660   4.976  12.895  0.3941  1.3772 -2.2862
15687TIP3    H268477   2.621   4.830  12.886 -1.5763  1.5923  1.1083
15688TIP3   OH268478   5.968   5.296   4.596  0.0256  0.5709 -0.1670
15688TIP3    H168479   5.957   5.269   4.687  1.6906  1.9060  0.4930
15688TIP3    H268480   6.007   5.220   4.553  1.2236  0.6235  0.7742
15689TIP3   OH268481   4.289   0.915   4.290 -0.4410 -0.2237 -0.4585
15689TIP3    H168482   4.368   0.938   4.339  0.1651  2.4433 -2.4842
15689TIP3    H268483   4.225   0.891   4.358  1.2166  0.3231  1.4020
15690TIP3   OH268484   1.715   0.906  12.891 -0.2163  0.4002  0.1968
15690TIP3    H168485   1.698   0.920  12.985  2.1083  1.4453  0.5508
15690TIP3    H268486   1.708   0.993  12.852  2.5219  0.7197  0.1737
15691TIP3   OH268487   0.262   1.711  12.564  0.1173  0.1393  0.2252
15691TIP3    H168488   0.310   1.734  12.643 -0.3239 -0.0440  0.5523
15691TIP3    H268489   0.307   1.758  12.494  0.6156  0.1623  0.5604
15692TIP3   OH268490   3.256   4.556  10.700  0.4257 -0.0127 -0.0541
15692TIP3    H168491   3.291   4.645  10.706 -2.5958  1.2325  0.9471
15692TIP3    H268492   3.192   4.561  10.629 -0.9043 -0.9246  1.0399
15693TIP3   OH268493   2.572   4.510  15.253 -0.0475  1.2152  0.4633
15693TIP3    H168494   2.536   4.526  15.165  0.5520 -1.4456 -0.3511
15693TIP3    H268495   2.494   4.497  15.308 -0.4358  0.0435 -0.3190
15694TIP3   OH268496   2.227   2.182   2.495 -0.0287  0.2051  0.4935
15694TIP3    H168497   2.209   2.181   2.401  0.7013  1.0246  0.3347
15694TIP3    H268498   2.307   2.233   2.504 -0.1674  0.2611  1.5774
15695TIP3   OH268499   6.548   6.656  13.424 -0.2736 -0.1144  0.4846
15695TIP3    H168500   6.513   6.701  13.348  2.0042 -0.4643 -0.8734
15695TIP3    H268501   6.612   6.594  13.388  0.9002 -0.2897  2.6700
15696TIP3   OH268502   0.794   4.776   1.714 -0.0707  0.3166 -0.7358
15696TIP3    H168503   0.749   4.854   1.682  0.8108  1.0713 -0.1679
15696TIP3    H268504   0.783   4.778   1.809  1.1044  0.5012 -0.5818
15697TIP3   OH268505   4.386   3.724  12.520  0.3512  0.3707 -0.2790
15697TIP3    H168506   4.375   3.769  12.604 -0.9912  0.9481 -0.7432
15697TIP3    H268507   4.403   3.793  12.457  1.8225 -0.1017 -0.4379
15698TIP3   OH268508   5.472   2.332  13.389  0.6582 -0.6664 -0.0115
15698TIP3    H168509   5.415   2.408  13.398 -0.7444 -1.8297  1.4817
15698TIP3    H268510   5.556   2.369  13.362 -0.5566  1.1773 -1.5571
15699TIP3   OH268511   4.411   1.602   4.431 -0.2461 -0.1845 -0.0254
15699TIP3    H168512   4.386   1.640   4.347 -0.8180 -0.0583  0.2006
15699TIP3    H268513   4.454   1.519   4.408  1.0718  0.6045 -0.5246
15700TIP3   OH268514   4.082   0.621   4.360 -0.3524 -0.5019  0.1551
15700TIP3    H168515   4.013   0.636   4.295 -1.3134 -1.2805  0.9605
15700TIP3    H268516   4.140   0.557   4.318 -1.2564 -1.4073  0.2366
15701TIP3   OH268517   2.212   1.901   0.967 -0.0063  0.0887  0.0065
15701TIP3    H168518   2.307   1.903   0.978  0.3432  3.5506 -1.9681
15701TIP3    H268519   2.177   1.942   1.047  0.5971  2.5215 -0.8735
15702TIP3   OH268520   2.445   6.619  14.579  0.2143 -0.2466  0.2624
15702TIP3    H168521   2.514   6.605  14.514 -0.2483  0.4369 -0.4037
15702TIP3    H268522   2.464   6.557  14.649 -0.2233 -2.2324 -1.2888
15703TIP3   OH268523   5.758   4.427  11.543  0.2115  0.4624  0.2643
15703TIP3    H168524   5.705   4.454  11.618  3.7944  1.3913  2.7741
15703TIP3    H268525   5.789   4.339  11.565 -1.1558 -0.5958 -1.7421
15704TIP3   OH268526   6.190   0.216  14.551  0.2953  0.6417 -0.4123
15704TIP3    H168527   6.217   0.128  14.524  0.6467  1.2632 -2.2486
15704TIP3    H268528   6.148   0.203  14.636  1.1367 -1.1639 -0.2214
15705TIP3   OH268529   3.181   0.976  16.120  0.5822 -0.1850 -0.0481
15705TIP3    H168530   3.090   0.964  16.092 -0.1987  0.0733  2.1801
15705TIP3    H268531   3.215   1.046  16.065 -0.4677 -0.4888 -1.1110
15706TIP3   OH268532   5.908   5.356  13.228  0.0770  0.1260  0.2661
15706TIP3    H168533   5.973   5.425  13.217  0.3688 -0.0371  0.9258
15706TIP3    H268534   5.837   5.398  13.278  0.6121 -0.2522  1.3817
15707TIP3   OH268535   2.942   4.546  16.689  0.1137  0.1714 -0.0250
15707TIP3    H168536   2.902   4.472  16.642 -1.1001  0.5384  0.3802
15707TIP3    H268537   2.910   4.537  16.779  1.6250  0.0399  0.5241
15708TIP3   OH268538   0.001   2.194   1.556 -0.5228 -0.2642  0.4621
15708TIP3    H168539  -0.094   2.197   1.567 -0.4969 -1.6503  1.3363
15708TIP3    H268540   0.036   2.234   1.635 -0.3068  3.0646 -1.1308
15709TIP3   OH268541   3.177   6.021  14.056  0.0955 -0.2617  0.1280
15709TIP3    H168542   3.239   5.986  14.120  0.1618 -2.3439 -0.9756
15709TIP3    H268543   3.220   6.098  14.020  1.8624 -1.3517 -0.2266
15710TIP3   OH268544   1.661   0.569  15.479  0.9192  0.6838 -0.1736
15710TIP3    H168545   1.662   0.497  15.417  1.4613  1.0029 -0.5466
15710TIP3    H268546   1.577   0.612  15.465 -1.0219 -1.8310  2.4055
15711TIP3   OH268547   5.611   1.801   5.850 -0.4481  0.1815  0.0227
15711TIP3    H168548   5.530   1.848   5.871 -1.4173 -1.3898  0.0381
15711TIP3    H268549   5.681   1.861   5.875 -1.5851  0.8480  1.8606
15712TIP3   OH268550   2.110   3.672   0.476  0.5785  0.2695 -0.0335
15712TIP3    H168551   2.019   3.680   0.446  0.6743 -1.5621 -0.9573
15712TIP3    H268552   2.163   3.687   0.398  1.0515  0.6205  0.3480
15713TIP3   OH268553   1.659   4.736  16.250  0.3035  0.1084 -0.4561
15713TIP3    H168554   1.715   4.678  16.199 -0.3372 -1.1327  0.2036
15713TIP3    H268555   1.712   4.760  16.326  0.3325 -0.1893 -0.3810
15714TIP3   OH268556   4.253   2.329   2.821 -0.3709  0.6381 -0.4226
15714TIP3    H168557   4.203   2.279   2.756 -0.8139 -1.0219  1.1314
15714TIP3    H268558   4.332   2.277   2.836  1.0634  2.3681 -1.5633
15715TIP3   OH268559   0.927   6.670   0.402 -0.0455  0.8042 -0.2746
15715TIP3    H168560   0.996   6.698   0.462  0.6636 -0.1811 -0.6106
15715TIP3    H268561   0.846   6.690   0.449  0.4913  0.4129  0.8570
15716TIP3   OH268562   1.391   1.311  11.851 -0.6294 -0.2967  0.4728
15716TIP3    H168563   1.467   1.300  11.908  0.8663 -0.8021 -1.4719
15716TIP3    H268564   1.411   1.257  11.774 -1.1518  2.4264 -1.7778
15717TIP3   OH268565   4.695   4.991  16.514  0.4616  0.1270  0.3730
15717TIP3    H168566   4.686   5.028  16.602 -0.9817 -3.6064  2.0146
15717TIP3    H268567   4.702   4.896  16.528  0.8007 -0.6063 -3.5439
15718TIP3   OH268568   3.430   3.512   1.179  0.1972 -0.1851  0.0345
15718TIP3    H168569   3.399   3.462   1.255  0.0327  1.1556  0.8978
15718TIP3    H268570   3.350   3.545   1.139  0.3482  1.9418  1.3222
15719TIP3   OH268571   4.789   2.938  11.638  0.5625 -0.6288  0.1605
15719TIP3    H168572   4.874   2.897  11.623  2.0061  1.6482  1.5626
15719TIP3    H268573   4.798   2.982  11.722 -1.4506  1.1292 -0.4569
15720TIP3   OH268574   6.277   3.498   0.546  0.2697  0.6780  0.0293
15720TIP3    H168575   6.190   3.468   0.521  0.6121 -2.0733  1.7390
15720TIP3    H268576   6.317   3.526   0.463 -0.6797 -2.3580 -1.6027
15721TIP3   OH268577   3.076   5.613   1.871 -0.1195 -0.0538  0.6801
15721TIP3    H168578   3.026   5.592   1.950  1.4280 -1.8106  1.2633
15721TIP3    H268579   3.106   5.528   1.839 -0.0812  0.6924 -1.4064
15722TIP3   OH268580   2.299   1.534   5.230 -0.1417 -0.2326  0.3453
15722TIP3    H168581   2.255   1.608   5.271 -1.3339 -1.1276  0.7356
15722TIP3    H268582   2.388   1.537   5.265  0.6213  2.4105 -1.4817
15723TIP3   OH268583   1.354   1.980  16.757 -0.5973 -0.2916 -0.2702
15723TIP3    H168584   1.335   2.003  16.848 -1.0562 -0.8926 -0.2023
15723TIP3    H268585   1.340   1.885  16.754 -1.5733 -0.1269 -1.2068
15724TIP3   OH268586   3.298   5.695   1.311 -0.1256  0.0333 -0.0550
15724TIP3    H168587   3.317   5.786   1.287 -0.0360 -0.0250 -0.2089
15724TIP3    H268588   3.203   5.686   1.296 -0.4857  0.6191  1.7097
15725TIP3   OH268589   0.390   4.009  13.076 -0.3267  0.2893 -0.1376
15725TIP3    H168590   0.308   4.055  13.061 -1.2533 -1.3076 -0.1908
15725TIP3    H268591   0.382   3.973  13.164  0.5709  0.5970  0.0815
15726TIP3   OH268592   0.412   3.935  14.428 -0.7346  0.0265  0.2879
15726TIP3    H168593   0.436   4.026  14.413  0.1981 -0.3351 -0.5463
15726TIP3    H268594   0.320   3.938  14.456 -0.5907  1.2377  0.6605
15727TIP3   OH268595   1.916   1.782  14.235  0.2625  0.9953  0.6523
15727TIP3    H168596   1.825   1.793  14.264  0.1250 -0.3699  0.8176
15727TIP3    H268597   1.923   1.837  14.158 -0.9443  0.5366  0.1847
15728TIP3   OH268598   3.417   1.592   2.665  0.4608  1.1544 -0.2437
15728TIP3    H168599   3.324   1.595   2.689 -0.3586  3.3535 -3.1248
15728TIP3    H268600   3.462   1.571   2.747 -2.5672 -0.6033  1.1384
15729TIP3   OH268601   6.544   6.608  15.914 -0.2350  0.0501 -0.4535
15729TIP3    H168602   6.458   6.648  15.930 -0.2526 -0.2626  0.2191
15729TIP3    H268603   6.596   6.679  15.875 -0.9648  0.0808 -1.4235
15730TIP3   OH268604   5.411   4.111  13.145  0.0541 -0.3919 -0.2100
15730TIP3    H168605   5.467   4.140  13.073 -0.6447  0.0043 -0.6065
15730TIP3    H268606   5.323   4.135  13.118 -0.1894  0.0351  0.9178
15731TIP3   OH268607   0.555   3.647   1.594 -0.4437  0.0088  0.2480
15731TIP3    H168608   0.592   3.627   1.508  1.1257  1.0355  0.6215
15731TIP3    H268609   0.512   3.731   1.583 -1.9544 -0.7680  0.0335
15732TIP3   OH268610   2.378   4.865  13.092 -0.7378  0.3296  0.5580
15732TIP3    H168611   2.326   4.856  13.171  1.1900 -1.3672  1.7150
15732TIP3    H268612   2.393   4.776  13.062 -0.8426  0.9081 -1.3639
15733TIP3   OH268613   6.088   3.498   5.574 -0.3170  0.1749 -0.0446
15733TIP3    H168614   6.067   3.591   5.578  2.2452  0.8290 -0.1175
15733TIP3    H268615   6.105   3.473   5.665 -1.1676 -0.2707 -0.0057
15734TIP3   OH268616   0.849   4.164   1.200 -0.4131  0.6540 -0.5393
15734TIP3    H168617   0.872   4.213   1.279  0.8577  1.1240 -1.1669
15734TIP3    H268618   0.834   4.075   1.231  1.8344  0.4006  0.0555
15735TIP3   OH268619   3.042   5.645   0.187 -0.0680 -0.1287  0.4734
15735TIP3    H168620   3.135   5.668   0.188 -0.0543 -0.1621  1.5091
15735TIP3    H268621   3.039   5.558   0.147  0.4851 -0.5798  1.3613
15736TIP3   OH268622   2.487   1.291   4.018 -0.3131  0.6955 -0.2801
15736TIP3    H168623   2.490   1.195   4.019  1.7226  0.7169  0.1606
15736TIP3    H268624   2.475   1.316   4.110 -1.0975  0.8813 -0.4246
15737TIP3   OH268625   6.668   4.166  12.706 -0.4925  0.1567 -0.2044
15737TIP3    H168626   6.598   4.176  12.770  1.8811  1.1933  2.4526
15737TIP3    H268627   6.658   4.240  12.647 -0.7378  1.2219  1.1268
15738TIP3   OH268628   1.782   5.461   4.778  0.3395 -0.1380  0.8289
15738TIP3    H168629   1.729   5.432   4.705  0.1003  0.3238  0.8177
15738TIP3    H268630   1.748   5.413   4.854  0.4381 -0.4420  0.6813
15739TIP3   OH268631   6.415   1.576   4.108 -0.4435 -0.1780  0.3301
15739TIP3    H168632   6.446   1.636   4.040  0.1878 -1.1544 -0.2680
15739TIP3    H268633   6.329   1.611   4.133 -0.6290  0.2860 -0.8637
15740TIP3   OH268634   5.972   1.264   3.573  0.0393  0.1501 -0.3265
15740TIP3    H168635   6.066   1.266   3.591 -0.1818 -1.0086  1.2187
15740TIP3    H268636   5.942   1.182   3.613 -1.4485 -0.0731 -1.7882
15741TIP3   OH268637   5.252   4.453  14.825  0.3426 -0.0912 -0.2640
15741TIP3    H168638   5.327   4.448  14.884  1.0175 -0.4050 -1.1447
15741TIP3    H268639   5.177   4.461  14.884  1.0058 -0.3494  0.6412
15742TIP3   OH268640   5.200   4.315  16.448 -0.0581 -0.4394 -0.5077
15742TIP3    H168641   5.218   4.409  16.440 -1.5122  0.2013  2.5633
15742TIP3    H268642   5.279   4.273  16.415  0.4292  1.7808 -2.4859
15743TIP3   OH268643   3.663   5.150  13.629 -0.1362  0.2283  0.4254
15743TIP3    H168644   3.693   5.228  13.582 -0.8959 -0.2595 -0.9197
15743TIP3    H268645   3.702   5.077  13.581  0.8181 -0.2529  1.8480
15744TIP3   OH268646   5.591   1.303  16.885  0.1583 -0.1635 -0.3955
15744TIP3    H168647   5.588   1.274  16.793 -2.6336 -0.9786 -0.1576
15744TIP3    H268648   5.512   1.355  16.895 -0.2629 -1.1453  1.8471
15745TIP3   OH268649   2.001   5.987   4.057 -0.0378 -0.8031 -0.4694
15745TIP3    H168650   1.996   5.939   3.974  1.2274 -1.1767 -0.3545
15745TIP3    H268651   2.024   5.920   4.122 -1.4372 -0.5957  0.2818
15746TIP3   OH268652   2.676   2.844  15.596  0.2147  0.5826  0.1124
15746TIP3    H168653   2.662   2.863  15.689 -2.1375  2.6793 -0.5582
15746TIP3    H268654   2.655   2.751  15.586  0.3741  0.3608  1.6359
15747TIP3   OH268655   2.523   2.708  16.962 -0.2366 -0.7670 -0.0876
15747TIP3    H168656   2.590   2.640  16.956  0.3016 -0.1400 -1.9212
15747TIP3    H268657   2.448   2.671  16.915 -0.4358 -0.6321  0.1251
15748TIP3   OH268658   2.281   0.608  15.553  1.1233  0.3475  0.2360
15748TIP3    H168659   2.332   0.611  15.472 -1.9321  1.4983 -1.8293
15748TIP3    H268660   2.268   0.514  15.569  2.0897  0.0901 -0.3690
15749TIP3   OH268661   1.812   5.319  11.777 -0.1108 -0.1631 -0.1596
15749TIP3    H168662   1.842   5.300  11.866 -0.1939 -0.5290 -0.2087
15749TIP3    H268663   1.802   5.414  11.775 -0.2776 -0.1673  0.2799
15750TIP3   OH268664   0.730   0.626  13.002  0.0204 -0.1549  0.2244
15750TIP3    H168665   0.689   0.557  13.054  2.2139 -1.6881  0.0608
15750TIP3    H268666   0.719   0.705  13.055  1.1496 -1.4443  2.5182
15751TIP3   OH268667   4.610   0.684  10.798  0.1935  0.1146  0.4037
15751TIP3    H168668   4.550   0.615  10.770 -1.2821  1.1194  0.9343
15751TIP3    H268669   4.555   0.762  10.805  1.4238  0.9249  1.6394
15752TIP3   OH268670   3.132   6.785   0.848  0.0164  1.0152 -0.5527
15752TIP3    H168671   3.080   6.758   0.924  0.6253  0.9613 -0.1509
15752TIP3    H268672   3.186   6.709   0.828 -0.1455  1.0262 -1.0519
15753TIP3   OH268673   6.158   5.862  11.885  0.2841 -0.2526 -0.0811
15753TIP3    H168674   6.093   5.831  11.821 -1.0221  0.6836  0.7543
15753TIP3    H268675   6.109   5.917  11.945  1.1443 -2.2527  2.6571
15754TIP3   OH268676   3.104   2.485  12.289  0.3356 -0.5570  0.2032
15754TIP3    H168677   3.055   2.437  12.356  0.2505 -1.3133 -0.3907
15754TIP3    H268678   3.159   2.546  12.339 -0.0558 -0.7963  0.9413
15755TIP3   OH268679   2.786   1.588   1.733 -0.5654  0.9143 -0.3140
15755TIP3    H168680   2.818   1.642   1.805  0.9237 -2.8387  2.1419
15755TIP3    H268681   2.693   1.578   1.750 -0.8114  2.4235 -0.6699
15756TIP3   OH268682   3.155   4.009  13.323 -0.1050 -0.3122 -0.1742
15756TIP3    H168683   3.201   4.093  13.313 -2.2375  0.7652 -1.7175
15756TIP3    H268684   3.205   3.963  13.390  1.9764  1.5991 -0.2792
15757TIP3   OH268685   4.201   5.934   0.263 -0.6660 -0.3926 -0.1562
15757TIP3    H168686   4.175   6.026   0.261  0.8318  0.0424 -1.2171
15757TIP3    H268687   4.123   5.886   0.233 -1.2724  0.5739 -0.1548
15758TIP3   OH268688   3.445   5.472  16.822  0.1648 -0.2160  0.3082
15758TIP3    H168689   3.435   5.490  16.729  1.4985 -1.0435 -0.0172
15758TIP3    H268690   3.447   5.558  16.864 -1.3707  0.1521 -0.2904
15759TIP3   OH268691   4.794   6.387  11.397 -0.3097  0.0678 -0.6306
15759TIP3    H168692   4.828   6.333  11.325  1.5277  0.6110 -0.2169
15759TIP3    H268693   4.837   6.472  11.386 -0.5910  0.3975  0.6745
15760TIP3   OH268694   2.927   6.766  15.910  0.1668 -0.0281 -0.2254
15760TIP3    H168695   2.922   6.723  15.825 -1.1687 -0.4399  0.0335
15760TIP3    H268696   3.020   6.759  15.935  0.8492  1.2856 -2.1994
15761TIP3   OH268697   2.617   0.387  13.140 -0.3706  0.6960 -0.5495
15761TIP3    H168698   2.586   0.374  13.050 -1.0046  0.5877 -0.3273
15761TIP3    H268699   2.537   0.408  13.189 -0.0516  0.6038  0.0136
15762TIP3   OH268700   5.404   2.809  14.107 -0.2012 -0.3520 -0.2317
15762TIP3    H168701   5.314   2.785  14.086  0.6195 -3.3446 -0.7373
15762TIP3    H268702   5.451   2.801  14.024  0.6829  0.5440  0.1551
15763TIP3   OH268703   5.377   4.716  14.707  0.8030  0.4593  0.1469
15763TIP3    H168704   5.316   4.711  14.780 -1.3966  1.5855 -1.4884
15763TIP3    H268705   5.435   4.790  14.728  0.9813  0.0273  1.2491
15764TIP3   OH268706   2.518   5.694  13.098 -0.0900 -0.4095  0.6569
15764TIP3    H168707   2.498   5.773  13.147 -1.3009  0.4815 -1.1970
15764TIP3    H268708   2.474   5.705  13.014 -0.5105 -3.1660  0.4198
15765TIP3   OH268709   1.820   6.762   0.259 -0.2481  0.3180 -0.4977
15765TIP3    H168710   1.829   6.855   0.279  1.1970 -0.1243  1.2293
15765TIP3    H268711   1.880   6.747   0.186  0.2053  0.6071 -0.1961
15766TIP3   OH268712   4.502   5.106   3.173 -0.3142 -0.5347 -0.1193
15766TIP3    H168713   4.431   5.042   3.172 -0.6671 -0.1625  0.4034
15766TIP3    H268714   4.484   5.161   3.250 -1.4252  1.7195 -1.8483
15767TIP3   OH268715   3.820   1.822  16.685 -0.3333 -0.6583 -0.3610
15767TIP3    H168716   3.797   1.870  16.765  2.0605  0.0723 -0.0279
15767TIP3    H268717   3.784   1.876  16.614 -0.4838 -0.0851  0.1404
15768TIP3   OH268718   5.909   0.996   3.963 -0.6096  0.3209 -0.1977
15768TIP3    H168719   5.894   1.017   4.055 -0.8223 -1.5593  0.2443
15768TIP3    H268720   5.821   0.977   3.928 -0.2549 -2.9492  0.3369
15769TIP3   OH268721   2.008   6.287   1.395  0.3213  0.2355  0.2409
15769TIP3    H168722   1.994   6.193   1.380 -1.6591  0.4277  0.6736
15769TIP3    H268723   1.937   6.330   1.348  1.3493  1.5610 -0.1620
15770TIP3   OH268724   2.442   1.492   1.143 -0.1258  0.2131  0.6446
15770TIP3    H168725   2.378   1.509   1.074 -0.7664  0.7113  1.3392
15770TIP3    H268726   2.412   1.410   1.184  0.9884 -0.7900 -0.4751
15771TIP3   OH268727   3.191   6.034  11.304  0.7025  0.8751  0.6221
15771TIP3    H168728   3.105   6.029  11.345  0.9479 -0.4199  1.0323
15771TIP3    H268729   3.176   6.014  11.212  0.6950 -0.5797  0.9145
15772TIP3   OH268730   5.679   3.471  16.670 -0.2207  0.0746  0.8657
15772TIP3    H168731   5.720   3.519  16.598  0.6520  1.1100  2.0035
15772TIP3    H268732   5.620   3.535  16.710 -1.3803 -0.7702  0.5207
15773TIP3   OH268733   6.503   6.038  13.175  0.4356  0.1653 -0.0922
15773TIP3    H168734   6.511   6.133  13.169  0.1682  0.1168 -1.4267
15773TIP3    H268735   6.457   6.023  13.258 -1.8842  1.3514 -1.0697
15774TIP3   OH268736   2.463   4.868  16.879 -0.1355 -0.2878 -0.4180
15774TIP3    H168737   2.460   4.962  16.895 -1.9990 -0.4801  0.6020
15774TIP3    H268738   2.375   4.837  16.899  1.1124 -2.6795  1.9870
15775TIP3   OH268739   1.557   6.474   5.595 -0.4672  0.1301 -0.4971
15775TIP3    H168740   1.473   6.496   5.556  0.0107  1.0579 -1.0387
15775TIP3    H268741   1.616   6.465   5.520  0.3364  1.3861 -0.0344
15776TIP3   OH268742   4.137   1.902   4.598  0.2583 -0.1395 -0.4886
15776TIP3    H168743   4.166   1.810   4.597  0.8265  0.0359 -0.5627
15776TIP3    H268744   4.162   1.933   4.685 -3.0638 -1.0089  0.9171
15777TIP3   OH268745   0.249   6.302  14.697 -0.0920 -0.8138  0.3176
15777TIP3    H168746   0.261   6.397  14.699 -0.2147 -0.7961  0.2683
15777TIP3    H268747   0.203   6.286  14.614 -0.8502 -0.8208  0.7255
15778TIP3   OH268748   4.961   1.022  12.237 -0.3641 -0.1625  0.4372
15778TIP3    H168749   4.892   1.067  12.286 -0.9281 -0.1780 -0.3212
15778TIP3    H268750   4.966   1.069  12.154  1.6874  0.8732  1.0803
15779TIP3   OH268751   3.933   5.210  14.232 -0.5923  0.2202  0.3717
15779TIP3    H168752   3.960   5.273  14.299  2.9269  2.3846 -2.6875
15779TIP3    H268753   4.003   5.145  14.230 -2.0243 -1.3859  0.5609
15780TIP3   OH268754   1.518   1.709   3.951 -0.3459 -0.2249  0.5755
15780TIP3    H168755   1.499   1.784   4.007 -0.8563  0.6079 -0.6719
15780TIP3    H268756   1.433   1.669   3.934 -0.2596 -0.1755  0.0028
15781TIP3   OH268757   1.274   3.192  17.049 -0.4082 -0.3385 -0.3266
15781TIP3    H168758   1.212   3.200  17.122 -1.5154  0.2088 -1.3067
15781TIP3    H268759   1.245   3.257  16.986  1.3109  0.0659 -0.7258
15782TIP3   OH268760   3.547   4.109   5.391 -0.9730  0.0284  0.4186
15782TIP3    H168761   3.537   4.019   5.424 -0.2307  0.3589  1.6258
15782TIP3    H268762   3.637   4.132   5.413  0.0666 -0.1497 -3.0836
15783TIP3   OH268763   1.893   1.887  15.717 -0.0946  0.2000 -0.4757
15783TIP3    H168764   1.850   1.828  15.655  0.9069  0.4918 -1.4809
15783TIP3    H268765   1.847   1.872  15.800 -0.3456 -1.4441 -0.8819
15784TIP3   OH268766   6.088   5.539  16.294 -0.1844  0.6328  0.4489
15784TIP3    H168767   6.068   5.620  16.247 -1.1749  0.4975  0.6239
15784TIP3    H268768   6.075   5.560  16.386 -0.4289  0.2829  0.4984
15785TIP3   OH268769   6.593   3.027  15.924  0.5538 -0.6773 -0.1427
15785TIP3    H168770   6.602   2.992  15.835 -2.1823 -3.2962  0.4507
15785TIP3    H268771   6.528   3.097  15.915 -0.5087 -1.6240 -0.1342
15786TIP3   OH268772   2.407   3.379   2.864  0.0069  0.3105 -0.1778
15786TIP3    H168773   2.450   3.455   2.902  0.9720 -0.3694  0.1312
15786TIP3    H268774   2.342   3.415   2.804  0.1684  1.3718  0.2735
15787TIP3   OH268775   4.272   3.736  10.827 -0.2017 -0.0170 -0.3552
15787TIP3    H168776   4.285   3.830  10.812  0.2342 -0.0885 -0.4250
15787TIP3    H268777   4.209   3.710  10.759 -0.6779  0.3155 -0.0491
15788TIP3   OH268778   2.965   0.690  13.799  0.8901 -0.3152  0.2430
15788TIP3    H168779   3.059   0.671  13.795  0.9563  0.1522 -0.6565
15788TIP3    H268780   2.929   0.652  13.719  0.4877  0.4122  0.0681
15789TIP3   OH268781   0.044   1.040   0.646  0.5101  0.0929  0.0712
15789TIP3    H168782   0.073   1.075   0.730  0.1501  1.7833 -0.4777
15789TIP3    H268783   0.063   1.109   0.583  0.4101 -0.9930 -1.1906
15790TIP3   OH268784   4.076   3.031  15.428 -0.2194 -0.1976 -0.2939
15790TIP3    H168785   3.985   3.058  15.413 -1.1208 -2.5511  0.4250
15790TIP3    H268786   4.073   2.979  15.508  1.5437 -1.2954 -0.8722
15791TIP3   OH268787   2.497   6.565  12.720 -0.4342 -0.3083  0.5721
15791TIP3    H168788   2.418   6.510  12.718 -2.5135  2.4677  1.1688
15791TIP3    H268789   2.484   6.628  12.650  1.9200 -0.5379 -0.1424
15792TIP3   OH268790   0.298   4.999   1.721 -0.2635  0.1959 -0.3400
15792TIP3    H168791   0.216   5.048   1.726 -0.1315  0.3369  2.8616
15792TIP3    H268792   0.284   4.923   1.778  1.9638  0.5446  0.7674
15793TIP3   OH268793   6.385   0.461   0.667  0.2229 -0.3387 -0.0434
15793TIP3    H168794   6.336   0.522   0.721 -0.2023  0.0605 -0.8532
15793TIP3    H268795   6.410   0.391   0.727 -1.7556 -0.8008  0.3309
15794TIP3   OH268796   1.562   3.878  15.976  0.1674  0.6214  0.3642
15794TIP3    H168797   1.511   3.944  15.929  1.5169  2.3992  1.2923
15794TIP3    H268798   1.622   3.928  16.031  1.9585 -1.3914  0.3795
15795TIP3   OH268799   3.820   3.216   3.564 -0.5632 -0.3102 -0.4806
15795TIP3    H168800   3.895   3.160   3.579  0.0872  0.2216 -1.5789
15795TIP3    H268801   3.762   3.165   3.508 -0.1858 -0.0790 -1.0958
15796TIP3   OH268802   5.334   1.999   3.284  1.0654 -0.2636  0.0867
15796TIP3    H168803   5.279   2.037   3.216 -0.5933 -0.2660  1.3484
15796TIP3    H268804   5.404   1.953   3.237 -0.3185 -0.7195 -1.6172
15797TIP3   OH268805   2.426   2.424  11.271  0.1597  0.7665 -0.0282
15797TIP3    H168806   2.444   2.448  11.180  1.1717 -0.4673 -0.1796
15797TIP3    H268807   2.396   2.333  11.266  0.6093  0.5586  0.9037
15798TIP3   OH268808   2.192   0.188   5.237 -0.5265  0.9428  0.1730
15798TIP3    H168809   2.155   0.256   5.293  0.6005  2.1628 -0.5103
15798TIP3    H268810   2.122   0.165   5.177 -0.8421  1.7007  0.2391
15799TIP3   OH268811   6.788   0.674  15.210 -0.3113  0.0661  0.5394
15799TIP3    H168812   6.710   0.676  15.155 -0.2502 -2.7683  0.1811
15799TIP3    H268813   6.758   0.640  15.294  0.5117 -1.3425  0.3069
15800TIP3   OH268814   6.594   1.191   2.990 -0.2614  0.1679 -0.0453
15800TIP3    H168815   6.583   1.165   3.081  1.5594 -0.8071 -0.0519
15800TIP3    H268816   6.605   1.286   2.993  2.2530 -0.0797  1.0831
15801TIP3   OH268817   1.181   6.082   1.094  0.4978 -0.2179 -0.2162
15801TIP3    H168818   1.142   6.113   1.176 -0.4035  1.0630 -1.0723
15801TIP3    H268819   1.111   6.032   1.052  0.4983  0.2215 -0.7623
15802TIP3   OH268820   6.408   4.578  15.386  0.3765  0.4869 -0.1227
15802TIP3    H168821   6.492   4.550  15.348  0.8867 -1.7049  2.3392
15802TIP3    H268822   6.428   4.662  15.427  0.2962  1.9223 -2.7955
15803TIP3   OH268823   3.894   5.082   4.906  0.4721  0.1224  0.5507
15803TIP3    H168824   3.824   5.046   4.961  0.0223 -1.0113 -0.7161
15803TIP3    H268825   3.854   5.094   4.820  0.4459  4.1708  0.9105
15804TIP3   OH268826   4.497   5.306  16.387  0.4513 -0.6562 -0.4570
15804TIP3    H168827   4.522   5.214  16.380 -1.4159 -1.1387 -1.5587
15804TIP3    H268828   4.403   5.304  16.405  0.5298  1.0459  0.3184
15805TIP3   OH268829   6.185   0.387  11.620  0.5199 -0.4071 -0.0010
15805TIP3    H168830   6.242   0.340  11.680  0.7209  0.5208  0.5514
15805TIP3    H268831   6.135   0.318  11.576  0.7439 -1.1274  0.8367
15806TIP3   OH268832   3.504   2.018  14.956 -0.7071  0.1592  0.7812
15806TIP3    H168833   3.588   2.053  14.986 -1.6847 -0.2780  4.5527
15806TIP3    H268834   3.459   2.093  14.918  1.0922  0.5156 -0.8218
15807TIP3   OH268835   6.727   0.081   0.017 -0.0108 -0.1433 -0.6150
15807TIP3    H168836   6.704   0.161  -0.031 -0.6453 -0.9789 -1.7496
15807TIP3    H268837   6.821   0.069   0.001 -0.0164  0.1075 -0.8363
15808TIP3   OH268838   2.905   5.265  15.622 -0.3635  0.3893 -0.3510
15808TIP3    H168839   2.923   5.241  15.713  1.3096 -0.2557 -0.8237
15808TIP3    H268840   2.811   5.285  15.621 -0.1696  1.7704  1.8055
15809TIP3   OH268841   4.057   0.118  12.015 -0.0394  0.0087 -0.2098
15809TIP3    H168842   3.986   0.090  11.957  0.6869  0.6827 -1.4666
15809TIP3    H268843   4.018   0.187  12.070 -0.7553 -0.7005  0.1849
15810TIP3   OH268844   3.349   3.101   5.515 -0.1674 -0.5952  0.3340
15810TIP3    H168845   3.277   3.040   5.497 -0.8469 -0.4938  2.4331
15810TIP3    H268846   3.322   3.183   5.474 -1.5780 -0.3987  1.5662
15811TIP3   OH268847   3.974   4.177  11.098  0.7968 -0.1526  0.1569
15811TIP3    H168848   3.970   4.146  11.189  2.3062  0.5673  0.5037
15811TIP3    H268849   3.984   4.098  11.046 -1.8184 -0.7537  0.3994
15812TIP3   OH268850   0.783   6.327   3.039  0.5467  0.5345 -0.5383
15812TIP3    H168851   0.822   6.240   3.045  0.6075  0.4448 -1.9276
15812TIP3    H268852   0.719   6.329   3.110  1.0163 -0.3948 -0.0674
15813TIP3   OH268853   3.237   1.096   1.329 -0.2819 -0.1178 -0.3956
15813TIP3    H168854   3.217   1.158   1.399  0.0707 -0.1763 -0.2383
15813TIP3    H268855   3.298   1.144   1.272  1.4215 -0.8935  0.6731
15814TIP3   OH268856   0.927   5.793  16.636 -0.2017  0.3320  0.2779
15814TIP3    H168857   0.900   5.793  16.544 -0.5178 -1.7316  0.3219
15814TIP3    H268858   0.974   5.875  16.647  0.9570  0.0885 -2.0734
15815TIP3   OH268859   4.093   2.685  11.873  0.5145  0.0265 -0.3777
15815TIP3    H168860   4.159   2.753  11.857  2.5186 -2.2270 -2.4353
15815TIP3    H268861   4.120   2.612  11.818 -2.1860 -2.0624  0.8547
15816TIP3   OH268862   5.475   6.174   0.985 -0.3383 -0.3657  0.5273
15816TIP3    H168863   5.415   6.237   0.945  0.0259 -1.4509 -1.8686
15816TIP3    H268864   5.417   6.109   1.026 -0.8085 -0.7919 -0.7780
15817TIP3   OH268865   4.866   5.602   3.372 -0.2672  0.3327 -0.3164
15817TIP3    H168866   4.820   5.556   3.302  0.9415  0.7714 -1.4308
15817TIP3    H268867   4.811   5.678   3.392  0.0685  0.9966 -1.8143
15818TIP3   OH268868   5.613   3.250   5.404  0.1006 -0.0441  0.6646
15818TIP3    H168869   5.634   3.171   5.454 -0.1605 -1.6303 -1.5777
15818TIP3    H268870   5.697   3.295   5.394 -0.0097  0.9501  3.3955
15819TIP3   OH268871   0.894   2.251   4.611 -0.5679  0.3677  0.0833
15819TIP3    H168872   0.934   2.304   4.680  0.0889  0.7613 -0.5761
15819TIP3    H268873   0.878   2.313   4.540  1.9074 -0.5684 -1.4244
15820TIP3   OH268874   3.884   0.046   2.143 -0.3948 -0.2194 -0.4036
15820TIP3    H168875   3.953   0.012   2.086  0.0530 -2.4588  1.3269
15820TIP3    H268876   3.806  -0.003   2.119 -1.0477  1.1648 -1.2513
15821TIP3   OH268877   4.317   4.041  17.098  0.7777 -0.2112 -0.2613
15821TIP3    H168878   4.398   4.052  17.048  0.7583 -1.5034 -0.6053
15821TIP3    H268879   4.248   4.038  17.032  0.4770  0.4660  0.0090
15822TIP3   OH268880   0.420   0.385  16.140 -0.2302 -0.0325 -0.2803
15822TIP3    H168881   0.497   0.330  16.153  0.1141  0.6385  0.6426
15822TIP3    H268882   0.422   0.446  16.214 -1.4637  0.2068 -0.4329
15823TIP3   OH268883   5.456   1.853   4.001 -0.5571  0.0330  0.3137
15823TIP3    H168884   5.369   1.815   3.987 -1.4745  2.0286  0.3304
15823TIP3    H268885   5.505   1.829   3.922 -2.2840  1.8898 -1.4234
15824TIP3   OH268886   2.205   4.361   3.495 -0.0925 -0.4371 -0.1855
15824TIP3    H168887   2.214   4.266   3.482 -0.2064 -0.4158 -0.4303
15824TIP3    H268888   2.285   4.398   3.458 -1.4558 -0.1776 -3.1416
15825TIP3   OH268889   4.564   6.331   1.532 -0.4829  0.2821  0.1816
15825TIP3    H168890   4.478   6.347   1.571 -1.4022 -1.9990 -0.7153
15825TIP3    H268891   4.595   6.252   1.575  0.9378  0.7715  0.0894
15826TIP3   OH268892   5.797   6.541   0.027  0.4803 -0.7138 -0.3394
15826TIP3    H168893   5.782   6.621  -0.023  0.4038  0.4565  1.4335
15826TIP3    H268894   5.806   6.472  -0.038 -0.2281  0.6135 -1.8946
15827TIP3   OH268895   5.332   0.743  13.981  1.1710 -0.1550  0.3319
15827TIP3    H168896   5.416   0.699  13.991  2.1608  1.6315  0.2813
15827TIP3    H268897   5.342   0.798  13.903  0.0681  0.3168  0.4943
15828TIP3   OH268898   1.730   1.887   1.639  0.5313  0.1414 -0.1241
15828TIP3    H168899   1.763   1.950   1.702  2.3917 -0.9945  0.1165
15828TIP3    H268900   1.780   1.807   1.657  1.0714 -0.2615 -2.9520
15829TIP3   OH268901   1.464   2.386  13.159 -0.3482 -0.2023 -0.4376
15829TIP3    H168902   1.406   2.458  13.184  0.7933  0.6101 -0.0511
15829TIP3    H268903   1.552   2.424  13.159  0.2393 -1.4837 -0.6823
15830TIP3   OH268904   6.123   5.678  16.537 -0.3782 -0.9200  1.0253
15830TIP3    H168905   6.145   5.736  16.464 -0.7343 -2.6244 -0.5104
15830TIP3    H268906   6.200   5.622  16.547 -0.3706 -0.7651  1.9274
15831TIP3   OH268907   3.816   4.745  12.738  0.2903  0.0808 -0.4301
15831TIP3    H168908   3.805   4.833  12.775 -0.6716  0.0876 -0.7017
15831TIP3    H268909   3.731   4.725  12.699  0.5105 -0.9627 -0.3970
15832TIP3   OH268910   2.089   3.573  13.517 -0.2654 -0.0731  0.0059
15832TIP3    H168911   2.123   3.662  13.524  0.8473 -0.5776  1.4713
15832TIP3    H268912   1.994   3.584  13.512 -0.3715  1.1240  2.9139
15833TIP3   OH268913   0.905   4.116   1.966 -0.3754 -0.1676  0.2841
15833TIP3    H168914   0.849   4.168   1.909 -0.8884 -0.1062  0.8357
15833TIP3    H268915   0.937   4.045   1.910 -1.8974 -0.8429  0.2227
15834TIP3   OH268916   3.845   6.672  15.482  0.1015 -0.5015 -0.5438
15834TIP3    H168917   3.933   6.640  15.500  0.5820  0.5714 -0.9174
15834TIP3    H268918   3.808   6.693  15.568  0.8886  0.7536 -0.4859
15835TIP3   OH268919   1.025   5.427  12.301  0.0490 -0.1277  0.6099
15835TIP3    H168920   1.067   5.502  12.259  1.8135 -0.0373  2.3876
15835TIP3    H268921   1.066   5.350  12.262 -0.8036 -0.1682 -0.2512
15836TIP3   OH268922   4.504   2.074  17.146  0.0426  0.0712 -0.1960
15836TIP3    H168923   4.466   2.097  17.061 -1.8675  1.1030  0.8630
15836TIP3    H268924   4.598   2.090  17.136 -0.4889  3.2751 -1.2052
15837TIP3   OH268925   4.414   2.349  12.648 -0.0245  0.4371 -0.0226
15837TIP3    H168926   4.454   2.306  12.724  0.7144  0.3888 -0.4236
15837TIP3    H268927   4.396   2.277  12.587  0.5908  0.6119 -0.4195
15838TIP3   OH268928   1.356   1.816  12.209 -0.4158  0.5359  0.2271
15838TIP3    H168929   1.281   1.840  12.263 -0.6687  0.8247 -0.2390
15838TIP3    H268930   1.341   1.862  12.126  1.1571  2.0192  0.7070
15839TIP3   OH268931   5.536   3.671   1.970  0.1171  0.2178  0.0582
15839TIP3    H168932   5.590   3.659   1.892 -1.8942 -0.8258 -1.2635
15839TIP3    H268933   5.476   3.741   1.947 -0.5688 -0.1744  0.6067
15840TIP3   OH268934   5.565   6.711   1.085  0.6768  0.1672 -0.1857
15840TIP3    H168935   5.497   6.700   1.151 -0.3478 -1.5088 -1.4317
15840TIP3    H268936   5.618   6.784   1.117 -1.6544  1.5238  0.8683
15841TIP3   OH268937   1.739   5.451   1.777 -0.3349 -0.1307  0.7150
15841TIP3    H168938   1.717   5.462   1.869 -0.1127  0.5180  0.6934
15841TIP3    H268939   1.658   5.420   1.737 -0.5279 -0.0886  1.0673
15842TIP3   OH268940   4.415   0.271  15.953  0.5545  0.0261 -0.4283
15842TIP3    H168941   4.339   0.216  15.972 -0.6292  1.4329 -0.9121
15842TIP3    H268942   4.486   0.208  15.937 -0.2001 -1.3075  1.1296
15843TIP3   OH268943   3.920   5.474  16.189 -0.0732  0.2178  0.2281
15843TIP3    H168944   3.921   5.381  16.166  0.2300  0.1227  0.6186
15843TIP3    H268945   3.937   5.476  16.283  0.1635  0.6765  0.1786
15844TIP3   OH268946   6.385   2.804   3.999  0.1370  0.0402 -0.0838
15844TIP3    H168947   6.413   2.794   3.907 -0.3926 -3.2796 -0.0298
15844TIP3    H268948   6.293   2.778   3.999  0.3101 -0.6906  1.4481
15845TIP3   OH268949   4.043   6.326   1.277  0.0396  0.3338  0.0791
15845TIP3    H168950   4.120   6.292   1.321  1.2132  2.3468 -0.3049
15845TIP3    H268951   4.073   6.406   1.234 -2.8804  3.0462  2.5554
15846TIP3   OH268952   3.618   0.256  14.585 -0.4149 -0.1851  0.1362
15846TIP3    H168953   3.630   0.267  14.679 -1.5687  1.0490  0.1670
15846TIP3    H268954   3.706   0.268  14.548  0.0105 -0.4949  1.0302
15847TIP3   OH268955   5.260   3.585   3.170 -0.0060 -0.3434  0.0115
15847TIP3    H168956   5.292   3.672   3.195 -0.6864 -0.0476 -0.1165
15847TIP3    H268957   5.315   3.559   3.097  1.0069 -0.5607  0.8270
15848TIP3   OH268958   6.411   5.385  14.510 -0.2039  0.1321  0.2431
15848TIP3    H168959   6.473   5.353  14.576  0.4179  1.0799  0.1431
15848TIP3    H268960   6.358   5.451  14.557 -1.9769 -1.4956  0.6589
15849TIP3   OH268961   3.800   5.390   5.214 -0.1296  0.1343 -0.5385
15849TIP3    H168962   3.889   5.384   5.249 -0.7422 -0.1890  1.0300
15849TIP3    H268963   3.779   5.483   5.219  0.3289  0.3020 -1.5024
15850TIP3   OH268964   5.519   4.087   1.481 -0.2715 -0.0931  0.1408
15850TIP3    H168965   5.427   4.096   1.458  0.3617  0.4690 -2.5046
15850TIP3    H268966   5.554   4.025   1.417  1.4136  0.5737  0.3772
15851TIP3   OH268967   5.076   4.665   5.375  0.4700  0.3331  0.4756
15851TIP3    H168968   5.143   4.628   5.432  1.2783  0.7935 -0.1483
15851TIP3    H268969   4.995   4.658   5.425  0.6653 -1.7522  0.6208
15852TIP3   OH268970   1.424   5.098   4.349  0.2936 -0.5643 -0.6977
15852TIP3    H168971   1.432   5.131   4.259  0.8067 -2.0365 -1.2135
15852TIP3    H268972   1.417   5.003   4.340 -0.3106 -0.6924  0.7958
15853TIP3   OH268973   5.476   1.373   1.259  0.1604  0.3181 -0.8701
15853TIP3    H168974   5.531   1.432   1.311 -0.6114  1.6546 -1.5181
15853TIP3    H268975   5.501   1.389   1.169 -0.6793  0.3207 -1.1140
15854TIP3   OH268976   5.487   3.399  13.381  0.0295  0.4132  0.1353
15854TIP3    H168977   5.433   3.321  13.381  0.6736 -0.0429 -0.1792
15854TIP3    H268978   5.460   3.447  13.303  1.8505 -1.1049 -1.5556
15855TIP3   OH268979   5.845   4.849   0.151  0.3230  0.0795  0.6573
15855TIP3    H168980   5.822   4.782   0.216 -1.4672  0.7531  0.7817
15855TIP3    H268981   5.924   4.815   0.109 -0.4761 -2.0729  0.7642
15856TIP3   OH268982   0.217   2.179   1.371  0.0957  0.2913 -0.0829
15856TIP3    H168983   0.139   2.162   1.424 -0.4330  1.0884 -0.5792
15856TIP3    H268984   0.269   2.100   1.379 -1.0887 -0.5345 -0.2919
15857TIP3   OH268985   3.332   0.788  13.604 -0.5646 -0.3928 -0.4256
15857TIP3    H168986   3.323   0.880  13.581  2.2521  0.4417  1.3367
15857TIP3    H268987   3.321   0.741  13.521 -2.3957  1.4262 -1.3011
15858TIP3   OH268988   0.011   3.478  12.622  0.1905  0.2437 -0.6440
15858TIP3    H168989  -0.015   3.561  12.582  1.5855 -0.0807 -2.3441
15858TIP3    H268990   0.100   3.493  12.654 -0.6304  0.2781  1.8679
15859TIP3   OH268991   5.178   4.067  12.795  0.1191  0.4949  0.2891
15859TIP3    H168992   5.258   4.113  12.770 -0.0068  0.8695  0.5779
15859TIP3    H268993   5.123   4.070  12.717  0.7812 -0.6430 -0.2464
15860TIP3   OH268994   5.667   0.019   3.280 -0.2951 -0.1430 -0.0744
15860TIP3    H168995   5.648   0.095   3.226  1.7010 -0.0722 -0.7289
15860TIP3    H268996   5.737   0.048   3.339 -0.2988 -1.1407  0.4396
15861TIP3   OH268997   5.464   1.211  12.963 -0.2084  0.2259 -0.2191
15861TIP3    H168998   5.378   1.175  12.986  0.8946 -1.7895  1.1279
15861TIP3    H268999   5.466   1.211  12.868 -1.2816 -0.8411 -0.2620
15862TIP3   OH269000   4.430   6.082  12.498  0.0039  0.0047  0.1019
15862TIP3    H169001   4.386   6.089  12.583 -1.0795 -1.2672 -0.3346
15862TIP3    H269002   4.363   6.103  12.434  0.8481  1.0831 -0.4686
15863TIP3   OH269003   4.104   1.604  12.035  0.1493  0.5447  0.0221
15863TIP3    H169004   4.135   1.514  12.026  0.6222  0.6963  0.1289
15863TIP3    H269005   4.009   1.598  12.022  0.0618 -0.0906  0.8977
15864TIP3   OH269006   5.405   4.009   4.683 -0.0077 -0.3302 -0.0721
15864TIP3    H169007   5.383   4.049   4.767  1.4279 -1.6108  0.9790
15864TIP3    H269008   5.450   3.927   4.706 -1.8575 -2.0553 -2.1008
15865TIP3   OH269009   0.493   3.404   1.351 -0.0845 -0.6046 -0.4504
15865TIP3    H169010   0.446   3.335   1.305 -2.2805  0.2270  0.4225
15865TIP3    H269011   0.427   3.471   1.368  1.3480  0.4837  1.1646
15866TIP3   OH269012   5.447   5.699  16.167  0.2863  0.3309 -0.1144
15866TIP3    H169013   5.477   5.653  16.246  0.2080 -1.1348 -0.9202
15866TIP3    H269014   5.352   5.698  16.174  0.2896  1.3365  0.3731
15867TIP3   OH269015   5.559   5.077  14.242  0.7872  1.4943 -0.3149
15867TIP3    H169016   5.615   5.130  14.185 -1.7022  2.2160 -2.2877
15867TIP3    H269017   5.565   4.989  14.206  0.0963  1.7318 -1.0582
15868TIP3   OH269018   2.433   2.130  17.087  0.1527 -0.4228 -0.2334
15868TIP3    H169019   2.383   2.101  17.163 -0.5886  1.2211 -0.0523
15868TIP3    H269020   2.471   2.050  17.051 -1.1904 -1.4892  0.6361
15869TIP3   OH269021   0.281   5.329  13.573  0.2706 -0.1956 -0.0731
15869TIP3    H169022   0.373   5.355  13.565  0.4207 -1.0858 -1.7754
15869TIP3    H269023   0.233   5.395  13.523 -0.0884  0.5725  1.2649
15870TIP3   OH269024   3.881   5.861  14.092 -0.0351  0.4029  0.0471
15870TIP3    H169025   3.952   5.925  14.098 -0.6804  1.4397 -2.2908
15870TIP3    H269026   3.843   5.859  14.180  3.0379 -0.4683  1.4776
15871TIP3   OH269027   5.970   6.191  15.250 -0.3746 -0.7039 -0.2539
15871TIP3    H169028   6.053   6.234  15.228 -0.3161 -0.8333 -0.2911
15871TIP3    H269029   5.993   6.098  15.257 -0.7888 -0.9293 -1.6571
15872TIP3   OH269030   4.316   0.243   5.944 -0.4779  0.0002  0.8749
15872TIP3    H169031   4.273   0.212   6.024 -0.2961  1.3078  1.5157
15872TIP3    H269032   4.276   0.192   5.874 -0.6011 -1.2160  1.8021
15873TIP3   OH269033   2.084   3.800   3.467 -0.9334  0.2444  0.3782
15873TIP3    H169034   2.054   3.717   3.506  1.3045 -0.5083  0.6279
15873TIP3    H269035   2.178   3.788   3.454 -0.8125  2.2123 -1.0091
15874TIP3   OH269036   1.678   2.904  11.392  0.0344  0.6483  0.1569
15874TIP3    H169037   1.686   2.819  11.437  0.4607  0.7108  0.2072
15874TIP3    H269038   1.758   2.951  11.418 -1.1580  1.8719  1.8302
15875TIP3   OH269039   3.006   0.702   0.885 -0.3140 -0.5370  0.2761
15875TIP3    H169040   3.073   0.761   0.850 -0.5151 -1.1546 -1.2544
15875TIP3    H269041   2.955   0.676   0.808 -1.5260 -1.0615  1.2309
15876TIP3   OH269042   4.134   0.991   1.336  0.5800 -0.2376  0.0059
15876TIP3    H169043   4.210   0.997   1.393  0.5459  2.2045 -0.0866
15876TIP3    H269044   4.062   1.028   1.388  0.1416  0.2403 -0.9109
15877TIP3   OH269045   6.108   0.463  12.052 -0.3236 -0.6880 -0.0159
15877TIP3    H169046   6.029   0.419  12.018 -1.7615  1.7393 -0.0226
15877TIP3    H269047   6.077   0.514  12.126  1.4810 -0.4431  0.6138
15878TIP3   OH269048   5.723   5.337   0.515 -0.1597  0.0730  0.8628
15878TIP3    H169049   5.779   5.264   0.543  0.4437  0.1680 -0.0409
15878TIP3    H269050   5.753   5.411   0.568  0.9581  0.2458  0.0420
15879TIP3   OH269051   0.023   5.150  15.091 -0.4988  0.2822 -0.1651
15879TIP3    H169052   0.118   5.142  15.088 -0.4671  0.8526 -1.8011
15879TIP3    H269053  -0.008   5.084  15.029 -1.1760  0.1797  0.2738
15880TIP3   OH269054   0.737   4.802  14.758 -0.6509 -0.3780 -0.6407
15880TIP3    H169055   0.734   4.729  14.820 -0.2887 -0.4477 -0.7000
15880TIP3    H269056   0.670   4.780  14.693 -1.5270  0.0523  0.1000
15881TIP3   OH269057   4.223   1.816   1.194 -0.6490  0.3994 -0.5111
15881TIP3    H169058   4.228   1.902   1.153 -1.2846  0.0619 -1.3313
15881TIP3    H269059   4.271   1.826   1.277  2.2916  0.6400 -2.0877
15882TIP3   OH269060   1.214   6.473  16.536 -0.0037  0.0320  0.4137
15882TIP3    H169061   1.288   6.412  16.541 -0.6891 -0.8471  0.2020
15882TIP3    H269062   1.223   6.514  16.449  2.0787  2.4266  1.6242
15883TIP3   OH269063   3.446   5.815   4.511  0.0634  0.7065  0.1866
15883TIP3    H169064   3.377   5.801   4.447  0.1107  1.3938 -0.0268
15883TIP3    H269065   3.523   5.836   4.460  0.5056 -0.2896  0.4171
15884TIP3   OH269066   5.826   0.243   4.262  0.2480  0.2726  0.3369
15884TIP3    H169067   5.850   0.334   4.276  1.8101 -0.2810  1.5920
15884TIP3    H269068   5.854   0.198   4.342 -0.2461 -1.3513 -0.3570
15885TIP3   OH269069   2.370   3.947  14.762 -0.2042  0.3085 -0.0143
15885TIP3    H169070   2.304   4.016  14.774  0.6226  0.8814  1.6183
15885TIP3    H269071   2.324   3.866  14.782 -1.1458  0.3678 -1.7798
15886TIP3   OH269072   6.625   5.902   1.904  0.1137  0.3488 -0.3711
15886TIP3    H169073   6.530   5.903   1.899  0.0822  0.1732  0.1723
15886TIP3    H269074   6.652   5.848   1.829 -0.2210  0.2292 -0.4063
15887TIP3   OH269075   2.445   4.103   3.849  0.2104  0.1345  0.4656
15887TIP3    H169076   2.367   4.048   3.851 -0.2295  0.5288 -2.1252
15887TIP3    H269077   2.418   4.185   3.891 -0.5784  0.0141  0.2114
15888TIP3   OH269078   6.231   2.418  14.979  0.4353  0.5054 -0.4078
15888TIP3    H169079   6.300   2.352  14.981  0.4813  0.5030 -1.5278
15888TIP3    H269080   6.195   2.413  14.890 -1.1192  0.3933  0.1851
15889TIP3   OH269081   4.196   3.730  15.996 -0.6136 -0.0134 -0.4796
15889TIP3    H169082   4.286   3.739  16.028 -0.3498 -1.7492 -0.6179
15889TIP3    H269083   4.160   3.819  15.998  0.5083  0.4450  1.3290
15890TIP3   OH269084   5.372   2.929   1.037 -0.5548  0.2707  0.1556
15890TIP3    H169085   5.346   2.910   1.128 -2.1882  0.0964 -0.3202
15890TIP3    H269086   5.347   2.850   0.989  1.0839  0.0165 -0.3284
15891TIP3   OH269087   0.610   5.745  15.130 -0.2408 -0.2947  0.4289
15891TIP3    H169088   0.578   5.824  15.087 -1.4487 -0.7912  0.3752
15891TIP3    H269089   0.568   5.746  15.216  0.3987 -0.4465  0.7469
15892TIP3   OH269090   4.318   0.364   5.259  0.4861 -0.0488  0.6306
15892TIP3    H169091   4.319   0.459   5.246 -0.4668 -0.0168  0.7737
15892TIP3    H269092   4.251   0.349   5.325 -0.8978 -1.0113 -0.9247
15893TIP3   OH269093   1.053   2.731   3.113 -0.1077  0.1851  0.2370
15893TIP3    H169094   1.000   2.791   3.061 -1.2504  0.3043  1.4899
15893TIP3    H269095   1.105   2.788   3.169 -1.8819  0.0919  2.1097
15894TIP3   OH269096   3.901   2.477   4.272 -0.0865  0.3802 -0.4063
15894TIP3    H169097   3.908   2.569   4.246  1.4942  0.0303 -1.3745
15894TIP3    H269098   3.992   2.448   4.278 -0.5459 -1.6705 -2.2104
15895TIP3   OH269099   2.678   0.494   3.518  0.1612 -0.6111  0.0035
15895TIP3    H169100   2.702   0.430   3.451 -1.6553 -0.1805 -1.1422
15895TIP3    H269101   2.720   0.575   3.490 -1.5361 -0.1435 -1.3362
15896TIP3   OH269102   0.151   5.644   5.399 -0.0934 -0.1724  0.6632
15896TIP3    H169103   0.225   5.626   5.457  0.2397 -1.0367  0.0026
15896TIP3    H269104   0.076   5.653   5.458 -0.0003 -2.2952  1.1764
15897TIP3   OH269105   2.633   2.822   3.077  0.0932  0.5166 -0.2211
15897TIP3    H169106   2.601   2.836   2.988 -0.0584  0.3081 -0.1998
15897TIP3    H269107   2.704   2.759   3.067  1.3581  1.9074 -0.4239
15898TIP3   OH269108   3.521   4.818  16.578 -0.0875 -0.1648 -0.1677
15898TIP3    H169109   3.460   4.886  16.549 -0.1304  0.2548  0.8686
15898TIP3    H269110   3.602   4.866  16.597  0.1643 -0.5352 -0.3062
15899TIP3   OH269111   0.345   3.856   3.536  0.0286 -0.4421 -0.4996
15899TIP3    H169112   0.277   3.796   3.568 -1.1613  1.0168 -0.1779
15899TIP3    H269113   0.365   3.912   3.612  0.5765  0.0429 -0.9893
15900TIP3   OH269114   3.216   0.912   2.243 -0.1119 -0.1009 -0.5085
15900TIP3    H169115   3.310   0.896   2.253  0.1416  0.3973 -1.7966
15900TIP3    H269116   3.212   0.988   2.184 -1.3229 -0.3487 -0.7619
15901TIP3   OH269117   1.101   2.184   1.706  0.2607  0.1968 -0.8470
15901TIP3    H169118   1.071   2.093   1.697  2.2529 -0.5963 -0.0153
15901TIP3    H269119   1.123   2.210   1.616  0.8808 -0.6005 -0.9418
15902TIP3   OH269120   5.037   4.004   4.902  0.2827 -0.1069  0.9760
15902TIP3    H169121   5.078   4.088   4.922 -2.6010  1.0364  2.7825
15902TIP3    H269122   5.034   4.002   4.806  1.5057  1.2416  0.8681
15903TIP3   OH269123   5.707   0.783  11.857  0.4261  0.3307  0.0735
15903TIP3    H169124   5.681   0.730  11.782 -0.0168  1.2652 -0.4435
15903TIP3    H269125   5.734   0.719  11.923  1.3835 -0.4940 -1.0725
15904TIP3   OH269126   0.697   5.346  14.022 -0.0653 -0.2486  0.0506
15904TIP3    H169127   0.735   5.394  13.949 -1.0966 -0.1272 -0.4181
15904TIP3    H269128   0.650   5.273  13.982 -0.5377 -0.2505  0.5872
15905TIP3   OH269129   2.921   4.528   3.840  0.5438 -0.2241  0.1177
15905TIP3    H169130   2.989   4.509   3.775  1.1748 -0.7830  0.9294
15905TIP3    H269131   2.966   4.577   3.909 -0.0341  0.0136  0.3351
15906TIP3   OH269132   6.250   4.429  15.582 -0.6320  0.4636  0.3609
15906TIP3    H169133   6.167   4.398  15.618  0.6400 -2.0397  1.3692
15906TIP3    H269134   6.300   4.349  15.563  1.3879  1.8620 -0.6564
15907TIP3   OH269135   2.862   0.424  11.906  0.6203 -0.0283 -0.0169
15907TIP3    H169136   2.855   0.389  11.995  2.6700  0.7008  0.4877
15907TIP3    H269137   2.910   0.357  11.858 -1.1680 -0.7854 -0.8577
15908TIP3   OH269138   4.632   1.734  12.947  0.0150 -0.1360  0.5903
15908TIP3    H169139   4.714   1.779  12.925 -0.2759  0.0061 -0.2634
15908TIP3    H269140   4.636   1.721  13.042  1.0563 -0.1899  0.5537
15909TIP3   OH269141   6.079   1.611  10.951  0.3863 -0.5261 -0.4467
15909TIP3    H169142   6.091   1.642  11.041 -1.7902 -0.3081 -0.1786
15909TIP3    H269143   6.082   1.690  10.898 -1.4815 -0.2394 -0.1763
15910TIP3   OH269144   1.918   2.821   3.455 -0.3275  0.2500  0.6772
15910TIP3    H169145   1.845   2.881   3.468  0.5204  1.4699  0.0033
15910TIP3    H269146   1.975   2.865   3.392 -0.5106 -2.0368 -1.2051
15911TIP3   OH269147   6.259   6.735  14.359  0.1463 -0.3681 -0.3160
15911TIP3    H169148   6.268   6.719  14.265  0.1018  2.7973 -0.9731
15911TIP3    H269149   6.345   6.771  14.385 -0.4517  0.6382  0.3577
15912TIP3   OH269150   0.729   3.257  16.616 -0.0538 -0.0190 -0.1679
15912TIP3    H169151   0.673   3.242  16.540  0.5071  1.5958 -0.9429
15912TIP3    H269152   0.680   3.317  16.672 -0.7509 -1.7144  1.1262
15913TIP3   OH269153   3.756   1.517   5.759  0.0952  0.3443 -0.1935
15913TIP3    H169154   3.825   1.484   5.815 -0.2359 -0.0136  0.0080
15913TIP3    H269155   3.753   1.456   5.685 -0.7143 -0.2666  0.3239
15914TIP3   OH269156   6.321   1.809  10.622  0.2853  0.1975  0.0053
15914TIP3    H169157   6.255   1.822  10.554 -2.8606 -0.0751  2.7553
15914TIP3    H269158   6.346   1.717  10.615  1.6351  0.6239 -1.9472
15915TIP3   OH269159   1.897   0.015   4.628 -0.1203  0.5701 -0.5877
15915TIP3    H169160   1.984   0.054   4.622  0.3633 -0.3645  0.0322
15915TIP3    H269161   1.874  -0.007   4.538 -0.0709  1.5575 -0.8505
15916TIP3   OH269162   6.637   4.846  13.313  0.7102 -0.3267  0.1717
15916TIP3    H169163   6.664   4.823  13.402  0.8733  0.9373  0.4771
15916TIP3    H269164   6.676   4.778  13.258  1.8550 -0.3221  0.9216
15917TIP3   OH269165   5.749   5.311   1.917  0.6279 -0.0991 -0.1998
15917TIP3    H169166   5.779   5.238   1.971 -0.6033  0.0112  0.6574
15917TIP3    H269167   5.663   5.334   1.952  0.4492  0.9533 -1.2592
15918TIP3   OH269168   1.342   3.023  16.593 -0.2688  0.2286  0.1017
15918TIP3    H169169   1.370   3.113  16.576 -0.0383  0.3714  1.1354
15918TIP3    H269170   1.300   3.027  16.679 -1.3275 -0.4358 -0.3656
15919TIP3   OH269171   0.383   3.428  16.946 -0.0436 -0.1312 -0.2941
15919TIP3    H169172   0.367   3.387  16.860 -0.4722  0.0822 -0.3214
15919TIP3    H269173   0.406   3.518  16.925  2.4051 -0.6959 -0.3188
15920TIP3   OH269174   5.991   1.901   4.148  0.2436  0.2890  0.2210
15920TIP3    H169175   5.939   1.980   4.162  1.2405  1.3068 -1.4880
15920TIP3    H269176   5.941   1.832   4.192 -1.5403  1.5450  0.2972
15921TIP3   OH269177   6.460   6.427   2.929 -0.6093  0.2503  0.0814
15921TIP3    H169178   6.513   6.348   2.935  0.8210  1.0097 -1.7068
15921TIP3    H269179   6.391   6.406   2.866 -0.1905  0.4434 -0.4433
15922TIP3   OH269180   1.736   1.686   0.804  0.2217 -0.1231  0.2367
15922TIP3    H169181   1.799   1.742   0.849 -1.4119  2.2541 -0.1872
15922TIP3    H269182   1.724   1.727   0.718 -0.3679 -1.6955 -0.4728
15923TIP3   OH269183   5.082   0.382  14.844 -0.1427  0.2164  0.5366
15923TIP3    H169184   5.073   0.411  14.754  0.3331  0.6753  0.6340
15923TIP3    H269185   4.993   0.357  14.870 -0.3376  0.3887  0.0478
15924TIP3   OH269186   2.908   0.415   3.664 -0.4428  0.1524  0.0578
15924TIP3    H169187   2.841   0.482   3.648 -0.6929  0.6601  2.7401
15924TIP3    H269188   2.923   0.419   3.758  3.2695 -0.0860 -0.3914
15925TIP3   OH269189   2.519   5.728   0.733 -0.2134 -0.0068  0.6987
15925TIP3    H169190   2.540   5.793   0.800  0.3541 -0.8151  1.3360
15925TIP3    H269191   2.472   5.659   0.780  0.0080 -0.4861  0.2288
15926TIP3   OH269192   2.738   6.748   4.326  0.7667  0.0025 -0.2933
15926TIP3    H169193   2.797   6.822   4.317  1.6224 -0.5869  0.3680
15926TIP3    H269194   2.747   6.699   4.244  2.8178 -1.2182  0.5717
15927TIP3   OH269195   2.890   4.977  15.628 -0.4402 -0.2473 -0.2596
15927TIP3    H169196   2.968   5.032  15.616 -0.9062  0.2296 -1.3055
15927TIP3    H269197   2.888   4.922  15.549  0.7966 -2.8389  1.3845
15928TIP3   OH269198   1.164   0.846  17.025 -0.2340  0.5582  0.8521
15928TIP3    H169199   1.250   0.886  17.040 -0.7893  1.9305  0.5256
15928TIP3    H269200   1.136   0.881  16.940 -0.2808 -1.3986  0.0197
15929TIP3   OH269201   3.580   5.349   6.050 -0.5385 -0.2125 -0.2305
15929TIP3    H169202   3.529   5.425   6.078 -1.5386 -0.5447 -1.0889
15929TIP3    H269203   3.582   5.292   6.127  1.4128  1.2518  0.8891
15930TIP3   OH269204   4.478   4.275   0.929  0.3224 -0.0342 -0.4348
15930TIP3    H169205   4.563   4.264   0.886 -0.5710 -2.8076 -1.7026
15930TIP3    H269206   4.424   4.322   0.865  0.4663  0.3948 -0.2419
15931TIP3   OH269207   4.207   5.068  14.284  0.2306  0.4557  0.8231
15931TIP3    H169208   4.261   5.047  14.360  1.4453 -1.4709 -0.4811
15931TIP3    H269209   4.263   5.051  14.208 -1.6225  0.1195 -0.5685
15932TIP3   OH269210   4.298   5.347   1.536 -0.3044  0.2722 -0.0315
15932TIP3    H169211   4.272   5.372   1.625  1.4821  0.2937  0.5451
15932TIP3    H269212   4.365   5.412   1.512 -1.3161  0.7412 -1.7340
15933TIP3   OH269213   5.789   4.150   0.331  0.1777 -0.3559  0.3169
15933TIP3    H169214   5.723   4.157   0.263  1.5610 -0.8259 -1.1551
15933TIP3    H269215   5.822   4.060   0.323  1.4789  0.0793  0.4842
15934TIP3   OH269216   0.082   3.039  12.230 -0.0675 -0.4929 -0.0528
15934TIP3    H169217   0.174   3.017  12.246  0.1586  1.1481  1.1763
15934TIP3    H269218   0.063   3.109  12.293 -1.6062  0.5295 -1.5729
15935TIP3   OH269219   2.767   5.692  13.193 -0.4245 -0.6886  0.2545
15935TIP3    H169220   2.678   5.685  13.160 -1.1428  0.7601  1.7538
15935TIP3    H269221   2.812   5.615  13.157 -1.7495 -0.4875 -2.0313
15936TIP3   OH269222   4.376   6.042   6.885  0.0871 -0.3133  0.1027
15936TIP3    H169223   4.320   6.117   6.864 -0.1941  0.1796  2.3666
15936TIP3    H269224   4.337   5.968   6.838 -0.6305  0.6169 -0.7907
15937TIP3   OH269225   1.433   3.213   5.713  0.4591 -0.0302 -0.8399
15937TIP3    H169226   1.421   3.297   5.757  0.7645  0.4502 -1.6589
15937TIP3    H269227   1.525   3.192   5.727  0.3771 -0.2450 -0.6155
15938TIP3   OH269228   5.028   2.081   2.810  0.1276 -0.2310 -0.0619
15938TIP3    H169229   5.094   2.149   2.820  0.6075 -0.6640 -0.2643
15938TIP3    H269230   4.996   2.091   2.720 -0.8563  0.6605  0.3602
15939TIP3   OH269231   2.007   1.478   5.790 -0.0634 -0.4242  0.0303
15939TIP3    H169232   2.040   1.534   5.861 -1.8794 -0.4226  0.9338
15939TIP3    H269233   2.076   1.414   5.776 -0.0893 -1.1355  2.6264
15940TIP3   OH269234   1.412   4.246  12.004 -0.6740  0.3483  0.3491
15940TIP3    H169235   1.381   4.212  12.088 -1.4275 -0.2215 -0.1465
15940TIP3    H269236   1.452   4.170  11.961  0.8012  0.9038  0.6742
15941TIP3   OH269237   2.572   3.770   2.724 -0.6444  0.3365 -0.6713
15941TIP3    H169238   2.485   3.736   2.744 -0.6563  0.7970  0.1068
15941TIP3    H269239   2.559   3.864   2.712 -0.1240  0.5565  0.3697
15942TIP3   OH269240   5.054   2.702   4.851  0.6744 -0.1110  0.5631
15942TIP3    H169241   5.081   2.792   4.833 -0.1079  0.3513  1.6160
15942TIP3    H269242   5.135   2.658   4.878  1.1798  0.0910 -0.5511
15943TIP3   OH269243   5.360   5.482  17.135  0.4864  0.1818  0.2460
15943TIP3    H169244   5.343   5.390  17.115  0.0572  0.4465 -0.6883
15943TIP3    H269245   5.287   5.508  17.192  0.9068 -0.1911  0.9654
15944TIP3   OH269246   5.631   5.659   0.566 -0.0740 -0.0163 -0.0923
15944TIP3    H169247   5.665   5.591   0.623 -0.1369 -2.0638 -2.3096
15944TIP3    H269248   5.705   5.684   0.511 -0.4109  0.7182 -0.2320
15945TIP3   OH269249   3.559   6.711   1.754 -0.5009 -0.2634 -0.5960
15945TIP3    H169250   3.502   6.776   1.712  1.3135  2.3608  0.7729
15945TIP3    H269251   3.542   6.722   1.847  2.2503  0.6764 -0.1420
15946TIP3   OH269252   3.256   0.083  16.391  0.0875 -0.1230 -0.1493
15946TIP3    H169253   3.196   0.022  16.435  0.3816  0.0534  0.5079
15946TIP3    H269254   3.343   0.055  16.419  0.2125  0.7464  0.3517
15947TIP3   OH269255   5.132   5.839   0.470  0.5508 -0.4841  0.1714
15947TIP3    H169256   5.226   5.825   0.470  0.2861 -2.6441  0.5174
15947TIP3    H269257   5.099   5.781   0.538 -1.0152  0.5111  0.3142
15948TIP3   OH269258   0.858   0.427  15.249  0.0022  0.1569  0.2199
15948TIP3    H169259   0.823   0.367  15.184 -0.6244 -0.4528  1.0861
15948TIP3    H269260   0.786   0.441  15.310  0.1619  1.7505  0.0815
15949TIP3   OH269261   6.405   0.499   0.411  0.0627 -0.0233 -0.1840
15949TIP3    H169262   6.321   0.496   0.365 -1.0870  2.2505  1.5658
15949TIP3    H269263   6.382   0.483   0.503  1.6284  0.1505  0.2591
15950TIP3   OH269264   5.844   1.132   5.606 -0.1857 -1.1190  0.0240
15950TIP3    H169265   5.907   1.136   5.534  0.6431  1.0008  0.7871
15950TIP3    H269266   5.799   1.217   5.604 -0.8901 -1.4279  1.3345
15951TIP3   OH269267   0.889   1.975  14.753 -0.1826 -0.7250 -0.1236
15951TIP3    H169268   0.878   1.882  14.773 -1.6421 -0.6608 -0.4738
15951TIP3    H269269   0.857   2.020  14.832  0.2940 -0.5131 -0.0486
15952TIP3   OH269270   6.122   2.524  12.395  0.1040 -0.4982  0.0624
15952TIP3    H169271   6.104   2.550  12.305  0.3494 -1.3331 -0.2287
15952TIP3    H269272   6.046   2.557  12.445  0.3570  0.6930 -0.2941
15953TIP3   OH269273   4.558   2.207  12.816  0.0634  0.3740 -0.0085
15953TIP3    H169274   4.567   2.131  12.759 -1.0520  0.5849 -0.4929
15953TIP3    H269275   4.566   2.171  12.905  1.7928  0.0436 -0.2669
15954TIP3   OH269276   4.162   6.287  11.163 -0.3892 -0.1480  1.0001
15954TIP3    H169277   4.200   6.199  11.173 -1.7163 -0.6719  1.5935
15954TIP3    H269278   4.194   6.335  11.240  0.5694 -0.0078  0.5299
15955TIP3   OH269279   5.301   5.413   2.990 -0.0997  0.0292  0.2487
15955TIP3    H169280   5.225   5.363   2.959 -1.6456  0.9654  2.3269
15955TIP3    H269281   5.377   5.365   2.955 -1.5765 -1.8483 -0.5765
15956TIP3   OH269282   5.053   6.466  16.584 -0.2310 -0.2367 -0.2092
15956TIP3    H169283   5.107   6.434  16.512  1.7389 -0.4458  1.2674
15956TIP3    H269284   5.097   6.546  16.613 -0.6423 -0.4646  1.1146
15957TIP3   OH269285   4.257   0.374   2.871  0.1643 -0.8349  0.0868
15957TIP3    H169286   4.310   0.453   2.880 -1.2349  0.3360 -1.5535
15957TIP3    H269287   4.202   0.374   2.949  1.4014 -1.2203  1.0078
15958TIP3   OH269288   2.892   0.178  11.729  0.0738  0.2940  0.2081
15958TIP3    H169289   2.853   0.125  11.658 -0.9256  1.1410  0.0964
15958TIP3    H269290   2.958   0.232  11.685 -1.7826  2.1515 -0.4920
15959TIP3   OH269291   6.316   4.541   3.820 -0.4324  0.5316 -0.1396
15959TIP3    H169292   6.336   4.482   3.747  0.8530 -3.1095  2.8668
15959TIP3    H269293   6.385   4.607   3.817 -0.2325  0.3055 -1.9529
15960TIP3   OH269294   2.764   2.546   5.037 -0.0233 -0.3109  0.2870
15960TIP3    H169295   2.819   2.526   5.112  0.0619  2.7476  1.1939
15960TIP3    H269296   2.684   2.583   5.074  0.0062  1.2486 -1.0446
15961TIP3   OH269297   5.852   5.239   4.851  0.7041  0.1428  0.2360
15961TIP3    H169298   5.862   5.155   4.896  1.7135  0.1567  0.0695
15961TIP3    H269299   5.908   5.299   4.901 -0.5584  0.8985  0.7849
15962TIP3   OH269300   3.928   5.294  11.807  0.6172  0.1237 -0.3970
15962TIP3    H169301   3.917   5.326  11.718 -0.7136  1.0219  0.0474
15962TIP3    H269302   3.947   5.201  11.798  1.4424  0.3929 -1.6330
15963TIP3   OH269303   5.077   3.477  13.016  0.2209  0.3793  0.1347
15963TIP3    H169304   4.997   3.433  12.987  0.0599  0.9515 -0.3228
15963TIP3    H269305   5.060   3.500  13.107 -0.1145  0.4356  0.0603
15964TIP3   OH269306   6.469   0.266   2.112 -0.5660  0.2231  0.5614
15964TIP3    H169307   6.400   0.206   2.141 -0.3220 -0.0049  0.6706
15964TIP3    H269308   6.534   0.265   2.182 -0.0173 -0.2679  0.0617
15965TIP3   OH269309   3.521   6.171  15.198 -0.4689 -0.5021 -0.3316
15965TIP3    H169310   3.562   6.147  15.114  1.6364  0.8019  0.2503
15965TIP3    H269311   3.446   6.224  15.173  1.1847  1.4551 -1.4461
15966TIP3   OH269312   1.235   0.570  15.940  0.2308  0.5974 -0.2121
15966TIP3    H169313   1.176   0.495  15.951  0.3308  0.2584 -1.8193
15966TIP3    H269314   1.291   0.568  16.018 -0.2769 -0.5161  0.1420
15967TIP3   OH269315   4.442   5.436   4.684 -0.1654 -0.4165 -0.3469
15967TIP3    H169316   4.371   5.498   4.701  0.5453  0.2255  0.3678
15967TIP3    H269317   4.408   5.380   4.614 -0.9689  0.5342 -0.7510
15968TIP3   OH269318   5.322   6.078   5.006  0.8078  0.1416  0.3852
15968TIP3    H169319   5.398   6.072   4.948  1.3688  1.6863  0.9144
15968TIP3    H269320   5.253   6.115   4.950  0.2449 -1.6901 -0.2239
15969TIP3   OH269321   1.320   1.451   1.119 -0.1768  0.6777 -0.3115
15969TIP3    H169322   1.386   1.477   1.054  0.4904 -0.1237  0.0178
15969TIP3    H269323   1.368   1.450   1.202 -0.5738 -0.0214 -0.0827
15970TIP3   OH269324   3.384   3.797  11.382  0.1606 -0.2422  0.1959
15970TIP3    H169325   3.354   3.764  11.298  0.7526  1.3411 -0.6930
15970TIP3    H269326   3.373   3.724  11.443  0.1651 -1.5776 -1.3505
15971TIP3   OH269327   4.094   1.163  12.858 -0.1352 -0.0624 -0.2344
15971TIP3    H169328   4.021   1.186  12.916  0.0942  0.3116 -0.0910
15971TIP3    H269329   4.171   1.203  12.899  0.4080 -1.6676  0.4069
15972TIP3   OH269330   6.473   6.049   2.703 -0.1604 -0.1693  0.3262
15972TIP3    H169331   6.465   5.970   2.757  2.1035 -2.7491 -2.7367
15972TIP3    H269332   6.384   6.066   2.673 -0.8114 -1.0656  1.6340
15973TIP3   OH269333   3.166   5.862   3.421  0.1791 -0.3804  0.1413
15973TIP3    H169334   3.104   5.814   3.365  0.4742 -0.8945  0.2536
15973TIP3    H269335   3.252   5.843   3.383  0.2056  1.2243 -0.6876
15974TIP3   OH269336   1.781   5.348  15.745  0.2830 -0.5408 -0.1947
15974TIP3    H169337   1.702   5.401  15.748  0.7993  0.2333  0.0954
15974TIP3    H269338   1.783   5.302  15.828  0.8281  0.4828  0.3766
15975TIP3   OH269339   4.666   5.442   0.845 -0.4265 -0.4641  0.3095
15975TIP3    H169340   4.582   5.464   0.806 -0.5151 -0.5881  0.4319
15975TIP3    H269341   4.644   5.402   0.930 -0.2461 -0.4935  0.3430
15976TIP3   OH269342   1.123   0.185   4.161  0.2906 -0.3816 -0.2507
15976TIP3    H169343   1.090   0.273   4.145 -0.9631 -0.9339 -0.8743
15976TIP3    H269344   1.176   0.193   4.240  0.0101  0.8813 -0.1685
15977TIP3   OH269345   3.724   2.594   1.296 -0.1105  0.6332 -0.5391
15977TIP3    H169346   3.699   2.668   1.240  0.9954  2.0452  0.7399
15977TIP3    H269347   3.781   2.633   1.362 -0.7328 -1.1102  1.1037
15978TIP3   OH269348   5.454   5.718   5.468 -0.2012  0.5386 -0.3955
15978TIP3    H169349   5.470   5.811   5.488 -1.1999  1.0901 -1.9894
15978TIP3    H269350   5.507   5.702   5.390  0.8712 -0.5952  0.5213
15979TIP3   OH269351   0.171   2.946  14.154 -0.0521 -0.2397 -0.1968
15979TIP3    H169352   0.169   2.995  14.072 -1.0609  3.0273  1.5704
15979TIP3    H269353   0.264   2.928  14.169  0.0981 -1.5019 -2.3074
15980TIP3   OH269354   1.950   0.345   3.774  0.2318  0.4995 -0.1587
15980TIP3    H169355   1.912   0.291   3.705  2.2107  1.8725 -2.4723
15980TIP3    H269356   2.029   0.298   3.800 -1.1536 -0.6890  2.2856
15981TIP3   OH269357   0.047   2.503   2.973 -0.3155 -0.1612 -0.2250
15981TIP3    H169358   0.006   2.566   3.031 -2.1269 -0.2228 -1.3459
15981TIP3    H269359   0.122   2.470   3.022  0.2109  2.2474  0.6922
15982TIP3   OH269360   2.102   2.096   3.623 -0.2605 -0.2631 -0.0306
15982TIP3    H169361   2.022   2.044   3.630 -0.5541  0.0388 -1.0538
15982TIP3    H269362   2.100   2.132   3.535  0.4723  0.6308  0.3011
15983TIP3   OH269363   4.233   1.363  16.652 -0.0284  0.2440 -0.0394
15983TIP3    H169364   4.320   1.328  16.632  0.7456  0.6307  2.3003
15983TIP3    H269365   4.237   1.455  16.627  0.6207  0.5094  0.9717
15984TIP3   OH269366   0.998   4.041   2.746  0.0326 -0.0065  0.3618
15984TIP3    H169367   1.021   4.094   2.822  0.4447 -0.1880  0.3626
15984TIP3    H269368   0.920   4.084   2.710  0.2821  0.5276  0.4403
15985TIP3   OH269369   5.008   1.812  16.579 -0.0944 -0.4049  0.2718
15985TIP3    H169370   5.086   1.845  16.536 -0.0095  0.2823  0.9191
15985TIP3    H269371   4.946   1.885  16.575 -1.4991 -1.6103 -2.0881
15986TIP3   OH269372   6.028   5.582   1.435  0.7720 -0.7300  0.1246
15986TIP3    H169373   6.050   5.517   1.502  0.5975 -0.5070  0.4019
15986TIP3    H269374   5.995   5.657   1.485  0.1370 -0.7592 -0.2385
15987TIP3   OH269375   5.305   3.464   0.343  0.0620  0.2271  0.1509
15987TIP3    H169376   5.343   3.379   0.362  0.0800  0.2967  0.4405
15987TIP3    H269377   5.228   3.446   0.290  1.4123  0.1857 -1.8738
15988TIP3   OH269378   2.329   4.817   1.554  0.0399 -0.3000 -0.2194
15988TIP3    H169379   2.349   4.910   1.553 -2.0047  0.1877 -1.9660
15988TIP3    H269380   2.276   4.804   1.633 -1.5573  0.4989 -1.1310
15989TIP3   OH269381   3.997   0.386   4.035  0.0881 -0.0673  0.6703
15989TIP3    H169382   4.085   0.378   3.999 -0.7145 -0.5451 -1.2848
15989TIP3    H269383   3.972   0.296   4.057 -0.4364 -0.1190 -0.1186
15990TIP3   OH269384   5.894   5.676   0.083 -0.6903 -0.2372  0.3648
15990TIP3    H169385   5.817   5.629   0.116 -0.6137 -2.5102 -2.3125
15990TIP3    H269386   5.882   5.676  -0.012  2.2684 -0.0279 -0.0831
15991TIP3   OH269387   5.818   2.963   0.280  1.0092  0.1561  0.2777
15991TIP3    H169388   5.890   2.908   0.311  2.2478  1.4761 -0.1841
15991TIP3    H269389   5.810   3.032   0.345  0.7749  0.5304 -0.1392
15992TIP3   OH269390   3.812   0.039  14.569  0.2778  0.0409  0.1064
15992TIP3    H169391   3.832   0.131  14.583  0.2082 -0.0913  1.1418
15992TIP3    H269392   3.819  -0.001  14.656  2.1508 -1.2991 -0.5735
15993TIP3   OH269393   0.860   2.431   4.846 -0.0295 -0.5034 -0.3767
15993TIP3    H169394   0.931   2.406   4.903 -0.9494  0.9021  1.5030
15993TIP3    H269395   0.847   2.524   4.863 -2.5273 -0.7827 -0.3754
15994TIP3   OH269396   0.379   2.626   1.389  0.3368 -0.3195  0.4989
15994TIP3    H169397   0.417   2.646   1.303 -1.6180  0.3808 -0.2702
15994TIP3    H269398   0.384   2.531   1.395 -2.5028 -0.7948 -2.0022
15995TIP3   OH269399   1.540   3.889   6.233  0.2005  0.2166 -0.0780
15995TIP3    H169400   1.546   3.797   6.208 -1.1457  0.1478 -0.2198
15995TIP3    H269401   1.613   3.903   6.293 -0.2106 -1.2207  0.7942
15996TIP3   OH269402   4.731   4.472  14.102  0.6820 -0.3586  0.3121
15996TIP3    H169403   4.673   4.436  14.168 -0.1726 -0.1407 -0.3009
15996TIP3    H269404   4.816   4.482  14.146 -0.1041  0.6626  1.6417
15997TIP3   OH269405   0.030   6.553   4.025 -0.1283 -0.4955  0.5649
15997TIP3    H169406  -0.005   6.642   4.029  0.3744 -0.3308  2.4378
15997TIP3    H269407  -0.045   6.499   4.002 -0.5263  0.3621 -0.2016
15998TIP3   OH269408   5.868   6.395  11.335  0.5204  0.6790  0.1529
15998TIP3    H169409   5.847   6.388  11.242  0.1468 -0.2899  0.2915
15998TIP3    H269410   5.921   6.474  11.342 -0.4533  1.4410 -0.6950
15999TIP3   OH269411   4.150   3.555   3.794  0.1923  0.0378 -0.2334
15999TIP3    H169412   4.213   3.485   3.813  2.2046  1.8086 -0.0665
15999TIP3    H269413   4.132   3.545   3.700 -0.9253 -1.7190  0.1077
16000TIP3   OH269414   6.144   2.421   3.456 -0.0760 -0.0080 -0.1591
16000TIP3    H169415   6.068   2.364   3.441  0.7863 -1.5086  0.9034
16000TIP3    H269416   6.161   2.414   3.550  1.2082  0.5152 -0.3310
16001TIP3   OH269417   5.740   2.266  11.062  0.3655  0.1714 -0.2228
16001TIP3    H169418   5.672   2.262  11.130  0.4382 -0.9555 -0.1998
16001TIP3    H269419   5.693   2.295  10.984  0.2992  1.5880  0.3090
16002TIP3   OH269420   4.249   5.724  11.989 -0.3691  0.3259  0.3655
16002TIP3    H169421   4.294   5.717  12.073  1.4088 -2.4264 -0.6683
16002TIP3    H269422   4.170   5.671  12.000  0.5372 -1.1507 -0.0461
16003TIP3   OH269423   2.008   5.310  14.793  0.1863 -0.1892 -0.6068
16003TIP3    H169424   1.961   5.393  14.802 -1.2033 -0.9116 -0.9155
16003TIP3    H269425   2.080   5.316  14.857  1.0916  1.8727 -1.7062
16004TIP3   OH269426   2.417   2.119   2.014 -0.5676 -0.0885  0.8181
16004TIP3    H169427   2.462   2.195   2.050  0.3639 -0.2375  0.0183
16004TIP3    H269428   2.402   2.062   2.090 -0.8550  0.6716  1.3443
16005TIP3   OH269429   1.246   0.225  11.354  0.4001 -0.1243  0.0669
16005TIP3    H169430   1.327   0.252  11.312  0.3404 -2.1518 -1.4763
16005TIP3    H269431   1.202   0.169  11.290 -2.0380  0.5665  1.0167
16006TIP3   OH269432   4.486   4.939   5.815 -0.2035 -0.3257 -0.0543
16006TIP3    H169433   4.551   4.965   5.880 -0.1863  0.6443 -0.4519
16006TIP3    H269434   4.538   4.895   5.747  0.0673  0.6200 -0.4649
16007TIP3   OH269435   0.271   3.922   6.976  0.3239  0.4426  0.3677
16007TIP3    H169436   0.251   3.886   6.890 -0.8975  2.0285 -0.0629
16007TIP3    H269437   0.217   3.871   7.037 -0.2435  0.5362 -0.0494
16008TIP3   OH269438   0.680   5.744  15.957  0.3638 -0.5057 -0.0966
16008TIP3    H169439   0.647   5.710  16.040 -1.5946 -1.6796 -1.2830
16008TIP3    H269440   0.730   5.672  15.920 -0.2323 -0.6054 -0.7141
16009TIP3   OH269441   6.242   4.848   0.059 -0.3368 -0.2055 -0.2626
16009TIP3    H169442   6.191   4.797   0.122  2.2034 -1.0109  1.3130
16009TIP3    H269443   6.273   4.923   0.109 -2.1173  1.7478 -1.9365
16010TIP3   OH269444   1.705   5.752  14.532  0.0765 -0.1038  0.1003
16010TIP3    H169445   1.678   5.749  14.623 -3.6041 -3.2744 -0.8178
16010TIP3    H269446   1.641   5.810  14.490  1.8431  1.4845 -0.5555
16011TIP3   OH269447   3.988   4.840   4.295  0.0418  0.1357  0.2213
16011TIP3    H169448   3.959   4.906   4.232 -1.1351 -0.3271  0.2481
16011TIP3    H269449   3.928   4.850   4.369  1.1507  0.4039  1.1236
16012TIP3   OH269450   3.479   1.321  12.957  0.3368  0.1949 -1.0206
16012TIP3    H169451   3.387   1.305  12.980  0.0659  0.9889 -1.5076
16012TIP3    H269452   3.505   1.243  12.908 -0.5097  0.5554 -2.0906
16013TIP3   OH269453   2.245   0.370  14.147  0.1995  0.0395 -0.0812
16013TIP3    H169454   2.231   0.315  14.224 -0.7463 -1.5703 -1.3331
16013TIP3    H269455   2.340   0.379  14.141  0.4196 -1.7906 -0.0102
16014TIP3   OH269456   6.034   2.722  13.671 -0.2275  0.1495  0.1598
16014TIP3    H169457   6.002   2.766  13.593  2.2064  0.4775 -0.7507
16014TIP3    H269458   5.956   2.686  13.713 -1.5492 -1.0597 -3.0224
16015TIP3   OH269459   5.248   0.341  10.629  0.4763  0.2243 -0.0962
16015TIP3    H169460   5.330   0.337  10.679 -0.1396  1.3375  1.0666
16015TIP3    H269461   5.270   0.394  10.553  1.2172 -0.7931 -0.6180
16016TIP3   OH269462   6.321   3.674  15.122  0.0087 -0.4330 -0.1641
16016TIP3    H169463   6.294   3.678  15.030 -0.1047  1.2940 -0.0901
16016TIP3    H269464   6.414   3.695  15.121 -0.3457  1.2595  0.2346
16017TIP3   OH269465   0.875   2.800   0.957  0.1439 -0.0085 -0.4455
16017TIP3    H169466   0.889   2.834   1.045  2.1535 -1.7455 -0.0223
16017TIP3    H269467   0.888   2.706   0.965  0.8405 -0.1614 -2.6839
16018TIP3   OH269468   1.260   4.272   1.193  0.8995 -0.3769  0.3087
16018TIP3    H169469   1.293   4.188   1.161 -1.3019 -0.7641 -1.1224
16018TIP3    H269470   1.216   4.250   1.275  0.7710 -0.5392  0.1978
16019TIP3   OH269471   1.237   3.706   4.999  0.1890  0.2675 -0.0945
16019TIP3    H169472   1.221   3.640   4.932  0.4665  0.9530 -0.8424
16019TIP3    H269473   1.326   3.736   4.984 -0.4902  2.0458 -0.8738
16020TIP3   OH269474   0.735   3.622  11.557 -0.0343  0.1319  0.3420
16020TIP3    H169475   0.757   3.637  11.465 -1.3832  1.7420  0.2452
16020TIP3    H269476   0.808   3.661  11.605  0.1759  0.2057 -0.0340
16021TIP3   OH269477   1.539   2.043  14.667  0.0078 -0.1767 -0.1012
16021TIP3    H169478   1.452   2.016  14.637 -0.1508  0.8297 -0.5818
16021TIP3    H269479   1.588   1.961  14.675 -0.6983 -0.6755 -0.7234
16022TIP3   OH269480   6.586   3.751  15.132  0.2425  0.5123  0.3650
16022TIP3    H169481   6.634   3.693  15.191 -0.5221  1.0769  1.5852
16022TIP3    H269482   6.654   3.802  15.087  0.8052  0.9411  1.6773
16023TIP3   OH269483   4.036   0.482   4.607  0.1513  0.1470 -0.2463
16023TIP3    H169484   4.063   0.559   4.556 -2.2310  1.7940  0.7578
16023TIP3    H269485   4.002   0.421   4.542  2.3848 -0.2691 -1.1034
16024TIP3   OH269486   6.316   5.583  14.654  0.4703  1.0539  0.2416
16024TIP3    H169487   6.239   5.553  14.605  1.6441  0.4699 -1.3658
16024TIP3    H269488   6.330   5.672  14.623  0.9936  0.8140 -0.2432
16025TIP3   OH269489   6.594   6.309  12.438 -0.0783  0.0261 -0.4685
16025TIP3    H169490   6.670   6.251  12.448  1.4102  1.8142 -0.9356
16025TIP3    H269491   6.542   6.268  12.369  0.0415 -1.6350  0.3850
16026TIP3   OH269492   0.695   2.012   4.749 -0.5104  0.3601 -1.0807
16026TIP3    H169493   0.669   2.093   4.792  1.2285  1.4706 -2.0183
16026TIP3    H269494   0.787   2.000   4.773  0.7123  1.2581 -4.6704
16027TIP3   OH269495   3.640   5.721  16.588  0.1171 -0.2740  0.3880
16027TIP3    H169496   3.558   5.725  16.638  0.6341  0.7560  1.1981
16027TIP3    H269497   3.694   5.791  16.625  1.1915 -0.6311 -0.4495
16028TIP3   OH269498   4.713   5.453   2.728  0.3182  0.1727  0.1365
16028TIP3    H169499   4.652   5.425   2.796  0.0717  0.0431 -0.1342
16028TIP3    H269500   4.794   5.406   2.748 -0.4754 -1.8428 -1.0848
16029TIP3   OH269501   1.467   6.610  15.366 -0.5980 -0.3693 -0.7477
16029TIP3    H169502   1.430   6.525  15.341  0.9605 -1.1922 -0.3710
16029TIP3    H269503   1.520   6.591  15.443  0.8441  0.6959 -1.4378
16030TIP3   OH269504   4.214   2.420   1.610  0.0718  0.1032 -0.2587
16030TIP3    H169505   4.154   2.451   1.543 -1.8957  0.8336  1.7356
16030TIP3    H269506   4.209   2.324   1.604 -0.5511  0.1572 -0.7109
16031TIP3   OH269507   6.138   2.394   2.917 -0.4815 -0.5971 -0.0192
16031TIP3    H169508   6.071   2.438   2.865 -2.0372  2.3918  3.9525
16031TIP3    H269509   6.115   2.301   2.912 -5.1280  0.2213  1.0038
16032TIP3   OH269510   6.470   3.441  15.251 -0.6229 -0.1927  0.1374
16032TIP3    H169511   6.510   3.512  15.302  1.2820 -1.3949  0.3938
16032TIP3    H269512   6.377   3.448  15.270 -0.4607  2.0296  0.4184
16033TIP3   OH269513   2.813   6.301   4.213 -0.0959  0.4148  0.4073
16033TIP3    H169514   2.825   6.219   4.165 -0.2639  0.4353  0.3295
16033TIP3    H269515   2.901   6.336   4.223 -0.0895  0.5755 -0.1791
16034TIP3   OH269516   0.649   0.097  14.843  0.0820  0.0688  0.4103
16034TIP3    H169517   0.729   0.058  14.807  0.3951  1.4837 -0.4913
16034TIP3    H269518   0.620   0.159  14.776  0.0678  1.9961  2.0994
16035TIP3   OH269519   1.457   4.836  13.410  0.8800  0.1696  0.1213
16035TIP3    H169520   1.384   4.892  13.382  0.4876 -0.1162  0.5482
16035TIP3    H269521   1.439   4.819  13.503  0.9525 -0.7298 -0.0213
16036TIP3   OH269522   4.756   6.430   2.209 -0.1586  0.2134  0.5175
16036TIP3    H169523   4.695   6.391   2.271 -1.4603  1.9456  0.4132
16036TIP3    H269524   4.748   6.524   2.223  0.4303  0.6046 -1.4137
16037TIP3   OH269525   5.925   0.366   4.969 -0.1528  0.3953 -0.6117
16037TIP3    H169526   5.890   0.414   4.894 -5.0293 -2.5025 -0.6733
16037TIP3    H269527   5.865   0.386   5.041 -0.4877 -2.8616  0.1875
16038TIP3   OH269528   2.932   3.785   1.707 -0.5424 -0.2907 -0.0330
16038TIP3    H169529   2.843   3.801   1.676 -0.2763 -0.3978 -0.8928
16038TIP3    H269530   2.937   3.832   1.790 -0.6420  1.8857 -1.1788
16039TIP3   OH269531   1.002   3.582  14.843  0.0009  0.0573  0.2034
16039TIP3    H169532   0.909   3.589  14.822  0.0960  0.9450  0.0173
16039TIP3    H269533   1.007   3.589  14.938  0.0725  3.1790  0.0778
16040TIP3   OH269534   0.372   1.726  14.431  0.5434 -0.3165 -0.1610
16040TIP3    H169535   0.331   1.801  14.474  0.1599 -0.2637 -0.6099
16040TIP3    H269536   0.445   1.703  14.488  0.2300 -0.0552  0.3535
16041TIP3   OH269537   5.832   2.867   5.419  0.3033  0.7696  0.0429
16041TIP3    H169538   5.773   2.926   5.465  0.9072  2.5436 -1.3323
16041TIP3    H269539   5.816   2.885   5.326  2.1720  0.5051 -0.3677
16042TIP3   OH269540   2.649   0.017  13.101 -0.3049 -0.1116 -0.0025
16042TIP3    H169541   2.698  -0.002  13.181  1.0425  1.2502 -0.4649
16042TIP3    H269542   2.570  -0.038  13.108  0.5630 -1.2609  1.4586
16043TIP3   OH269543   5.732   2.448   3.766  0.1364 -0.3885 -0.0725
16043TIP3    H169544   5.653   2.395   3.755 -0.7676  0.7053  0.8497
16043TIP3    H269545   5.717   2.525   3.710 -0.0140  0.4033  1.0372
16044TIP3   OH269546   4.138   5.127   0.313 -0.3045  0.1187 -0.1178
16044TIP3    H169547   4.161   5.194   0.378 -1.1683 -0.3924  0.7505
16044TIP3    H269548   4.093   5.060   0.364  0.5922 -1.1579 -0.9658
16045TIP3   OH269549   4.204   4.200   4.791 -0.4848 -0.0586 -0.3991
16045TIP3    H169550   4.132   4.245   4.746 -1.0197 -0.5336 -0.0251
16045TIP3    H269551   4.265   4.178   4.721  0.1633  1.8866 -0.5228
16046TIP3   OH269552   2.925   4.090  13.828 -0.1891 -0.3530 -0.0284
16046TIP3    H169553   2.873   4.141  13.767  0.7053  1.5562  0.7143
16046TIP3    H269554   2.863   4.062  13.896 -0.6612 -0.1667 -0.3788
16047TIP3   OH269555   4.984   4.900  14.347  0.0400  0.4715 -0.1846
16047TIP3    H169556   5.048   4.922  14.279  0.2865  1.1177  0.2430
16047TIP3    H269557   5.036   4.858  14.416 -0.2916 -0.6740 -0.6106
16048TIP3   OH269558   3.088   4.480  14.791 -0.8635 -0.1322 -0.0165
16048TIP3    H169559   3.146   4.405  14.785  0.2214  0.7841 -2.0940
16048TIP3    H269560   3.076   4.509  14.701 -2.9185  0.9658  0.5383
16049TIP3   OH269561   3.204   2.178  12.212 -0.1324  0.1143  0.4743
16049TIP3    H169562   3.111   2.164  12.199  0.4522 -1.7477 -2.6921
16049TIP3    H269563   3.222   2.144  12.300 -2.2500 -0.3669  0.7539
16050TIP3   OH269564   3.958   2.236  13.834 -0.0179 -0.6354  0.0849
16050TIP3    H169565   3.872   2.212  13.800  0.5420 -1.7856 -0.5582
16050TIP3    H269566   3.976   2.171  13.902  0.1260 -0.0821  0.5851
16051TIP3   OH269567   3.744   3.236   2.883 -0.1530  0.2339  0.0169
16051TIP3    H169568   3.793   3.315   2.861 -0.3374  0.9860  2.1216
16051TIP3    H269569   3.805   3.183   2.933 -0.9887  0.4942  1.3505
16052TIP3   OH269570   3.563   4.168  15.665  0.6193  0.4463  0.1250
16052TIP3    H169571   3.612   4.223  15.726 -0.0969  0.0790  1.0614
16052TIP3    H269572   3.623   4.097  15.642  0.3986 -0.3102  1.6928
16053TIP3   OH269573   4.707   2.471   1.879 -0.6641  0.4381 -0.3711
16053TIP3    H169574   4.705   2.488   1.785  0.9737 -0.8006 -0.6676
16053TIP3    H269575   4.683   2.379   1.887  0.1360  0.2819  0.3379
16054TIP3   OH269576   5.277   2.442   2.519  0.0794  0.7205 -0.6735
16054TIP3    H169577   5.307   2.356   2.488 -0.3567  0.1330  0.4676
16054TIP3    H269578   5.199   2.423   2.572  0.8331  1.6410  0.8429
16055TIP3   OH269579   2.288   2.969  11.297 -0.3323  0.3424  0.1315
16055TIP3    H169580   2.351   2.926  11.239  0.3728 -1.3187  2.0086
16055TIP3    H269581   2.342   3.019  11.358 -0.5962 -2.1026  2.5616
16056TIP3   OH269582   3.558   2.831   4.780  0.1912 -0.5550  0.2966
16056TIP3    H169583   3.540   2.893   4.850  1.0492 -0.9102  0.8485
16056TIP3    H269584   3.633   2.781   4.811  0.0777 -1.2650 -0.5277
16057TIP3   OH269585   4.938   2.508   1.529  0.4480  0.2414  0.0097
16057TIP3    H169586   4.843   2.505   1.541  0.2924  0.2786 -1.1003
16057TIP3    H269587   4.961   2.423   1.492  0.7886  0.3701 -0.0869
16058TIP3   OH269588   6.037   3.757   1.479 -0.8938  0.0057 -0.1590
16058TIP3    H169589   5.946   3.759   1.507 -0.2160  0.9505  2.1900
16058TIP3    H269590   6.057   3.847   1.452 -0.5247 -0.0831 -0.1966
16059TIP3   OH269591   0.987   0.247  14.191 -0.2605 -0.2065  0.5975
16059TIP3    H169592   0.988   0.171  14.133  1.2610 -0.3410  0.7727
16059TIP3    H269593   1.005   0.210  14.278  1.3414  0.4232  0.5625
16060TIP3   OH269594   1.230   6.648   2.923  0.6826 -0.2188  0.0730
16060TIP3    H169595   1.136   6.634   2.926  0.5380  0.8687  1.3616
16060TIP3    H269596   1.241   6.743   2.919  1.7194 -0.3252 -0.0259
16061TIP3   OH269597   6.059   5.609  11.506  0.0218  0.1241 -0.0449
16061TIP3    H169598   6.144   5.642  11.535  0.2934  1.0906 -1.7691
16061TIP3    H269599   6.080   5.526  11.462  0.2377  0.8250 -1.3069
16062TIP3   OH269600   6.254   6.613  15.248  0.2479  0.6457  0.0084
16062TIP3    H169601   6.171   6.646  15.283 -0.0370  0.2600 -0.2799
16062TIP3    H269602   6.317   6.683  15.263 -0.6175  1.8813 -1.7744
16063TIP3   OH269603   4.562   4.352  15.179 -0.0381  0.0013 -0.0463
16063TIP3    H169604   4.558   4.444  15.155 -0.5915 -0.5678 -2.3034
16063TIP3    H269605   4.638   4.318  15.131  1.8481 -0.2505  2.7930
16064TIP3   OH269606   5.586   0.020  12.153 -0.0835  0.2662  0.2234
16064TIP3    H169607   5.497   0.055  12.151 -0.8144 -1.5253 -0.3345
16064TIP3    H269608   5.604   0.004  12.245  0.6603  2.9411  0.6191
16065TIP3   OH269609   1.999   2.211  13.650 -0.2698  0.2305 -0.1193
16065TIP3    H169610   1.953   2.180  13.571 -0.4670  0.0623  0.0605
16065TIP3    H269611   2.091   2.200  13.629 -0.3428 -1.9736  0.5217
16066TIP3   OH269612   3.580   3.334  13.743  0.2405  0.3301  0.1384
16066TIP3    H169613   3.646   3.278  13.784  1.0347  0.9837 -0.2264
16066TIP3    H269614   3.602   3.334  13.650 -1.7548 -1.4173 -0.4263
16067TIP3   OH269615   2.881   4.172   4.026  0.0139  0.1401  0.1756
16067TIP3    H169616   2.860   4.106   4.092 -0.3687 -1.0511 -1.0806
16067TIP3    H269617   2.973   4.194   4.043 -0.0513 -0.2143  1.0305
16068TIP3   OH269618   5.152   2.452  16.430 -0.4091  0.2165  0.0704
16068TIP3    H169619   5.204   2.383  16.386  0.0288 -0.0520  0.9873
16068TIP3    H269620   5.062   2.420  16.427  0.0363 -1.5566  2.4916
16069TIP3   OH269621   0.668   0.785   3.821  0.3577 -0.2423 -0.3255
16069TIP3    H169622   0.580   0.814   3.800 -0.1507 -1.8506 -0.5960
16069TIP3    H269623   0.708   0.859   3.867 -1.1600  0.4731 -0.0943
16070TIP3   OH269624   0.632   6.168  12.703  0.0604  0.4111  0.1613
16070TIP3    H169625   0.584   6.198  12.626  0.6182 -0.4603 -0.5305
16070TIP3    H269626   0.696   6.237  12.720 -0.3174  0.7838  0.0796
16071TIP3   OH269627   6.103   3.590   4.035 -0.2743  0.3579  0.2569
16071TIP3    H169628   6.179   3.582   4.091 -0.9744 -0.4652  1.1120
16071TIP3    H269629   6.029   3.601   4.095 -0.9398  0.3006 -0.5213
16072TIP3   OH269630   5.018   5.134  15.605 -0.5510  0.1934  0.1326
16072TIP3    H169631   5.047   5.190  15.534  0.0431  0.2562  0.4181
16072TIP3    H269632   5.099   5.097  15.641 -0.9726 -1.5614 -0.6296
16073TIP3   OH269633   6.162   2.874   3.665  0.9443  0.7260 -0.2251
16073TIP3    H169634   6.118   2.958   3.658 -0.5018  0.1126  0.8238
16073TIP3    H269635   6.125   2.821   3.595 -0.1600  0.1661  0.7409
16074TIP3   OH269636   6.144   4.585  13.631  0.4884 -0.6026 -0.1950
16074TIP3    H169637   6.176   4.520  13.569  0.6593  0.3800 -1.1763
16074TIP3    H269638   6.223   4.621  13.672  0.5728  0.5182 -1.2716
16075TIP3   OH269639   5.124   1.443  15.350 -0.4347  0.6571  0.2626
16075TIP3    H169640   5.103   1.534  15.371 -0.9867  0.1521  1.9909
16075TIP3    H269641   5.057   1.391  15.395  1.3118 -0.7214  1.3992
16076TIP3   OH269642   0.382   3.737  12.185  0.9248 -0.0624 -0.1111
16076TIP3    H169643   0.395   3.643  12.202 -0.0668 -0.0901  0.5395
16076TIP3    H269644   0.445   3.757  12.115  0.5040 -1.4216 -0.9327
16077TIP3   OH269645   4.230   5.521  14.745  0.5586  0.3218 -0.7546
16077TIP3    H169646   4.151   5.537  14.693  1.0805  0.6397 -1.4626
16077TIP3    H269647   4.215   5.570  14.826 -0.8479 -1.2665  0.0094
16078TIP3   OH269648   2.265   3.364   1.523 -0.2730 -0.2598  0.6663
16078TIP3    H169649   2.299   3.454   1.524  0.7354 -0.5280 -2.1711
16078TIP3    H269650   2.184   3.369   1.472  0.2643 -1.0632 -0.3101
16079TIP3   OH269651   3.854   1.191  14.093 -0.2442  0.3017 -0.2560
16079TIP3    H169652   3.919   1.242  14.045 -0.4528  0.6195 -0.2015
16079TIP3    H269653   3.787   1.254  14.117  0.8657  0.6018  2.3373
16080TIP3   OH269654   4.223   6.208   3.335  0.2852 -0.1887 -0.0381
16080TIP3    H169655   4.276   6.272   3.287 -0.1336  0.0248 -0.2163
16080TIP3    H269656   4.282   6.174   3.403  1.1836 -1.1744 -1.2778
16081TIP3   OH269657   4.608   3.776   3.858 -0.0406 -0.6822  0.0859
16081TIP3    H169658   4.525   3.742   3.891 -0.5715  0.4762 -0.0151
16081TIP3    H269659   4.669   3.767   3.932  0.3587 -3.4652 -0.4626
16082TIP3   OH269660   6.638   0.058   1.359  0.1333  0.1713 -0.0137
16082TIP3    H169661   6.671   0.135   1.406  3.0380  0.1179 -1.7617
16082TIP3    H269662   6.707  -0.008   1.369 -1.6177 -1.7517  0.1524
16083TIP3   OH269663   2.327   0.828  15.708 -0.0779 -0.0430  0.8618
16083TIP3    H169664   2.249   0.871  15.742 -0.3385  0.7503 -0.6318
16083TIP3    H269665   2.294   0.754  15.657 -0.0128  1.0710 -0.9037
16084TIP3   OH269666   5.402   6.586  15.561 -0.5463 -0.3725 -0.0249
16084TIP3    H169667   5.428   6.494  15.562  0.4286 -0.1066  0.0346
16084TIP3    H269668   5.430   6.621  15.646 -0.0087  0.2102 -0.4274
16085TIP3   OH269669   0.953   6.170   3.297 -0.0669  0.2391  0.1666
16085TIP3    H169670   0.978   6.253   3.339  0.9843 -0.0055  0.0637
16085TIP3    H269671   0.905   6.122   3.364 -0.1315  0.6808  0.4354
16086TIP3   OH269672   5.442   2.799  11.198  0.1285  0.3262  0.4488
16086TIP3    H169673   5.444   2.813  11.103 -1.4786 -3.0448 -0.2526
16086TIP3    H269674   5.518   2.743  11.215  0.1244  0.5041  1.0892
16087TIP3   OH269675   3.446   3.210   1.767 -0.4256  0.9082 -0.0654
16087TIP3    H169676   3.353   3.235   1.766 -1.3717 -2.0773  1.5105
16087TIP3    H269677   3.455   3.150   1.692  0.7278  2.4541 -1.2282
16088TIP3   OH269678   2.506   2.638  14.869  0.5865 -0.3004  0.6284
16088TIP3    H169679   2.509   2.727  14.904 -1.3164  0.2089 -0.3311
16088TIP3    H269680   2.418   2.607  14.891  1.0133 -1.7102  0.4138
16089TIP3   OH269681   4.804   0.503  15.750  0.5977  0.0291  0.2678
16089TIP3    H169682   4.752   0.431  15.715  1.8522 -0.6723 -0.2324
16089TIP3    H269683   4.761   0.582  15.718 -1.6336 -0.3953  1.9927
16090TIP3   OH269684   0.137   4.705  14.648 -0.3286  0.1209 -0.0698
16090TIP3    H169685   0.051   4.705  14.690 -0.6100  0.2086 -0.6448
16090TIP3    H269686   0.162   4.797  14.643 -0.9158  0.2239 -1.3494
16091TIP3   OH269687   0.449   3.298  13.779  0.1567  0.4709  0.2380
16091TIP3    H169688   0.480   3.225  13.725  1.4841  0.5686  0.8254
16091TIP3    H269689   0.508   3.298  13.855 -0.4402  1.5512  0.7168
16092TIP3   OH269690   1.932   2.568  16.374  0.3597 -0.2251 -0.5998
16092TIP3    H169691   2.002   2.631  16.393  2.0418 -1.8871 -1.0182
16092TIP3    H269692   1.908   2.585  16.283  0.3965  0.1904 -0.5325
16093TIP3   OH269693   4.323   5.795   2.522 -0.3176 -0.0771 -0.2705
16093TIP3    H169694   4.329   5.889   2.506 -2.4629  0.3294  0.9211
16093TIP3    H269695   4.278   5.787   2.606  2.0256 -2.1822  0.9270
16094TIP3   OH269696   1.968   4.874   2.441  0.1216  0.5024 -0.1368
16094TIP3    H169697   1.991   4.849   2.530  1.5633  0.6759 -0.4401
16094TIP3    H269698   1.873   4.886   2.443  0.0612 -0.0747  1.2221
16095TIP3   OH269699   3.913   3.203  11.867  0.4946 -0.5008  0.3953
16095TIP3    H169700   3.839   3.151  11.899  0.6530 -0.2720  1.1730
16095TIP3    H269701   3.891   3.293  11.891  0.7732 -0.3624  0.1339
16096TIP3   OH269702   1.638   5.042  10.720  0.0170  0.0005 -0.6121
16096TIP3    H169703   1.679   5.124  10.691  1.1518 -1.2224 -2.7384
16096TIP3    H269704   1.547   5.049  10.691 -0.3504  1.1656  0.7310
16097TIP3   OH269705   1.961   4.950   3.119 -0.5312  0.1945 -0.2584
16097TIP3    H169706   1.920   4.881   3.172 -0.1825  0.6189  0.5812
16097TIP3    H269707   2.020   4.903   3.060  3.0079 -0.1240  3.1242
16098TIP3   OH269708   2.953   6.543   4.036 -0.3056  0.0270  0.2926
16098TIP3    H169709   2.982   6.632   4.052  0.9105 -0.0173 -1.3595
16098TIP3    H269710   3.020   6.488   4.077 -0.1917 -0.0995 -0.0568
16099TIP3   OH269711   0.182   4.137   1.163  0.2501 -0.6550 -0.2412
16099TIP3    H169712   0.122   4.116   1.235  0.5259  0.7233  0.4203
16099TIP3    H269713   0.220   4.052   1.138 -0.8397 -1.3357  0.3300
16100TIP3   OH269714   6.323   4.670   5.610 -0.4063 -0.0572  0.2378
16100TIP3    H169715   6.295   4.629   5.692  0.8899  0.6267  1.0654
16100TIP3    H269716   6.392   4.613   5.577 -0.1791  0.2333  0.2005
16101TIP3   OH269717   6.281   1.938  13.541 -0.1687 -0.5671 -0.2723
16101TIP3    H169718   6.331   1.970  13.616  2.9076  1.2419 -2.8769
16101TIP3    H269719   6.209   2.000  13.532  0.3002  0.0711  0.2953
16102TIP3   OH269720   3.618   4.225   3.942  0.2661 -0.1133  0.3613
16102TIP3    H169721   3.713   4.231   3.937  0.2064  0.7504  0.1277
16102TIP3    H269722   3.600   4.215   4.036  0.6229 -1.1734  0.3250
16103TIP3   OH269723   5.607   5.457   4.112 -0.2746 -0.4659  0.3221
16103TIP3    H169724   5.586   5.421   4.198 -0.1850 -0.3314  0.4013
16103TIP3    H269725   5.703   5.462   4.111 -0.2526 -0.9196  0.0295
16104TIP3   OH269726   0.906   3.660   1.551 -1.1436  0.0130  0.3054
16104TIP3    H169727   0.818   3.695   1.555 -1.7776 -1.4564 -0.1283
16104TIP3    H269728   0.910   3.613   1.467  0.1934  0.4035  0.1130
16105TIP3   OH269729   1.079   5.070   6.200 -0.1547 -0.1299 -0.0409
16105TIP3    H169730   1.175   5.069   6.200 -0.1020 -0.6337 -2.3590
16105TIP3    H269731   1.056   5.160   6.223  0.9155  0.2835 -0.5265
16106TIP3   OH269732   5.846   0.036  11.854 -0.7425 -0.6345  0.0662
16106TIP3    H169733   5.940   0.034  11.871 -1.1393 -2.0904  2.6602
16106TIP3    H269734   5.838   0.026  11.759  1.6931 -1.6802 -0.0974
16107TIP3   OH269735   6.603   2.723  12.911  0.5240  0.6156  0.2316
16107TIP3    H169736   6.578   2.776  12.987 -0.5910  0.4283  0.0230
16107TIP3    H269737   6.521   2.711  12.864  1.1820  0.6025 -0.9299
16108TIP3   OH269738   5.853   0.696   0.188  0.7086  0.9249  0.1706
16108TIP3    H169739   5.894   0.622   0.232  2.3750  1.9297  0.3649
16108TIP3    H269740   5.887   0.693   0.099 -0.3755  0.6171 -0.2512
16109TIP3   OH269741   3.323   1.688   2.014  0.8551 -0.0555  0.7248
16109TIP3    H169742   3.404   1.734   2.036  0.3198  0.9125  0.6988
16109TIP3    H269743   3.351   1.617   1.956  1.7319  0.0229  1.0391
16110TIP3   OH269744   2.611   5.103   2.610 -0.0584  0.6673  0.4592
16110TIP3    H169745   2.673   5.083   2.539 -2.5549  1.3454 -2.0849
16110TIP3    H269746   2.593   5.018   2.650  2.1461  0.4033  1.0145
16111TIP3   OH269747   0.779   2.570   5.166  0.6790  0.1776 -0.4997
16111TIP3    H169748   0.849   2.634   5.175  0.2917  0.3272  2.0098
16111TIP3    H269749   0.795   2.505   5.234 -1.8988  0.5724  0.6405
16112TIP3   OH269750   6.536   0.536   1.976  0.2131  0.5247 -0.1373
16112TIP3    H169751   6.482   0.516   1.900  1.9203  1.6974 -1.7647
16112TIP3    H269752   6.550   0.451   2.019 -0.8998 -0.1460 -1.0486
16113TIP3   OH269753   6.486   1.933  15.120  0.1307 -0.3929  0.3272
16113TIP3    H169754   6.474   1.988  15.197 -0.4776  1.1464 -0.8033
16113TIP3    H269755   6.399   1.928  15.080  0.6263 -0.2661 -0.8240
16114TIP3   OH269756   3.416   6.448   4.100  0.0104 -0.5558 -0.3934
16114TIP3    H169757   3.389   6.486   4.185 -1.6988 -1.2802 -0.5579
16114TIP3    H269758   3.359   6.371   4.090  0.3373 -0.6004 -2.1046
16115TIP3   OH269759   5.207   1.040  15.157  0.5808  0.0572  0.0283
16115TIP3    H169760   5.274   0.971  15.158  0.2724 -0.2864 -1.0031
16115TIP3    H269761   5.169   1.034  15.069 -1.1859 -0.1285  0.7668
16116TIP3   OH269762   5.750   0.364   1.679 -0.1383  0.1727 -0.2017
16116TIP3    H169763   5.824   0.339   1.622 -0.8711 -0.2372 -1.0060
16116TIP3    H269764   5.719   0.446   1.642  0.7813  1.1122  1.0092
16117TIP3   OH269765   6.330   4.253  11.747 -0.1263  0.2751  0.5227
16117TIP3    H169766   6.315   4.303  11.827 -0.9636  1.1738 -0.1606
16117TIP3    H269767   6.267   4.289  11.684  1.1491  0.2632 -0.8289
16118TIP3   OH269768   6.438   1.084  10.507  0.0609 -0.1445  0.6560
16118TIP3    H169769   6.440   1.178  10.524  0.2530  0.5397 -2.5531
16118TIP3    H269770   6.355   1.069  10.463 -0.4072 -1.7125  1.9768
16119TIP3   OH269771   1.691   5.040  14.895 -0.3141  0.0899 -0.7705
16119TIP3    H169772   1.715   5.065  14.984 -2.0614 -2.3539  0.5031
16119TIP3    H269773   1.775   5.033  14.849  0.6598  0.9736  0.7752
16120TIP3   OH269774   6.100   0.437   1.115  0.2556 -0.1166 -0.5856
16120TIP3    H169775   6.167   0.371   1.099 -1.2543 -2.2047  1.0944
16120TIP3    H269776   6.139   0.495   1.180  0.6589 -1.0321  0.0225
16121TIP3   OH269777   6.514   3.285  11.128 -0.4823  0.0437 -0.3382
16121TIP3    H169778   6.549   3.358  11.179 -1.1508 -0.9816  1.7028
16121TIP3    H269779   6.586   3.259  11.070  0.2935  1.3024  0.0260
16122TIP3   OH269780   5.957   6.510  13.332  0.3894 -0.1691  0.1462
16122TIP3    H169781   5.914   6.444  13.278 -3.8606  0.9115  1.7707
16122TIP3    H269782   5.973   6.466  13.416  1.0219 -0.0987  0.0711
16123TIP3   OH269783   1.191   0.507   2.470 -0.4789  0.2976 -0.2000
16123TIP3    H169784   1.183   0.439   2.403 -0.2373  0.2692 -0.1991
16123TIP3    H269785   1.263   0.562   2.440  0.8798 -0.7674  0.9624
16124TIP3   OH269786   3.590   4.978   0.460 -0.7473  0.4631 -0.5007
16124TIP3    H169787   3.610   5.050   0.518 -0.8716 -0.5396  0.8339
16124TIP3    H269788   3.668   4.966   0.407 -1.3204  2.6374 -1.9479
16125TIP3   OH269789   2.004   0.456   2.801  0.3624 -0.2272  0.2280
16125TIP3    H169790   2.020   0.466   2.707 -2.5664  0.8532 -0.2807
16125TIP3    H269791   1.967   0.368   2.810  0.2358 -0.1705  0.2773
16126TIP3   OH269792   4.965   3.039   3.240 -0.0230  0.2874 -0.2636
16126TIP3    H169793   4.891   2.980   3.250  0.1594  0.1049  0.0106
16126TIP3    H269794   4.991   3.030   3.148 -0.8745  0.9903 -0.5841
16127TIP3   OH269795   5.215   5.136   0.768  0.2493  0.4801 -0.0328
16127TIP3    H169796   5.141   5.115   0.825 -1.2779  0.0244 -2.0431
16127TIP3    H269797   5.215   5.231   0.761  0.1185  0.5048  0.3030
16128TIP3   OH269798   3.477   0.486  15.844 -0.4665  0.0073  0.6150
16128TIP3    H169799   3.570   0.468  15.840 -0.2668  0.5005  2.3952
16128TIP3    H269800   3.471   0.582  15.851 -1.0872 -0.0375  0.7978
16129TIP3   OH269801   6.289   6.134  11.969 -0.3279  0.0308 -0.3726
16129TIP3    H169802   6.334   6.126  11.884 -0.6824  0.0219 -0.5607
16129TIP3    H269803   6.213   6.189  11.951  0.2211  0.9945  0.1894
16130TIP3   OH269804   2.362   3.620   1.559 -0.1281  0.1864 -0.1588
16130TIP3    H169805   2.378   3.676   1.635  1.7652 -1.1663  0.5334
16130TIP3    H269806   2.305   3.671   1.503  0.7571  2.4270  0.8398
16131TIP3   OH269807   4.832   2.600   0.278  0.3077 -0.1173 -0.1948
16131TIP3    H169808   4.919   2.602   0.319 -0.5305  0.5358  1.6420
16131TIP3    H269809   4.837   2.666   0.209  1.6447 -1.0025 -1.0013
16132TIP3   OH269810   4.523   5.246   5.904  0.4196 -0.4186  0.3018
16132TIP3    H169811   4.490   5.222   5.818 -1.7111 -0.6711  1.1281
16132TIP3    H269812   4.562   5.166   5.938  1.0921 -0.3701 -0.3337
16133TIP3   OH269813   2.471   3.504   0.451 -0.9176 -0.2603  1.0116
16133TIP3    H169814   2.539   3.559   0.489 -1.5209  0.0958  1.5998
16133TIP3    H269815   2.391   3.530   0.496 -1.3567 -1.0525  0.7164
16134TIP3   OH269816   0.026   2.542  10.606 -0.0352 -0.8961 -0.5497
16134TIP3    H169817  -0.060   2.583  10.595  0.7611  0.7664 -0.8905
16134TIP3    H269818   0.035   2.484  10.530 -0.3183 -0.0681 -1.2303
16135TIP3   OH269819   5.009   1.906  10.838  0.0969 -0.2893  0.1343
16135TIP3    H169820   5.024   1.962  10.762 -0.0333 -0.4989 -0.0480
16135TIP3    H269821   5.028   1.817  10.806  2.9405 -0.1474  1.0938
16136TIP3   OH269822   3.561   1.945  12.882  0.3592 -0.7610  0.0063
16136TIP3    H169823   3.526   1.881  12.820  0.6606 -0.5688 -0.3617
16136TIP3    H269824   3.652   1.959  12.854  1.2058 -2.2991  1.7604
16137TIP3   OH269825   6.072   6.001   3.523  0.0995 -0.1981 -0.3046
16137TIP3    H169826   6.133   6.065   3.488 -0.5784  0.1605 -0.8486
16137TIP3    H269827   6.120   5.958   3.594  0.5639  0.9039  0.0586
16138TIP3   OH269828   2.863   0.594   4.165 -0.0452  0.4202  0.3407
16138TIP3    H169829   2.802   0.561   4.231  0.2071 -0.0001  0.3707
16138TIP3    H269830   2.866   0.689   4.180 -0.4648  0.4059  0.5258
16139TIP3   OH269831   6.783   4.261   6.090 -0.2069 -0.3897 -0.1532
16139TIP3    H169832   6.824   4.195   6.035  0.3155 -1.0285  0.9696
16139TIP3    H269833   6.853   4.289   6.150 -0.4253  1.1676 -0.5841
16140TIP3   OH269834   6.225   4.344  10.797  0.6087 -0.1317  0.3550
16140TIP3    H169835   6.287   4.409  10.829  0.0631  1.6522 -1.9481
16140TIP3    H269836   6.255   4.323  10.708 -1.0274 -0.6266 -0.1206
16141TIP3   OH269837   0.452   3.146   2.554  0.4754  0.5759  0.0774
16141TIP3    H169838   0.448   3.082   2.483  3.0350  2.3236 -1.8369
16141TIP3    H269839   0.537   3.132   2.595  0.0888  1.2587  1.1774
16142TIP3   OH269840   4.976   5.844   4.157 -0.4382  0.5930  0.2293
16142TIP3    H169841   4.986   5.749   4.158 -0.7342  0.5618  0.3881
16142TIP3    H269842   4.969   5.866   4.064  1.3478  0.6544  0.0846
16143TIP3   OH269843   5.201   0.171   0.415 -0.3331 -0.0296  0.0599
16143TIP3    H169844   5.296   0.169   0.421 -0.3161 -1.6605 -0.2090
16143TIP3    H269845   5.182   0.235   0.347  0.5537  0.5756  0.3727
16144TIP3   OH269846   3.092   0.045  16.127  0.0079  0.3387  0.3245
16144TIP3    H169847   3.110   0.132  16.090 -0.0948  0.2507  0.0678
16144TIP3    H269848   3.108   0.056  16.221  2.1308  0.0904  0.0486
16145TIP3   OH269849   1.385   4.892   0.183  0.0409  0.0107  0.2384
16145TIP3    H169850   1.335   4.972   0.201  1.0072  1.1888 -1.9536
16145TIP3    H269851   1.344   4.855   0.105 -0.6367 -1.9239  1.4341
16146TIP3   OH269852   4.141   5.379   5.028 -0.2690  0.1916 -0.1641
16146TIP3    H169853   4.190   5.461   5.013 -0.9219  1.3880  3.3882
16146TIP3    H269854   4.049   5.404   5.017 -0.4434 -0.2224  0.3369
16147TIP3   OH269855   6.394   0.228  12.866  0.5537 -0.0290 -0.3246
16147TIP3    H169856   6.402   0.323  12.854 -1.5328  0.2993  0.4722
16147TIP3    H269857   6.299   0.212  12.861  0.8315 -1.9863  0.2130
16148TIP3   OH269858   1.360   1.789  14.863  0.1457 -0.2544 -0.6674
16148TIP3    H169859   1.382   1.780  14.771 -1.2832 -2.2087 -0.8617
16148TIP3    H269860   1.405   1.717  14.906 -0.3894 -0.2457 -0.0686
16149TIP3   OH269861   3.956   2.144  12.311  0.7045  0.3876 -0.4746
16149TIP3    H169862   3.873   2.110  12.280  0.3455 -0.1142  0.9433
16149TIP3    H269863   3.979   2.213  12.249  0.2041 -0.7493 -1.9673
16150TIP3   OH269864   3.905   3.041   2.992  0.3875  0.1403 -0.3807
16150TIP3    H169865   3.837   2.991   3.038 -0.8343  3.0154  1.2464
16150TIP3    H269866   3.959   2.975   2.949 -0.9925 -2.5231  1.6708
16151TIP3   OH269867   1.541   6.591   6.294 -0.8571 -0.6834  0.5151
16151TIP3    H169868   1.511   6.564   6.381 -1.3188 -0.3449  0.4638
16151TIP3    H269869   1.567   6.683   6.306  0.1692 -0.9659  0.5605
16152TIP3   OH269870   2.222   5.153   6.418  0.1250  0.3519 -0.4254
16152TIP3    H169871   2.196   5.243   6.439 -0.3599  0.1072  0.0563
16152TIP3    H269872   2.145   5.116   6.373  0.9383  0.6935 -2.1782
16153TIP3   OH269873   6.334   0.966  10.787 -0.6689  0.3586 -0.1997
16153TIP3    H169874   6.358   1.059  10.781 -0.4536  0.2919 -0.4212
16153TIP3    H269875   6.313   0.952  10.879  0.5169  0.3328  0.0839
16154TIP3   OH269876   3.342   0.438   3.040  0.9275 -0.4385 -0.4288
16154TIP3    H169877   3.424   0.477   3.070 -0.2073  1.6157  0.2825
16154TIP3    H269878   3.305   0.397   3.118  0.9763 -0.8057 -0.5965
16155TIP3   OH269879   2.504   2.556   4.000 -0.3171 -0.7428  0.2107
16155TIP3    H169880   2.412   2.559   3.974 -0.3994  2.2627  0.4469
16155TIP3    H269881   2.513   2.474   4.048 -2.4691 -1.8487 -1.1222
16156TIP3   OH269882   6.300   3.735  15.582 -0.3308  0.1685  0.2689
16156TIP3    H169883   6.345   3.813  15.615 -0.1820  0.1480  0.1150
16156TIP3    H269884   6.242   3.709  15.653 -0.3112  0.3660  0.3569
16157TIP3   OH269885   0.479   1.346   0.205 -0.2546  0.5584 -0.3421
16157TIP3    H169886   0.501   1.315   0.293  1.1897 -0.0047 -0.8659
16157TIP3    H269887   0.468   1.265   0.154  1.5626  0.8283 -1.2618
16158TIP3   OH269888   4.662   2.252   1.184  0.8756  0.3228  0.1901
16158TIP3    H169889   4.709   2.174   1.154 -1.8840 -1.2126 -0.4419
16158TIP3    H269890   4.679   2.317   1.116  0.8685 -0.6886 -0.8099
16159TIP3   OH269891   4.961   0.654  13.604  0.5623  0.5508  0.2115
16159TIP3    H169892   5.020   0.579  13.590  0.2345  0.5202 -1.1045
16159TIP3    H269893   4.999   0.700  13.679  1.0631 -0.6475  0.7172
16160TIP3   OH269894   4.719   6.758   5.432  0.0429 -0.3982 -0.1989
16160TIP3    H169895   4.624   6.754   5.438  0.0065  1.3265  1.1485
16160TIP3    H269896   4.750   6.725   5.516  0.8386 -3.8137 -1.6582
16161TIP3   OH269897   4.210   4.809  15.946  0.9739 -0.0560 -0.7014
16161TIP3    H169898   4.297   4.782  15.974  0.4970 -0.1518  0.7851
16161TIP3    H269899   4.150   4.754  15.996  0.0296  1.6058  0.0843
16162TIP3   OH269900   5.030   2.343  12.186 -0.2852  0.9001 -0.7114
16162TIP3    H169901   4.973   2.406  12.229  1.8950  0.8539  2.5986
16162TIP3    H269902   4.978   2.263  12.180 -1.3776  1.5524 -0.1540
16163TIP3   OH269903   5.833   3.411   5.457  0.3566  0.5731 -0.4326
16163TIP3    H169904   5.788   3.460   5.526 -1.4228  1.7295 -2.3035
16163TIP3    H269905   5.924   3.409   5.485 -0.0594  2.2268  1.2669
16164TIP3   OH269906   1.771   4.134   4.445 -0.0619 -0.4325  0.6606
16164TIP3    H169907   1.701   4.176   4.496 -0.5464 -0.5927  0.1325
16164TIP3    H269908   1.819   4.082   4.509 -1.5384 -1.7875  0.7248
16165TIP3   OH269909   3.108   6.340   4.768  0.0441 -0.3120  0.1625
16165TIP3    H169910   3.154   6.267   4.727 -0.8495 -0.9981  0.3643
16165TIP3    H269911   3.158   6.360   4.846  1.1739  0.3217 -0.6933
16166TIP3   OH269912   2.346   3.613  12.216 -0.2062 -0.0637  0.1285
16166TIP3    H169913   2.286   3.687  12.223 -1.6499 -1.0299 -1.4703
16166TIP3    H269914   2.432   3.654  12.203 -1.0343  1.3434 -1.2644
16167TIP3   OH269915   5.241   6.164  10.959  0.6670 -0.8522 -0.0754
16167TIP3    H169916   5.291   6.083  10.968  1.9821 -0.0335  0.1598
16167TIP3    H269917   5.231   6.196  11.049 -0.2359 -0.9589 -0.1230
16168TIP3   OH269918   3.156   2.934   1.707  0.1197 -0.2364 -0.7438
16168TIP3    H169919   3.252   2.931   1.705  0.0707 -2.5267 -1.9539
16168TIP3    H269920   3.130   2.857   1.758 -1.0931 -0.0492 -1.0363
16169TIP3   OH269921   0.123   1.673   3.615 -0.2694  0.0907  0.0712
16169TIP3    H169922   0.049   1.650   3.672 -2.0488  2.8993 -0.9065
16169TIP3    H269923   0.128   1.600   3.552 -1.3925 -0.7490  0.9063
16170TIP3   OH269924   1.698   4.156   6.234 -0.2270 -0.2504  0.1171
16170TIP3    H169925   1.714   4.087   6.299 -2.4905 -0.8461  0.1410
16170TIP3    H269926   1.627   4.208   6.272  0.4697  1.2394 -0.5634
16171TIP3   OH269927   3.242   1.636  14.551  0.2401  0.5670  0.1365
16171TIP3    H169928   3.227   1.577  14.625  0.4367  0.9106  0.4526
16171TIP3    H269929   3.171   1.701  14.557 -1.0178 -0.6066 -1.2151
16172TIP3   OH269930   1.247   0.807   0.477  0.0169  0.5582 -0.2653
16172TIP3    H169931   1.271   0.716   0.464 -1.2707  0.1552  0.0338
16172TIP3    H269932   1.294   0.854   0.408 -0.6663 -0.5527 -1.5303
16173TIP3   OH269933   2.069   4.440   1.837  0.1796  0.2327  0.2353
16173TIP3    H169934   2.078   4.357   1.791 -0.4275  0.5978 -0.5599
16173TIP3    H269935   2.041   4.502   1.770  2.3358  1.5044  0.4057
16174TIP3   OH269936   6.506   5.907   0.371 -0.0768  0.2208  0.0217
16174TIP3    H169937   6.433   5.967   0.387 -0.0538  0.8582 -2.0123
16174TIP3    H269938   6.474   5.849   0.302 -0.4486 -2.8095  2.5130
16175TIP3   OH269939   5.003   0.975  16.959 -0.8848 -0.5722  0.5007
16175TIP3    H169940   5.000   1.070  16.946 -0.9562 -0.7208 -0.7427
16175TIP3    H269941   4.922   0.943  16.918 -0.1238 -1.3004 -0.4601
16176TIP3   OH269942   0.693   3.523   6.846 -0.1018 -0.5038  0.2139
16176TIP3    H169943   0.699   3.604   6.795 -0.3475 -0.6993 -0.1259
16176TIP3    H269944   0.604   3.523   6.882 -0.0016 -0.4750  0.4663
16177TIP3   OH269945   6.036   0.492  16.240 -0.0472  0.2190  0.0300
16177TIP3    H169946   6.013   0.584  16.250 -0.1972  0.1394  0.4046
16177TIP3    H269947   6.119   0.494  16.191  0.1476  0.5677  0.3666
16178TIP3   OH269948   1.169   2.260  14.498 -0.5509 -0.0171 -0.1025
16178TIP3    H169949   1.119   2.300  14.569  0.2592  3.4510 -1.2919
16178TIP3    H269950   1.239   2.211  14.542 -0.9917  0.7417  1.4808
16179TIP3   OH269951   2.176   2.382  17.146 -0.2645 -0.1966 -0.1734
16179TIP3    H169952   2.165   2.287  17.147  1.8109 -0.4823 -0.2526
16179TIP3    H269953   2.157   2.408  17.237  1.0795 -0.9792  0.3693
16180TIP3   OH269954   1.086   5.003  15.252 -0.0355  0.2512  0.4693
16180TIP3    H169955   1.154   4.944  15.283  0.3976 -0.0865 -1.0526
16180TIP3    H269956   1.113   5.090  15.282  0.6790  0.0189  0.5051
16181TIP3   OH269957   3.965   0.645  13.988  0.4722 -0.4105  0.1482
16181TIP3    H169958   3.921   0.562  13.974  1.5911 -0.9151 -0.4563
16181TIP3    H269959   3.931   0.702  13.919 -0.7568 -0.1495  0.9319
16182TIP3   OH269960   4.811   5.765   2.868 -0.2864 -0.5183  0.3579
16182TIP3    H169961   4.839   5.688   2.916  0.2890 -1.1441 -0.9553
16182TIP3    H269962   4.774   5.731   2.787 -0.4538  0.5607 -0.0368
16183TIP3   OH269963   0.751   3.840   3.869 -0.0422  0.3189 -0.3886
16183TIP3    H169964   0.845   3.853   3.869  0.0600 -0.3425 -1.3623
16183TIP3    H269965   0.739   3.746   3.877 -0.6557  0.4892  0.9625
16184TIP3   OH269966   0.333   1.196   3.503 -0.2856 -0.2891 -0.0399
16184TIP3    H169967   0.350   1.290   3.490 -3.3090  0.2886 -0.4488
16184TIP3    H269968   0.419   1.155   3.489  0.7326  2.1946 -2.0034
16185TIP3   OH269969   0.524   3.642  12.737  0.4785 -0.6484  0.0364
16185TIP3    H169970   0.488   3.727  12.761  0.4939 -0.0110 -1.9723
16185TIP3    H269971   0.618   3.651  12.749  0.5395 -0.1568 -0.7476
16186TIP3   OH269972   5.544   2.146  16.144 -0.1228 -0.4886  0.3186
16186TIP3    H169973   5.508   2.059  16.166 -0.1317 -1.0046 -1.6010
16186TIP3    H269974   5.606   2.129  16.074  1.1570  0.8881  1.0678
16187TIP3   OH269975   3.276   0.739   1.554 -0.0155  0.0624  0.2256
16187TIP3    H169976   3.364   0.716   1.524 -0.4993  0.1058 -1.3430
16187TIP3    H269977   3.282   0.832   1.576  0.1291  0.3178 -0.8063
16188TIP3   OH269978   2.786   4.759  17.151  0.2439  0.0297 -0.5955
16188TIP3    H169979   2.772   4.847  17.117 -2.0702 -0.1423 -0.2547
16188TIP3    H269980   2.725   4.704  17.101  0.8211 -1.1778 -0.0222
16189TIP3   OH269981   5.673   4.072   4.057 -0.2780 -0.5295 -0.6260
16189TIP3    H169982   5.592   4.110   4.091 -0.4705  0.5683 -2.1875
16189TIP3    H269983   5.712   4.143   4.005  1.2373 -1.3294 -0.6337
16190TIP3   OH269984   3.260   6.114   0.185 -0.1273 -0.6628 -0.5111
16190TIP3    H169985   3.188   6.112   0.122 -0.7737  0.2745  0.1791
16190TIP3    H269986   3.296   6.202   0.177  0.2395 -0.7710 -0.0694
16191TIP3   OH269987   4.906   5.666  14.903 -0.6250 -0.2437  0.0474
16191TIP3    H169988   4.917   5.710  14.987 -1.0930 -1.4906  0.7955
16191TIP3    H269989   4.991   5.677  14.859  0.5738 -1.8023  1.8022
16192TIP3   OH269990   3.342   3.397  17.066 -0.3498  0.6186  0.1739
16192TIP3    H169991   3.321   3.437  17.151  0.7496  1.2640  0.1690
16192TIP3    H269992   3.327   3.304  17.079 -1.0129  0.8019  0.8191
16193TIP3   OH269993   2.434   4.537  14.976 -0.0651 -0.4419  0.1607
16193TIP3    H169994   2.509   4.547  14.918 -0.2806 -2.6573 -0.5865
16193TIP3    H269995   2.401   4.449  14.958 -2.3886  0.1775  1.0161
16194TIP3   OH269996   6.483   1.662   2.120 -0.6210 -0.0070 -0.5689
16194TIP3    H169997   6.488   1.632   2.211  0.5971  0.0786 -0.5965
16194TIP3    H269998   6.415   1.607   2.081 -1.5542  0.3353  0.5233
16195TIP3   OH269999   2.504   5.039  15.797 -0.0783 -0.3203 -0.2558
16195TIP3    H170000   2.516   5.069  15.887 -1.0325  0.9482 -0.5079
16195TIP3    H270001   2.410   5.021  15.790 -0.3374  1.2560 -1.4355
16196TIP3   OH270002   4.668   2.839   5.639 -0.5606  0.3821  0.0179
16196TIP3    H170003   4.726   2.874   5.707 -2.2119  0.0802  1.6640
16196TIP3    H270004   4.635   2.757   5.675  0.0518 -0.8376 -2.0442
16197TIP3   OH270005   2.848   6.631   0.310 -0.1427  0.2971 -0.5103
16197TIP3    H170006   2.792   6.707   0.296  0.6688  0.8629 -0.7325
16197TIP3    H270007   2.921   6.664   0.361 -0.4257 -0.6220  0.5262
16198TIP3   OH270008   3.761   4.029   4.354  0.1437  0.1054 -0.2098
16198TIP3    H170009   3.785   4.010   4.264  0.9771 -0.1432  0.0642
16198TIP3    H270010   3.730   3.946   4.389 -0.0153  0.1633 -0.2101
16199TIP3   OH270011   1.041   3.792  12.472  0.5526  0.4247 -0.1033
16199TIP3    H170012   0.993   3.821  12.549  1.5816  0.5335  0.5180
16199TIP3    H270013   0.994   3.831  12.398 -0.9039 -0.3235  0.4034
16200TIP3   OH270014   4.315   5.368   2.700 -0.0116  1.0138  0.5393
16200TIP3    H170015   4.227   5.371   2.737  0.2437  1.1745  1.1599
16200TIP3    H270016   4.310   5.307   2.628 -0.7729  1.4697  0.2014
16201TIP3   OH270017   5.127   3.562   0.747 -0.6228 -0.4458 -0.4473
16201TIP3    H170018   5.212   3.553   0.790 -1.8559 -0.6503  2.1389
16201TIP3    H270019   5.144   3.618   0.671  1.4310  1.3559  1.2227
16202TIP3   OH270020   4.442   3.891   0.080  0.2721 -0.3003  0.2178
16202TIP3    H170021   4.391   3.950   0.024  0.9073  1.9105  1.8182
16202TIP3    H270022   4.377   3.829   0.114 -0.6131  0.0440 -0.7548
16203TIP3   OH270023   4.816   3.255   2.093 -0.4187  0.1598  0.0281
16203TIP3    H170024   4.823   3.178   2.038  1.6444  0.9862 -0.9611
16203TIP3    H270025   4.904   3.268   2.128 -0.4665  2.5458 -0.5602
16204TIP3   OH270026   0.264   4.597   5.528 -0.3948  0.1435 -0.4013
16204TIP3    H170027   0.205   4.656   5.575 -0.7960 -0.2615 -0.3979
16204TIP3    H270028   0.221   4.581   5.444  0.2723  0.7861 -0.8833
16205TIP3   OH270029   5.786   3.217  14.797 -0.4024  0.0110 -0.0450
16205TIP3    H170030   5.758   3.186  14.883  0.7237 -0.0867  0.2963
16205TIP3    H270031   5.870   3.175  14.782 -0.6046 -0.0065 -1.2249
16206TIP3   OH270032   2.637   3.415   1.814  0.3728  0.1260  0.0803
16206TIP3    H170033   2.640   3.505   1.848 -1.8859  0.7333 -1.0754
16206TIP3    H270034   2.543   3.398   1.802  0.8566 -0.6947 -3.9290
16207TIP3   OH270035   3.113   1.530  12.899 -0.5979  0.0359  0.2582
16207TIP3    H170036   3.078   1.612  12.935 -1.8269  0.2280 -1.2476
16207TIP3    H270037   3.197   1.554  12.861 -1.6849  1.0582 -1.6820
16208TIP3   OH270038   1.398   5.386  14.141  0.4498 -0.1983  0.8722
16208TIP3    H170039   1.443   5.350  14.064  0.0734  0.3540  0.3787
16208TIP3    H270040   1.468   5.409  14.201  0.7719 -0.3138  0.5462
16209TIP3   OH270041   5.461   5.712   3.053 -0.0755 -0.1979  0.1737
16209TIP3    H170042   5.437   5.621   3.038 -0.9435 -0.2299  1.5293
16209TIP3    H270043   5.415   5.736   3.133 -1.9854  2.2275 -1.5102
16210TIP3   OH270044   4.229   3.668  15.311 -0.0932  0.1151 -0.3582
16210TIP3    H170045   4.207   3.735  15.377  0.8354 -0.7152  0.8367
16210TIP3    H270046   4.322   3.651  15.324  0.0086 -0.3917 -1.6160
16211TIP3   OH270047   3.571   0.545   5.441  0.1355 -0.2785 -0.6261
16211TIP3    H170048   3.653   0.563   5.488 -1.1493  0.4439  1.4760
16211TIP3    H270049   3.552   0.628   5.396 -1.1640  0.8231  1.7577
16212TIP3   OH270050   6.081   0.563  15.420  0.1209  0.4148  1.0686
16212TIP3    H170051   6.012   0.500  15.440  0.1623  0.2021  0.5472
16212TIP3    H270052   6.162   0.521  15.447 -0.0373  1.1320  2.7990
16213TIP3   OH270053   5.863   0.493   4.724 -0.3503 -0.4639 -0.3092
16213TIP3    H170054   5.847   0.465   4.634  1.1922 -0.4270 -0.6316
16213TIP3    H270055   5.791   0.553   4.744 -2.9123 -3.3591 -0.1335
16214TIP3   OH270056   1.914   2.084  16.062 -0.4455 -0.4566  0.1238
16214TIP3    H170057   1.878   2.019  16.122  0.7985 -0.5977  0.7450
16214TIP3    H270058   1.920   2.164  16.114 -0.2659 -0.3217 -0.1013
16215TIP3   OH270059   1.963   5.168   1.207  0.1620  0.2661 -0.0942
16215TIP3    H170060   2.003   5.253   1.225 -0.9938  1.3305 -2.1579
16215TIP3    H270061   1.918   5.144   1.288 -0.5168  2.2266  0.1463
16216TIP3   OH270062   3.785   6.696  14.819 -0.1262 -0.5279 -0.1751
16216TIP3    H170063   3.709   6.729  14.866  0.5436 -0.3780  0.8229
16216TIP3    H270064   3.770   6.602  14.813  0.3792 -0.7372  1.4831
16217TIP3   OH270065   1.996   3.543  12.191  0.2783 -0.1297 -0.6776
16217TIP3    H170066   2.055   3.530  12.117  1.2286 -0.4903  0.1191
16217TIP3    H270067   2.042   3.604  12.248 -0.3549 -0.0033 -0.2902
16218TIP3   OH270068   0.310   0.687  14.446  0.1711 -0.2639  0.1844
16218TIP3    H170069   0.335   0.595  14.455 -0.7320 -0.3748  2.2008
16218TIP3    H270070   0.248   0.688  14.373 -3.6880 -2.2393  3.0789
16219TIP3   OH270071   4.639   1.201   5.159 -0.0643  0.4387  0.4704
16219TIP3    H170072   4.638   1.193   5.254  2.9792  0.8020  0.6088
16219TIP3    H270073   4.562   1.255   5.139 -0.6332  0.5584  2.7279
16220TIP3   OH270074   1.302   0.932  14.063 -0.1115 -0.8137  0.4814
16220TIP3    H170075   1.380   0.988  14.066 -0.8807  0.4745 -1.3696
16220TIP3    H270076   1.245   0.968  14.130 -0.9874  1.4121 -1.2939
16221TIP3   OH270077   1.340   1.921   2.214 -0.0608  0.1163 -0.6761
16221TIP3    H170078   1.376   1.912   2.126  0.4058  0.1740 -0.4912
16221TIP3    H270079   1.270   1.986   2.205 -1.2654 -1.2335 -1.3677
16222TIP3   OH270080   0.324   6.537  11.856 -0.4525 -0.3418 -0.8256
16222TIP3    H170081   0.283   6.459  11.819  0.7143 -0.8689 -1.0659
16222TIP3    H270082   0.338   6.594  11.780  0.9074 -0.9452 -1.0555
16223TIP3   OH270083   5.713   1.361   5.545 -1.1493 -0.2062 -0.1705
16223TIP3    H170084   5.640   1.412   5.580 -0.6343  1.5850 -1.5188
16223TIP3    H270085   5.786   1.423   5.542  0.1562 -1.6625  0.1698
16224TIP3   OH270086   4.691   4.598   1.065  0.2467  0.3078  0.3480
16224TIP3    H170087   4.644   4.563   1.141 -1.5521  2.0989  0.1632
16224TIP3    H270088   4.729   4.522   1.022 -1.1556 -1.0699  1.4451
16225TIP3   OH270089   3.699   2.097  17.106  0.6453  0.2192  0.8192
16225TIP3    H170090   3.679   2.009  17.139 -0.4929 -0.6101 -1.7635
16225TIP3    H270091   3.620   2.148  17.125  0.6912  0.2368  0.9593
16226TIP3   OH270092   4.161   1.025   4.998 -0.5830 -0.4435 -0.1590
16226TIP3    H170093   4.087   0.972   5.027 -1.2470  0.5235 -0.0419
16226TIP3    H270094   4.124   1.112   4.984  0.8802  0.5527  1.7158
16227TIP3   OH270095   5.722   5.009  11.753  0.2329 -0.1596 -0.2322
16227TIP3    H170096   5.655   5.047  11.696  1.3415  0.9291 -0.8536
16227TIP3    H270097   5.701   4.916  11.755  0.2133 -0.2689 -2.5633
16228TIP3   OH270098   4.111   4.479   4.641  0.2165 -0.0152  0.3748
16228TIP3    H170099   4.057   4.557   4.652 -2.9403 -2.1981  1.8386
16228TIP3    H270100   4.168   4.478   4.718 -0.0176  0.6298  0.5630
16229TIP3   OH270101   3.635   0.821   4.914  0.3379 -0.0837 -0.2974
16229TIP3    H170102   3.643   0.779   5.000 -0.1221  1.0898  0.3264
16229TIP3    H270103   3.679   0.760   4.854  1.1262 -0.6659  0.8392
16230TIP3   OH270104   4.813   2.385   3.452 -0.2849  0.2811  0.3127
16230TIP3    H170105   4.832   2.470   3.491 -0.1858 -0.0524  1.0147
16230TIP3    H270106   4.788   2.330   3.526  1.0511 -0.7048  0.0611
16231TIP3   OH270107   6.603   3.077   4.300  0.0433 -0.8929 -0.1799
16231TIP3    H170108   6.529   3.126   4.263 -0.3893 -0.4832  1.1661
16231TIP3    H270109   6.675   3.140   4.303 -0.0489 -0.7973  0.0663
16232TIP3   OH270110   1.581   4.770  11.105 -0.1152 -0.0869 -0.0628
16232TIP3    H170111   1.653   4.822  11.069  0.3985 -0.1475  0.8358
16232TIP3    H270112   1.513   4.772  11.037  0.6576  0.1253 -0.8438
16233TIP3   OH270113   5.611   5.552   5.654  0.4032  0.0426 -0.6227
16233TIP3    H170114   5.550   5.595   5.594  0.1708  1.0489  0.3069
16233TIP3    H270115   5.573   5.465   5.669 -0.2034  0.2482 -0.9264
16234TIP3   OH270116   5.390   5.312   1.098  0.3452 -0.2553  0.1759
16234TIP3    H170117   5.411   5.345   1.011 -1.0583  2.3567  0.7228
16234TIP3    H270118   5.297   5.288   1.092 -0.7217  2.9566  1.6320
16235TIP3   OH270119   3.827   1.745   2.039  0.4064  0.2344  0.5720
16235TIP3    H170120   3.779   1.752   1.957  0.3786  0.8773  0.6426
16235TIP3    H270121   3.888   1.672   2.024  1.8393  1.6276 -0.7660
16236TIP3   OH270122   5.487   5.471   0.314 -0.5673  0.1359  0.1444
16236TIP3    H170123   5.519   5.536   0.250 -0.8332  0.3108  0.1871
16236TIP3    H270124   5.557   5.407   0.319 -0.7874 -0.1925 -0.7630
16237TIP3   OH270125   3.547   4.434  16.500  0.5470 -0.0194 -0.2700
16237TIP3    H170126   3.590   4.450  16.584  2.5602 -2.0916 -0.7867
16237TIP3    H270127   3.548   4.518  16.455  1.6601  0.5929  0.8452
16238TIP3   OH270128   0.549   6.077  11.510 -0.8549  0.2618 -0.1169
16238TIP3    H170129   0.573   5.996  11.465 -0.0103  0.2929  0.2607
16238TIP3    H270130   0.599   6.074  11.592 -0.6542  1.2587 -0.1920
16239TIP3   OH270131   0.575   1.487   2.972  0.0964 -0.2248 -0.5934
16239TIP3    H170132   0.568   1.581   2.986  0.3060 -0.4099  0.8719
16239TIP3    H270133   0.548   1.475   2.881  1.4388  1.3975 -1.2752
16240TIP3   OH270134   2.560   5.922  14.987 -0.4402 -0.0035  0.3459
16240TIP3    H170135   2.596   5.835  14.965 -0.9707 -0.1780  0.1560
16240TIP3    H270136   2.520   5.911  15.073  0.5693  0.3729  0.8791
16241TIP3   OH270137   0.398   3.608   3.811  0.2032 -0.0071  0.2667
16241TIP3    H170138   0.453   3.539   3.849 -1.9656 -2.0669 -0.0902
16241TIP3    H270139   0.384   3.669   3.883  0.7588 -0.8586  1.1290
16242TIP3   OH270140   4.994   3.436   2.624 -0.1114  0.2232 -0.3157
16242TIP3    H170141   5.036   3.447   2.709 -0.6904  1.8033 -0.1930
16242TIP3    H270142   4.904   3.408   2.644 -0.4261  1.1654 -0.3594
16243TIP3   OH270143   2.377   3.673   2.560  0.3866  0.0797 -0.3752
16243TIP3    H170144   2.358   3.714   2.476 -0.8217 -0.4328 -0.3642
16243TIP3    H270145   2.473   3.672   2.564  0.4571  1.0778 -1.2549
16244TIP3   OH270146   6.549   2.315  12.152 -0.1814  0.0522  0.5947
16244TIP3    H170147   6.459   2.322  12.184  0.0605  0.5713  1.1850
16244TIP3    H270148   6.594   2.390  12.191  0.4723 -0.1185  0.1815
16245TIP3   OH270149   6.201   4.075   2.424  0.9140  0.3838 -0.0184
16245TIP3    H170150   6.229   4.032   2.344 -0.0626 -1.0657  0.3747
16245TIP3    H270151   6.114   4.039   2.442 -0.1361  2.8032  0.1728
16246TIP3   OH270152   1.558   4.856  17.039  0.5680 -0.0212  0.1765
16246TIP3    H170153   1.645   4.830  17.070  1.2454 -1.9466 -2.9791
16246TIP3    H270154   1.505   4.777  17.048 -0.0531  0.2911 -0.6442
16247TIP3   OH270155   5.618   0.956  13.916  0.1093  0.4846  0.0628
16247TIP3    H170156   5.684   1.017  13.881 -0.1218  1.0657  0.6042
16247TIP3    H270157   5.564   0.932  13.841  1.8340 -1.1981 -0.7077
16248TIP3   OH270158   5.931   5.985  12.975 -1.2266  1.1933  0.0687
16248TIP3    H170159   5.943   6.046  12.903  1.3107 -0.1384 -0.7649
16248TIP3    H270160   5.971   6.028  13.051 -0.6274  1.1279 -0.2043
16249TIP3   OH270161   5.291   6.106   4.049  0.1774 -0.1831 -0.0159
16249TIP3    H170162   5.210   6.121   4.097  0.7087 -0.5313  1.0210
16249TIP3    H270163   5.342   6.047   4.105  1.0754 -0.1082 -0.7242
16250TIP3   OH270164   2.385   0.906  17.001 -0.0147 -0.0260  0.4172
16250TIP3    H170165   2.334   0.923  17.080 -2.4453 -0.5155 -0.9159
16250TIP3    H270166   2.415   0.816  17.010  0.5979  0.2527  1.2139
16251TIP3   OH270167   1.355   2.795   0.888  0.3924  0.2238 -0.0394
16251TIP3    H170168   1.385   2.866   0.831  1.3983 -1.3004 -1.5132
16251TIP3    H270169   1.273   2.765   0.848  1.4525 -1.3050 -1.1850
16252TIP3   OH270170   1.891   0.550   4.643 -0.2500 -1.2403 -0.2878
16252TIP3    H170171   1.903   0.471   4.590  0.7176 -1.0978 -0.2948
16252TIP3    H270172   1.962   0.547   4.707 -0.8547 -0.9262  0.4060
16253TIP3   OH270173   0.888   4.159   0.012 -0.5565 -0.6107 -0.2662
16253TIP3    H170174   0.956   4.140   0.076 -0.1586 -0.0082 -0.5017
16253TIP3    H270175   0.832   4.223   0.055  0.3731  0.6964 -0.9169
16254TIP3   OH270176   6.021   1.150  13.073  0.6113  0.1612  0.0637
16254TIP3    H170177   5.933   1.117  13.093  0.6339  0.3615  0.5214
16254TIP3    H270178   6.008   1.243  13.054  0.9996  0.7785  2.5050
16255TIP3   OH270179   1.961   2.953   0.784 -0.1480  0.2371  0.0329
16255TIP3    H170180   1.889   2.903   0.821 -0.6626  1.6635  1.0751
16255TIP3    H270181   2.035   2.937   0.844 -0.3503  0.7914  0.4429
16256TIP3   OH270182   2.278   6.459   1.337  0.4032  0.1856  0.0003
16256TIP3    H170183   2.217   6.424   1.402  1.3603  0.5905  1.1433
16256TIP3    H270184   2.302   6.545   1.370  0.1899  0.8134 -1.3929
16257TIP3   OH270185   3.012   3.658   5.931 -0.2083  0.0455  0.6840
16257TIP3    H170186   3.084   3.680   5.991 -0.5846  0.1274  1.1094
16257TIP3    H270187   3.033   3.706   5.850  0.0358  0.3485  0.9227
16258TIP3   OH270188   0.642   5.861   3.039 -0.0189  0.0955  0.5794
16258TIP3    H170189   0.560   5.853   3.087 -0.1932  0.0718  0.2812
16258TIP3    H270190   0.666   5.771   3.015 -0.2825  0.1613  0.0466
16259TIP3   OH270191   3.836   2.967  13.581 -0.4022  0.0046 -0.4901
16259TIP3    H170192   3.811   3.053  13.548  0.3902  0.3012 -0.3368
16259TIP3    H270193   3.931   2.965  13.575 -0.3933 -0.7821 -0.2892
16260TIP3   OH270194   5.772   5.689  14.905 -0.5668  0.1331  0.4642
16260TIP3    H170195   5.713   5.615  14.916 -0.0578 -0.2993  0.3143
16260TIP3    H270196   5.802   5.710  14.994  0.6890 -1.0109  0.3479
16261TIP3   OH270197   0.636   5.133  11.067 -0.3645 -0.2786 -0.5966
16261TIP3    H170198   0.574   5.192  11.025  1.6884  1.3706 -1.5225
16261TIP3    H270199   0.695   5.191  11.116 -0.1667 -1.8521  1.1454
16262TIP3   OH270200   5.563   0.357  15.705 -0.1157  0.3770 -0.0099
16262TIP3    H170201   5.570   0.426  15.771 -0.2438  1.6891 -1.3201
16262TIP3    H270202   5.469   0.350  15.687 -0.0234  0.6487 -0.6485
16263TIP3   OH270203   4.691   2.255   0.574  0.0768 -0.3414  0.2789
16263TIP3    H170204   4.646   2.178   0.538 -0.3536 -0.0360  0.1607
16263TIP3    H270205   4.625   2.299   0.627 -1.7550  3.2767 -4.2841
16264TIP3   OH270206   5.455   6.546  17.114 -0.6969  0.2398 -0.1179
16264TIP3    H170207   5.533   6.601  17.103 -0.2101 -0.4664 -0.2403
16264TIP3    H270208   5.383   6.608  17.125 -0.3880  0.9288 -1.7374
16265TIP3   OH270209   5.899   3.417   3.709  0.3882  0.1983 -0.3441
16265TIP3    H170210   5.870   3.377   3.791 -1.3321  1.3131 -0.3532
16265TIP3    H270211   5.890   3.512   3.724  0.8764  0.4507 -1.5240
16266TIP3   OH270212   4.209   5.707  13.876  0.2149  0.2197 -0.1374
16266TIP3    H170213   4.256   5.640  13.825  1.1278  0.4248  0.4015
16266TIP3    H270214   4.248   5.790  13.848 -1.4503  0.6296 -1.3696
16267TIP3   OH270215   6.716   0.194   5.953  0.1975  0.0369 -0.2037
16267TIP3    H170216   6.670   0.140   5.889 -1.2719  1.4880 -0.4484
16267TIP3    H270217   6.792   0.227   5.905 -0.2968  0.2312 -0.8748
16268TIP3   OH270218   2.917   0.882   2.305  0.1482 -0.1679 -0.1821
16268TIP3    H170219   2.896   0.934   2.227  0.3751  0.2536  0.0312
16268TIP3    H270220   2.924   0.947   2.375  0.1076 -0.5286  0.1545
16269TIP3   OH270221   3.813   4.186  16.621  0.1598 -0.2501  0.9243
16269TIP3    H170222   3.892   4.162  16.573 -0.6946  0.6155 -1.0264
16269TIP3    H270223   3.835   4.270  16.662  0.2195  0.0622  0.2645
16270TIP3   OH270224   3.259   6.026  11.600  0.1142 -0.3618 -0.5973
16270TIP3    H170225   3.239   5.935  11.622 -2.5598  0.3797  0.4583
16270TIP3    H270226   3.206   6.044  11.522  0.6816  0.2756 -0.8450
16271TIP3   OH270227   3.822   3.495   1.999  0.0915  0.3390  0.5974
16271TIP3    H170228   3.793   3.441   1.925 -0.4941 -0.2091  1.2094
16271TIP3    H270229   3.772   3.576   1.991 -2.5860 -1.0066  2.2639
16272TIP3   OH270230   0.265   3.499  12.705 -0.2486  0.0316 -0.1944
16272TIP3    H170231   0.271   3.519  12.612  0.9539 -1.3193 -0.4354
16272TIP3    H270232   0.352   3.521  12.740 -1.1270  1.9271  0.9260
16273TIP3   OH270233   1.242   0.930   4.187  0.1944  0.2189 -0.3056
16273TIP3    H170234   1.296   0.889   4.120  0.3140  1.8913 -1.2999
16273TIP3    H270235   1.283   1.015   4.202 -0.5636  0.3888  0.9728
16274TIP3   OH270236   2.008   1.349  14.583 -0.2587  0.0953 -0.5237
16274TIP3    H170237   1.939   1.296  14.622  1.6522 -1.8348  0.4566
16274TIP3    H270238   2.088   1.299  14.597  1.1616  1.4070 -3.0947
16275TIP3   OH270239   4.720   3.824   3.083 -0.0060  0.1192  0.6525
16275TIP3    H170240   4.627   3.842   3.074  0.3428  1.6605 -0.3388
16275TIP3    H270241   4.747   3.792   2.997  0.4359 -0.0065  0.8356
16276TIP3   OH270242   3.903   5.413   1.472 -0.0202  0.1014  0.2656
16276TIP3    H170243   3.891   5.362   1.552 -1.6826 -0.2941 -0.2019
16276TIP3    H270244   3.817   5.448   1.453  0.1892 -0.3602 -1.7166
16277TIP3   OH270245   4.368   2.454   0.424 -0.0137  0.2905 -0.8440
16277TIP3    H170246   4.307   2.495   0.362  0.8468  0.3673 -1.6661
16277TIP3    H270247   4.454   2.484   0.396  0.6802 -2.1177 -1.5416
16278TIP3   OH270248   3.586   4.121   6.267 -0.6991 -0.1653 -0.2433
16278TIP3    H170249   3.546   4.047   6.313  0.3817 -0.5550  0.1137
16278TIP3    H270250   3.568   4.196   6.324  1.4556 -0.7890  1.4282
16279TIP3   OH270251   0.030   4.113  11.091  0.1435  0.3478 -0.2648
16279TIP3    H170252  -0.015   4.045  11.141 -0.1359  0.0090 -0.9646
16279TIP3    H270253   0.034   4.079  11.002  1.7975  0.3605 -0.2263
16280TIP3   OH270254   5.967   4.312  13.469 -0.1385 -0.3326  0.6272
16280TIP3    H170255   6.062   4.316  13.480  0.0614 -0.8130 -0.7187
16280TIP3    H270256   5.932   4.326  13.557  1.1188  1.4040  0.9060
16281TIP3   OH270257   0.003   1.613   5.917  0.1551  0.4146 -0.5067
16281TIP3    H170258   0.083   1.664   5.909 -0.0183  0.6926 -0.5039
16281TIP3    H270259   0.032   1.525   5.941  0.3806  0.9133  1.1655
16282TIP3   OH270260   1.842   3.936   0.517  0.1998  0.3785  0.5938
16282TIP3    H170261   1.915   3.994   0.493  0.3752 -0.0446  0.0877
16282TIP3    H270262   1.853   3.860   0.460 -0.6473  0.3204  0.5071
16283TIP3   OH270263   2.690   2.946  15.859  0.2153 -0.4869  0.4126
16283TIP3    H170264   2.763   2.884  15.865  1.8265  1.3043  0.0243
16283TIP3    H270265   2.640   2.932  15.940  2.2959 -0.1958  1.8095
16284TIP3   OH270266   5.509   5.314   2.072  0.0885 -0.2162  0.6101
16284TIP3    H170267   5.457   5.331   1.993  1.7532 -0.0661 -0.5147
16284TIP3    H270268   5.509   5.397   2.119 -0.1374 -0.0234  0.2802
16285TIP3   OH270269   0.659   1.815  13.861 -0.5972  0.1646 -0.1271
16285TIP3    H170270   0.607   1.735  13.861  0.3360 -0.4795  1.4858
16285TIP3    H270271   0.720   1.803  13.788 -2.0004  0.5154 -1.4307
16286TIP3   OH270272   3.163   1.233  16.950  0.1404  0.4442 -0.3046
16286TIP3    H170273   3.239   1.224  17.008 -1.1628  0.9880  1.5973
16286TIP3    H270274   3.164   1.154  16.897  2.0204  0.4411 -0.3258
16287TIP3   OH270275   5.631   0.390   3.853 -0.0375  0.0763  0.0260
16287TIP3    H170276   5.622   0.326   3.924 -0.3746 -0.1885 -0.2467
16287TIP3    H270277   5.557   0.370   3.794 -0.2639  0.8537  0.0407
16288TIP3   OH270278   6.772   0.154  14.798  0.5905  0.0311  0.1239
16288TIP3    H170279   6.731   0.177  14.882 -0.4129 -0.1523 -0.2910
16288TIP3    H270280   6.699   0.152  14.736  1.2875 -0.0391 -0.7155
16289TIP3   OH270281   4.942   0.837  15.576 -0.4885 -0.1179 -0.2260
16289TIP3    H170282   5.012   0.892  15.541  1.1924 -2.4539 -0.7538
16289TIP3    H270283   4.959   0.833  15.670 -2.5686  2.7795  0.4178
16290TIP3   OH270284   4.251   4.757  15.083  0.3647 -0.0147 -0.2010
16290TIP3    H170285   4.248   4.822  15.154  0.5020  0.4304 -0.5953
16290TIP3    H270286   4.166   4.765  15.040  1.2352  1.6616 -1.7706
16291TIP3   OH270287   0.708   4.411  16.017 -0.3535 -0.3378  0.7234
16291TIP3    H170288   0.650   4.395  16.092  1.3028 -1.3579  1.8462
16291TIP3    H270289   0.762   4.485  16.045 -1.4747  1.0495 -0.5834
16292TIP3   OH270290   1.913   2.734  11.843 -0.2484 -0.1615 -0.5144
16292TIP3    H170291   1.890   2.754  11.934 -1.4154  1.5139 -1.1358
16292TIP3    H270292   1.946   2.644  11.847 -1.6791 -0.6896  1.3467
16293TIP3   OH270293   3.075   3.329  14.217 -0.9231 -0.4321 -0.0003
16293TIP3    H170294   3.111   3.329  14.128 -0.3786 -0.2868  0.2232
16293TIP3    H270295   3.118   3.256  14.261 -0.2886  0.2408  0.5140
16294TIP3   OH270296   2.487   4.385   2.089  0.0832 -0.0889 -0.1642
16294TIP3    H170297   2.478   4.354   1.999 -0.4204 -0.3131 -0.0416
16294TIP3    H270298   2.580   4.400   2.100  0.0869  0.5120 -0.9107
16295TIP3   OH270299   1.200   2.952   5.402 -0.2241 -0.8342 -0.3228
16295TIP3    H170300   1.247   3.029   5.368 -0.5264 -0.4255  0.1646
16295TIP3    H270301   1.188   2.971   5.495 -1.9172 -0.6237 -0.5511
16296TIP3   OH270302   0.531   6.751  11.656 -0.5289 -0.5159 -0.5178
16296TIP3    H170303   0.500   6.739  11.567 -0.4359  1.0822 -0.7903
16296TIP3    H270304   0.626   6.738  11.650 -0.6414 -1.4392 -0.4383
16297TIP3   OH270305   2.857   6.087  16.097  0.1733 -0.1689 -0.1477
16297TIP3    H170306   2.863   6.182  16.089  0.6766 -0.1129  0.7607
16297TIP3    H270307   2.934   6.054  16.052 -0.8244 -0.2567 -1.8886
16298TIP3   OH270308   5.063   2.110   4.027  0.4102  0.1880 -0.1180
16298TIP3    H170309   5.078   2.065   3.944 -1.3470 -0.7959  0.0381
16298TIP3    H270310   5.149   2.118   4.067  1.0893 -0.7211 -1.3400
16299TIP3   OH270311   0.136   2.115   4.191  0.3389  0.3328  0.0550
16299TIP3    H170312   0.075   2.105   4.264  0.5940 -0.0666  0.2138
16299TIP3    H270313   0.080   2.140   4.117 -0.0275 -0.0876  0.1854
16300TIP3   OH270314   3.998   2.857   1.159  0.1283  0.0805 -0.4578
16300TIP3    H170315   4.027   2.847   1.068  0.2916 -1.0586 -0.2972
16300TIP3    H270316   4.074   2.830   1.211 -0.9350 -2.2972 -0.0232
16301TIP3   OH270317   1.920   0.920  13.989  0.3545  0.3242  0.4129
16301TIP3    H170318   1.934   0.961  14.074  0.8454 -1.1720  1.0979
16301TIP3    H270319   2.000   0.870  13.974  0.3729  0.7605 -1.0595
16302TIP3   OH270320   5.526   0.594  14.264 -0.6743  0.3943 -0.1507
16302TIP3    H170321   5.438   0.587  14.302 -0.2772 -0.0257  0.7223
16302TIP3    H270322   5.524   0.675  14.214 -1.5234  0.4579 -0.0264
16303TIP3   OH270323   0.772   0.460   4.323 -0.1420  0.3420  0.2515
16303TIP3    H170324   0.865   0.483   4.320  0.0027 -0.2917 -0.4531
16303TIP3    H270325   0.757   0.412   4.242 -0.7626 -0.7550  0.9871
16304TIP3   OH270326   0.228   5.949   0.735 -0.5006 -0.0570 -0.0557
16304TIP3    H170327   0.266   5.909   0.812 -0.3077 -0.2792 -0.2652
16304TIP3    H270328   0.287   6.022   0.713 -1.0206  0.5511  0.5110
16305TIP3   OH270329   5.416   5.668  11.606 -0.0183 -0.1485 -0.2275
16305TIP3    H170330   5.486   5.607  11.630  1.5256  1.5884 -0.1248
16305TIP3    H270331   5.392   5.711  11.688  1.0801  1.5311 -0.7272
16306TIP3   OH270332   0.707   1.014  15.777  0.6039 -0.3322  0.4433
16306TIP3    H170333   0.796   0.987  15.800  0.7054  0.9794  1.7624
16306TIP3    H270334   0.708   1.024  15.682  1.9070 -0.2412  0.4504
16307TIP3   OH270335   5.380   1.956   5.048  0.1259 -0.0082  0.1498
16307TIP3    H170336   5.395   1.889   5.115 -1.5311 -1.0972 -0.5103
16307TIP3    H270337   5.387   2.039   5.096 -0.1274 -0.7290  1.5044
16308TIP3   OH270338   5.167   2.312  14.181  0.3030  0.0998 -0.0197
16308TIP3    H170339   5.232   2.373  14.214 -1.3085  1.1830  1.3042
16308TIP3    H270340   5.141   2.260  14.256 -0.9092  0.2323 -0.3140
16309TIP3   OH270341   6.024   4.171  12.731  0.6448  0.2072 -0.0597
16309TIP3    H170342   6.045   4.203  12.819  3.4171  0.0381 -0.5714
16309TIP3    H270343   5.973   4.091  12.746 -0.3334  1.0309  1.3162
16310TIP3   OH270344   0.482   1.707  13.152  0.6342 -0.5139  0.1968
16310TIP3    H170345   0.522   1.638  13.099  1.6773 -0.8076  1.3225
16310TIP3    H270346   0.440   1.661  13.225 -0.0935 -0.0593  0.0809
16311TIP3   OH270347   3.027   6.775  13.090 -0.4640  0.3459 -0.3080
16311TIP3    H170348   2.982   6.858  13.107 -0.6897  0.3659 -1.0122
16311TIP3    H270349   3.116   6.800  13.064  0.7422  0.2773  3.1407
16312TIP3   OH270350   4.218   2.166  14.310 -0.3908 -0.2000 -1.1666
16312TIP3    H170351   4.176   2.182  14.394 -0.1147 -0.0892 -1.0506
16312TIP3    H270352   4.215   2.071  14.299 -0.6830 -0.1931 -1.1662
16313TIP3   OH270353   4.187   0.674  15.368 -0.0888  0.5640  0.0126
16313TIP3    H170354   4.241   0.738  15.322  0.3305  0.4541  0.3361
16313TIP3    H270355   4.187   0.703  15.459  0.0633  0.1373  0.1527
16314TIP3   OH270356   1.161   6.041   5.599  0.2848  0.1235  0.0547
16314TIP3    H170357   1.181   6.116   5.655  1.1376 -0.0113 -0.0483
16314TIP3    H270358   1.073   6.014   5.625  0.1430  0.8900  0.3903
16315TIP3   OH270359   2.140   1.914   2.192 -0.6448  0.1203  0.2340
16315TIP3    H170360   2.092   1.873   2.264  1.0177  0.4922  1.6271
16315TIP3    H270361   2.074   1.959   2.141 -1.7108  1.4576  2.6187
16316TIP3   OH270362   0.287   5.024   2.214  0.2835 -0.0998 -0.7963
16316TIP3    H170363   0.211   4.970   2.190  0.6141 -0.7934 -0.3070
16316TIP3    H270364   0.256   5.114   2.202 -0.5111 -0.3762 -0.9261
16317TIP3   OH270365   3.422   5.509   4.487 -1.0719  0.2448 -0.2668
16317TIP3    H170366   3.376   5.591   4.470 -2.4578 -0.0928  1.5829
16317TIP3    H270367   3.352   5.446   4.504  0.0116 -1.0806 -0.6044
16318TIP3   OH270368   1.729   1.245   4.105  0.1298 -0.0520  0.6283
16318TIP3    H170369   1.775   1.161   4.100  1.2596  0.5756  0.0873
16318TIP3    H270370   1.762   1.295   4.030 -1.5232  0.3983  0.1672
16319TIP3   OH270371   1.799   5.658   2.927  0.2706  0.0201 -0.4378
16319TIP3    H170372   1.749   5.660   2.845  0.2619 -0.2162 -0.4380
16319TIP3    H270373   1.768   5.735   2.975 -0.0105 -0.0582 -0.4882
16320TIP3   OH270374   3.755   2.066   4.085 -0.5741  0.1852  0.5272
16320TIP3    H170375   3.734   2.017   4.005  1.3000 -0.5953  0.4699
16320TIP3    H270376   3.746   2.158   4.059  0.0729 -0.0504 -0.6372
16321TIP3   OH270377   1.038   6.135  13.358 -0.6628  0.2719 -0.3795
16321TIP3    H170378   1.078   6.183  13.430 -1.2947  0.3870 -0.0998
16321TIP3    H270379   0.957   6.100  13.395 -2.1140  2.1477 -1.6080
16322TIP3   OH270380   4.981   1.049   4.346  0.0719 -0.0776  0.0233
16322TIP3    H170381   4.907   1.000   4.311  1.3351 -0.4967 -2.2125
16322TIP3    H270382   5.011   0.996   4.421  0.5672 -2.1013 -1.5051
16323TIP3   OH270383   1.186   6.170   4.925 -0.3960 -0.2710  0.2686
16323TIP3    H170384   1.242   6.116   4.979 -0.7877 -0.0363  0.9156
16323TIP3    H270385   1.225   6.258   4.930 -0.3683 -0.2705  0.0747
16324TIP3   OH270386   4.921   6.546  14.226 -0.3604 -0.2290 -0.2312
16324TIP3    H170387   4.828   6.540  14.245 -0.4143  0.2938 -0.2933
16324TIP3    H270388   4.965   6.510  14.303 -0.6270 -2.2669 -0.9882
16325TIP3   OH270389   5.663   0.618   0.783  0.0924  0.5797  0.0994
16325TIP3    H170390   5.572   0.594   0.800 -0.5507  2.2258 -0.7756
16325TIP3    H270391   5.666   0.713   0.796  2.5201  0.2352  3.6015
16326TIP3   OH270392   0.241   2.358   4.410  0.2275 -0.1865 -0.3110
16326TIP3    H170393   0.162   2.350   4.463  1.6527 -1.1958  1.8555
16326TIP3    H270394   0.238   2.284   4.350 -1.8200  1.4329 -2.3666
16327TIP3   OH270395   5.871   5.082   2.026 -0.1270  0.1953  0.0164
16327TIP3    H170396   5.943   5.099   1.964  0.9662  0.3128  1.2789
16327TIP3    H270397   5.912   5.085   2.112 -1.7284  0.6047  0.8021
16328TIP3   OH270398   5.450   3.062  12.303 -0.1736  0.1893 -0.2213
16328TIP3    H170399   5.452   3.154  12.277 -1.2424 -0.1930 -1.8523
16328TIP3    H270400   5.454   3.064  12.399 -0.9827  1.9812 -0.1738
16329TIP3   OH270401   2.698   1.116   3.932  0.6651  0.4130  0.3885
16329TIP3    H170402   2.749   1.140   4.009 -2.7991 -0.7655  3.3369
16329TIP3    H270403   2.689   1.020   3.939 -0.4820  0.3957 -0.9524
16330TIP3   OH270404   0.939   2.466   3.835  1.0358 -0.4687  0.0579
16330TIP3    H170405   0.912   2.467   3.743  1.1072 -0.7189  0.0341
16330TIP3    H270406   0.922   2.555   3.866  1.0921 -0.3607 -0.2217
16331TIP3   OH270407   2.808   1.085  12.395  0.4247  0.7870 -1.0012
16331TIP3    H170408   2.732   1.138  12.417 -0.6736 -1.2084  0.3778
16331TIP3    H270409   2.883   1.135  12.428 -0.7348  0.6360  2.2520
16332TIP3   OH270410   3.187   0.565  14.552 -0.0184 -0.7667 -0.3200
16332TIP3    H170411   3.279   0.539  14.551  0.3170  0.1789  1.7505
16332TIP3    H270412   3.143   0.496  14.602  0.1141  0.2557  1.2737
16333TIP3   OH270413   3.147   0.532   5.063 -0.4273  0.1861 -0.1085
16333TIP3    H170414   3.185   0.569   5.142  0.5154  0.8347 -0.8423
16333TIP3    H270415   3.222   0.523   5.003 -1.4086  1.5301 -1.6087
16334TIP3   OH270416   6.344   4.909  14.769  0.3229  0.1369 -0.1393
16334TIP3    H170417   6.319   4.845  14.834 -0.5986  0.8639  0.2440
16334TIP3    H270418   6.412   4.962  14.811 -0.6536  0.9495  0.4533
16335TIP3   OH270419   2.000   3.452  15.592  0.4967 -0.0915 -0.1340
16335TIP3    H170420   2.029   3.542  15.605 -1.3197  0.6223 -0.6727
16335TIP3    H270421   1.953   3.430  15.672  0.3440 -0.3195 -0.2870
16336TIP3   OH270422   6.136   5.957   4.349  0.3712 -0.2358  0.3323
16336TIP3    H170423   6.167   6.043   4.322 -1.0532 -0.1729 -1.2685
16336TIP3    H270424   6.216   5.909   4.374  1.4238  0.8158 -0.9077
16337TIP3   OH270425   3.327   4.489   2.739 -0.6123 -0.3169  0.4797
16337TIP3    H170426   3.283   4.416   2.695 -0.8443  1.0834 -1.7306
16337TIP3    H270427   3.340   4.554   2.671  3.3359  0.0987  1.4092
16338TIP3   OH270428   1.862   0.796  11.594  0.1559 -0.0255  0.1884
16338TIP3    H170429   1.926   0.841  11.539  0.3959 -0.7758 -0.1526
16338TIP3    H270430   1.874   0.703  11.575  0.6588 -0.3527  1.9730
16339TIP3   OH270431   1.295   4.936  13.161 -0.2688 -0.0836 -0.0344
16339TIP3    H170432   1.209   4.978  13.161 -0.4297 -0.3472 -1.4944
16339TIP3    H270433   1.277   4.844  13.178 -0.1308  0.0609  0.9578
16340TIP3   OH270434   3.293   5.255  15.659  1.0479 -0.3333 -0.6229
16340TIP3    H170435   3.263   5.344  15.677  2.8396  0.2868 -0.5573
16340TIP3    H270436   3.337   5.228  15.740 -0.5450 -1.7832 -0.1854
16341TIP3   OH270437   4.687   6.630  16.457  0.3491  0.0984 -0.7636
16341TIP3    H170438   4.657   6.540  16.469 -1.0079  0.7329  1.2373
16341TIP3    H270439   4.766   6.622  16.405  0.9439 -2.3768  0.3483
16342TIP3   OH270440   3.696   2.719   1.829  0.2974  0.2676 -0.8794
16342TIP3    H170441   3.756   2.646   1.847 -0.6667 -0.3382  0.0116
16342TIP3    H270442   3.753   2.792   1.805  1.3650 -0.3980 -0.4447
16343TIP3   OH270443   2.331   3.354  11.556 -0.4244 -0.8186  0.8493
16343TIP3    H170444   2.373   3.364  11.641 -0.4503  1.0900  0.6958
16343TIP3    H270445   2.388   3.401  11.495 -1.7281  0.1451  0.3026
16344TIP3   OH270446   5.095   4.297   4.913 -0.7224  0.3846  0.1434
16344TIP3    H170447   5.040   4.372   4.890 -0.9802  0.0009 -0.5261
16344TIP3    H270448   5.155   4.287   4.839 -1.7923 -1.0755 -0.5863
16345TIP3   OH270449   1.278   0.771  15.239  0.3318 -0.0812 -0.0839
16345TIP3    H170450   1.286   0.856  15.194  0.7086  0.1023  0.3174
16345TIP3    H270451   1.236   0.714  15.175 -0.5986  0.6021 -0.1091
16346TIP3   OH270452   5.678   0.975  10.860  0.6011 -1.0025 -0.6304
16346TIP3    H170453   5.659   1.006  10.772  1.0293 -0.2923 -0.4887
16346TIP3    H270454   5.595   0.940  10.892 -0.0215  0.3363 -0.6832
16347TIP3   OH270455   0.112   6.039   5.109  0.3368  0.0353 -0.1891
16347TIP3    H170456   0.051   6.084   5.051  0.7606  2.4226  1.0552
16347TIP3    H270457   0.193   6.090   5.103  0.9807 -0.7838  1.0459
16348TIP3   OH270458   5.346   2.800   5.277  0.2728 -0.4080 -0.1789
16348TIP3    H170459   5.369   2.754   5.358 -0.2546  0.1019  0.2690
16348TIP3    H270460   5.425   2.796   5.224  0.4321 -1.2945  0.1033
16349TIP3   OH270461   1.843   1.964   1.120  0.3668  0.2844  0.1394
16349TIP3    H170462   1.913   1.920   1.168  0.3503  0.9569  0.7963
16349TIP3    H270463   1.763   1.930   1.159  0.3568  1.5356  1.2738
16350TIP3   OH270464   3.100   2.364  15.895  0.5833  0.4060  0.1283
16350TIP3    H170465   3.007   2.349  15.879  1.0121 -1.7408 -0.7491
16350TIP3    H270466   3.145   2.299  15.841  2.5933  1.1470  0.7862
16351TIP3   OH270467   6.473   3.423  14.976 -0.3276  0.2390 -0.1307
16351TIP3    H170468   6.423   3.341  14.977  0.7116 -0.4104 -0.0766
16351TIP3    H270469   6.489   3.442  15.068 -2.2803  1.6052 -0.0232
16352TIP3   OH270470   5.622   5.111  11.283  0.3877 -0.2236  0.7322
16352TIP3    H170471   5.578   5.029  11.263  0.9116 -0.3225 -0.0572
16352TIP3    H270472   5.685   5.123  11.212 -1.0125  1.8393 -0.2724
16353TIP3   OH270473   6.079   4.434   1.813 -0.5664 -0.1293  0.1640
16353TIP3    H170474   6.161   4.388   1.791  0.4853  1.3050  0.9202
16353TIP3    H270475   6.076   4.433   1.908 -0.1859  1.8567  0.2405
16354TIP3   OH270476   4.217   3.478  12.095  0.1610 -0.2623  0.4032
16354TIP3    H170477   4.236   3.533  12.019  2.5299  0.0450  1.1480
16354TIP3    H270478   4.219   3.388  12.060  3.0265 -0.2641  0.3052
16355TIP3   OH270479   5.900   5.551   5.781  0.1965  0.4326  0.3750
16355TIP3    H170480   5.861   5.554   5.694  0.5358  0.4901  0.2229
16355TIP3    H270481   5.914   5.458   5.798  0.5684  0.4500  0.1700
16356TIP3   OH270482   1.033   1.843  15.037  0.5436  0.3215  0.0121
16356TIP3    H170483   1.071   1.888  14.961  0.6675  1.0527  0.4945
16356TIP3    H270484   1.095   1.773  15.056  0.4021 -0.0046 -0.6925
16357TIP3   OH270485   5.325   1.600   1.506 -0.1899  0.4687 -0.0499
16357TIP3    H170486   5.388   1.582   1.436  1.5384  0.5556  1.4056
16357TIP3    H270487   5.265   1.664   1.468 -0.5848 -1.0083 -2.1109
16358TIP3   OH270488   1.423   5.419  12.117 -0.0172  0.3214  0.3177
16358TIP3    H170489   1.442   5.418  12.210 -1.4534 -1.0243  0.6284
16358TIP3    H270490   1.351   5.358  12.106  0.6289 -0.1545 -1.7907
16359TIP3   OH270491   6.523   3.383  15.555  0.0426  0.1504 -0.8087
16359TIP3    H170492   6.560   3.460  15.512 -0.4190  0.2027 -1.1205
16359TIP3    H270493   6.589   3.315  15.543  0.3962  0.4627 -0.6462
16360TIP3   OH270494   4.350   6.544  15.663 -0.1122  0.3854  0.0881
16360TIP3    H170495   4.417   6.567  15.728  0.6273  0.5786 -0.7264
16360TIP3    H270496   4.342   6.622  15.609  0.4590 -0.3193 -1.0394
16361TIP3   OH270497   0.683   3.953  15.874  0.2702 -0.3109  0.0972
16361TIP3    H170498   0.681   3.861  15.901  0.4558 -0.5218 -0.6039
16361TIP3    H270499   0.619   3.960  15.804 -1.9888  0.7763  2.1545
16362TIP3   OH270500   5.143   3.898  11.983 -0.4189  0.8774  0.1288
16362TIP3    H170501   5.143   3.903  12.079  0.7129  1.4445  0.1062
16362TIP3    H270502   5.082   3.966  11.956 -0.0664  1.3125  0.4238
16363TIP3   OH270503   6.466   4.742   3.532  0.1420 -0.0581  0.6650
16363TIP3    H170504   6.510   4.760   3.449  0.1511 -0.1947  0.6391
16363TIP3    H270505   6.422   4.657   3.518 -0.6573  0.3746  0.4681
16364TIP3   OH270506   1.428   6.670   5.128 -0.1475 -0.4456 -0.4229
16364TIP3    H170507   1.353   6.660   5.186  0.4284  0.1035  0.4352
16364TIP3    H270508   1.491   6.721   5.178  0.2870  0.2345 -1.6049
16365TIP3   OH270509   6.575   2.709   5.700 -0.3160 -0.8337 -0.5275
16365TIP3    H170510   6.617   2.692   5.784  0.5679 -0.9709 -0.9857
16365TIP3    H270511   6.637   2.766   5.653 -0.7722 -0.7999 -1.1039
16366TIP3   OH270512   3.492   2.818  15.258  0.6361 -0.0612 -0.0791
16366TIP3    H170513   3.483   2.913  15.254 -0.9731 -0.2176 -1.3143
16366TIP3    H270514   3.450   2.793  15.340  0.4442  0.2454 -0.0828
16367TIP3   OH270515   4.863   1.699   4.188 -0.6469 -0.1829 -0.0365
16367TIP3    H170516   4.821   1.769   4.138  1.3502  0.7066 -0.5946
16367TIP3    H270517   4.863   1.731   4.279  0.6792  0.8036 -0.3598
16368TIP3   OH270518   4.215   3.529   2.251  1.1111  0.5279  0.1110
16368TIP3    H170519   4.222   3.480   2.333 -0.1246 -0.5355 -0.3826
16368TIP3    H270520   4.131   3.574   2.257  1.5145  1.3399 -0.1258
16369TIP3   OH270521   5.501   0.163  14.515  0.4073 -0.0658  0.1207
16369TIP3    H170522   5.514   0.234  14.452  2.0891  0.2825  0.8181
16369TIP3    H270523   5.525   0.200  14.599  1.0440 -1.3840  0.5416
16370TIP3   OH270524   3.476   3.617   5.425 -0.3606  0.7884 -0.1127
16370TIP3    H170525   3.565   3.584   5.420 -0.3288  0.7868  0.4030
16370TIP3    H270526   3.425   3.545   5.463 -1.1870 -0.3350 -3.0660
16371TIP3   OH270527   1.510   3.431  12.284 -0.7440 -0.1795 -0.9189
16371TIP3    H170528   1.558   3.379  12.349 -0.9884  1.2512  0.4908
16371TIP3    H270529   1.573   3.445  12.213 -0.3392 -1.4603 -0.8375
16372TIP3   OH270530   5.068   2.452   5.104  0.6214  0.2739 -0.6075
16372TIP3    H170531   5.058   2.394   5.180  1.0127 -0.9063 -1.4347
16372TIP3    H270532   5.084   2.539   5.142  1.3773 -0.3897  0.6611
16373TIP3   OH270533   2.621   3.911   5.508 -0.2937  0.0301 -0.2770
16373TIP3    H170534   2.539   3.863   5.518 -2.2081  2.8161 -1.4804
16373TIP3    H270535   2.618   3.947   5.420  1.4677  1.5423  0.2144
16374TIP3   OH270536   0.532   5.944   2.025 -0.4732  0.0912 -0.2104
16374TIP3    H170537   0.603   5.900   2.071  0.8133  0.5908 -1.6106
16374TIP3    H270538   0.480   5.874   1.987  0.2174 -0.2784 -0.4945
16375TIP3   OH270539   4.866   2.688  13.714 -0.1295  0.1275 -0.7793
16375TIP3    H170540   4.959   2.710  13.709 -0.1464  0.2113 -0.7270
16375TIP3    H270541   4.859   2.602  13.672 -0.0336  0.1368 -0.8149
16376TIP3   OH270542   5.071   6.019   5.447  0.2759 -0.7015 -0.4582
16376TIP3    H170543   5.147   6.076   5.436  1.1154 -1.7019  0.0138
16376TIP3    H270544   5.054   5.985   5.359  1.4013 -1.7309 -0.2998
16377TIP3   OH270545   3.563   2.034  12.543 -0.1040 -0.1575  0.4096
16377TIP3    H170546   3.615   1.954  12.548  1.2328  0.7643  2.7644
16377TIP3    H270547   3.497   2.024  12.611 -2.4128 -0.7858 -1.7569
16378TIP3   OH270548   6.329   6.281   1.553 -0.0421  0.1749  0.1172
16378TIP3    H170549   6.332   6.355   1.493 -0.3195  2.1735  2.4222
16378TIP3    H270550   6.411   6.286   1.601 -0.6223 -0.2254  1.1743
16379TIP3   OH270551   4.105   2.454  17.114  0.0505  0.3631  0.0386
16379TIP3    H170552   4.126   2.531  17.166 -0.9193  0.0249  0.9702
16379TIP3    H270553   4.186   2.433  17.067  0.1667  2.2477 -0.6624
16380TIP3   OH270554   4.947   0.497  15.983  0.3465  0.2484  0.1665
16380TIP3    H170555   4.917   0.523  16.070  1.3999  1.0624  0.3122
16380TIP3    H270556   4.868   0.496  15.929 -0.2996 -0.1303  1.0984
16381TIP3   OH270557   6.104   0.559  13.535  1.0963  0.2320  0.6698
16381TIP3    H170558   6.151   0.516  13.606  1.1546 -0.7947  0.0378
16381TIP3    H270559   6.143   0.646  13.529  0.9513  0.4033  2.0088
16382TIP3   OH270560   1.001   3.632  13.907 -0.2900  0.0657 -0.0842
16382TIP3    H170561   0.906   3.630  13.909 -0.3131  0.9570  1.9964
16382TIP3    H270562   1.027   3.654  13.997  1.9297 -2.1140 -0.0668
16383TIP3   OH270563   4.244   4.456  15.955  0.2081  0.1240 -0.1646
16383TIP3    H170564   4.256   4.485  15.865  0.5400 -1.1534 -0.5490
16383TIP3    H270565   4.327   4.475  15.998 -0.1465  1.2865  0.0580
16384TIP3   OH270566   2.549   4.892  16.332  0.6910  0.2061  0.4972
16384TIP3    H170567   2.628   4.840  16.320 -0.0505 -1.0103  0.7265
16384TIP3    H270568   2.477   4.831  16.315 -0.2065  1.2112  0.5745
16385TIP3   OH270569   1.327   6.697   6.146  0.4673  0.2393  0.1229
16385TIP3    H170570   1.243   6.667   6.179 -0.8913  1.5123 -1.9102
16385TIP3    H270571   1.391   6.637   6.184 -1.3302 -0.7563  1.7557
16386TIP3   OH270572   0.111   5.413  16.020  0.6596  0.2825  0.5401
16386TIP3    H170573   0.167   5.346  16.059  1.7077  0.2296 -1.0081
16386TIP3    H270574   0.171   5.469  15.970 -0.5433  0.7808 -0.3880
16387TIP3   OH270575   2.636   5.389   4.832 -0.2111 -0.1612  0.4082
16387TIP3    H170576   2.694   5.394   4.756 -0.5210  0.0107  0.1772
16387TIP3    H270577   2.611   5.297   4.837  1.2461 -0.5276  1.4050
16388TIP3   OH270578   0.557   1.293   4.223  0.1965 -0.4975  0.5338
16388TIP3    H170579   0.587   1.378   4.256 -0.2995 -0.2358  0.3270
16388TIP3    H270580   0.632   1.258   4.177  0.3251 -0.0415  0.3862
16389TIP3   OH270581   4.116   2.596  13.292 -0.4483  0.0239  0.1500
16389TIP3    H170582   4.175   2.551  13.232  0.2358  0.0099  0.8160
16389TIP3    H270583   4.170   2.617  13.368 -0.9780  1.2059  0.2187
16390TIP3   OH270584   0.740   2.597   1.401  0.0684 -0.2714  0.3204
16390TIP3    H170585   0.667   2.622   1.344  1.4974  1.5895 -0.8403
16390TIP3    H270586   0.743   2.666   1.468  1.7439  0.7159 -0.6737
16391TIP3   OH270587   6.058   4.700   5.723 -0.1241  0.4176 -0.8756
16391TIP3    H170588   5.991   4.667   5.782  0.3433  1.2898  0.1844
16391TIP3    H270589   6.097   4.622   5.684 -0.9735 -0.1390 -0.6377
16392TIP3   OH270590   3.091   3.838   2.208  0.1002  0.0178  0.1618
16392TIP3    H170591   3.134   3.752   2.207  2.4307  1.0636  1.7895
16392TIP3    H270592   3.041   3.839   2.290  3.0125  1.4261  2.0647
16393TIP3   OH270593   4.969   4.495  15.802 -0.5592  0.3069 -0.3025
16393TIP3    H170594   5.036   4.553  15.766  0.2494 -0.3278  0.1459
16393TIP3    H270595   4.975   4.416  15.749 -0.8771  0.2025 -0.1844
16394TIP3   OH270596   0.216   1.376  13.961 -0.0487  0.5172  0.4274
16394TIP3    H170597   0.169   1.391  14.044 -2.0607  2.1317 -0.9106
16394TIP3    H270598   0.159   1.414  13.894  0.4615 -2.5653 -1.9821
16395TIP3   OH270599   1.108   4.860  11.014  0.4688 -0.1915 -0.3605
16395TIP3    H170600   1.078   4.916  10.943 -1.6403 -0.2288  0.4257
16395TIP3    H270601   1.120   4.920  11.088 -0.6706 -0.5801  0.1622
16396TIP3   OH270602   6.362   5.511   2.112 -0.0907  0.2016 -0.0785
16396TIP3    H170603   6.383   5.421   2.137 -0.9264  0.5552  2.1128
16396TIP3    H270604   6.356   5.559   2.195 -0.1459  2.1898 -1.1529
16397TIP3   OH270605   1.823   0.337   5.307  0.0944  0.1518  0.4993
16397TIP3    H170606   1.769   0.403   5.350 -0.9163  0.1408 -0.6931
16397TIP3    H270607   1.912   0.357   5.335  0.2045  3.6488 -1.7426
16398TIP3   OH270608   5.242   3.325   3.392 -0.1320  0.4496 -0.4052
16398TIP3    H170609   5.299   3.374   3.333  0.9431  0.7968  0.8738
16398TIP3    H270610   5.277   3.236   3.390  0.0580  0.5165 -0.1144
16399TIP3   OH270611   4.163   4.818  12.152  0.3178  0.1906  0.2682
16399TIP3    H170612   4.129   4.748  12.097  0.0480  1.9256 -1.9482
16399TIP3    H270613   4.253   4.791  12.172  0.0805 -0.9687 -0.1551
16400TIP3   OH270614   3.499   2.808  12.419  0.4974 -0.0454  0.4021
16400TIP3    H170615   3.522   2.853  12.338 -0.0129 -0.6202 -0.0714
16400TIP3    H270616   3.439   2.739  12.392 -0.9289  0.7166  1.4612
16401TIP3   OH270617   5.509   3.755   2.698 -1.0709 -0.4046 -0.6729
16401TIP3    H170618   5.564   3.691   2.652 -0.6084  0.1427 -0.8956
16401TIP3    H270619   5.571   3.803   2.753 -1.1926  0.7617 -1.5256
16402TIP3   OH270620   0.647   2.266  14.148  0.0476 -1.0405  0.2723
16402TIP3    H170621   0.663   2.185  14.100  2.8196 -0.4017 -0.0604
16402TIP3    H270622   0.613   2.326  14.082  1.2830 -0.9565 -0.3176
16403TIP3   OH270623   5.021   2.410  17.170 -0.1649  0.1158 -0.6607
16403TIP3    H170624   5.043   2.331  17.120 -0.9826 -0.6706  0.1995
16403TIP3    H270625   5.069   2.401  17.252 -0.0184  0.6674 -0.6821
16404TIP3   OH270626   5.170   5.450   6.601  0.3762 -0.4563 -0.1581
16404TIP3    H170627   5.111   5.379   6.576 -1.5629  0.9555  0.1856
16404TIP3    H270628   5.137   5.526   6.552  0.2595  0.9684  2.0230
16405TIP3   OH270629   5.930   1.177  16.729 -0.0266 -0.4397  0.2247
16405TIP3    H170630   5.863   1.201  16.666 -0.6171 -1.3921  0.4650
16405TIP3    H270631   5.882   1.138  16.802  0.7293 -0.3965  0.7631
16406TIP3   OH270632   6.402   3.933   4.786 -0.5948 -0.3923 -0.1934
16406TIP3    H170633   6.463   3.962   4.719 -1.7330  0.7303 -0.7771
16406TIP3    H270634   6.458   3.912   4.861  0.5056  0.6086 -0.7022
16407TIP3   OH270635   2.509   2.981  10.925 -0.0115 -0.5039 -0.6827
16407TIP3    H170636   2.582   2.947  10.873  0.4320 -1.1364  0.3187
16407TIP3    H270637   2.474   2.904  10.970 -1.7141 -0.3204 -1.6111
16408TIP3   OH270638   0.364   4.084  14.012 -0.3776 -0.7959 -0.3104
16408TIP3    H170639   0.387   3.993  13.992  0.5400 -0.9863  1.4265
16408TIP3    H270640   0.447   4.125  14.035 -0.9642  0.1400  0.1867
16409TIP3   OH270641   1.531   4.485  12.061  0.4596 -0.6109 -0.0684
16409TIP3    H170642   1.515   4.398  12.023 -0.5127 -0.2511 -0.5461
16409TIP3    H270643   1.484   4.484  12.144  0.5596 -0.5869 -0.0113
16410TIP3   OH270644   5.761   1.274  11.137 -0.4532  0.2350 -0.8082
16410TIP3    H170645   5.842   1.304  11.176 -0.3894  1.9180 -2.1251
16410TIP3    H270646   5.708   1.242  11.210  1.4331 -1.0753  0.0468
16411TIP3   OH270647   3.973   0.394  15.076  0.9794  0.1519 -0.1427
16411TIP3    H170648   3.975   0.425  15.167  1.3498  0.2285 -0.1756
16411TIP3    H270649   3.955   0.473  15.025  2.2880  0.4020 -0.2587
16412TIP3   OH270650   0.385   3.768   4.038  0.2859 -0.0766 -0.1062
16412TIP3    H170651   0.399   3.694   4.098 -0.7808  0.2851  0.6251
16412TIP3    H270652   0.334   3.831   4.089  0.4972  0.8295 -0.9770
16413TIP3   OH270653   6.521   6.285  13.054  0.8664 -0.0569 -0.1702
16413TIP3    H170654   6.458   6.292  13.126  0.1995  0.2546 -0.7662
16413TIP3    H270655   6.538   6.375  13.028 -1.4503 -0.1653 -2.5294
16414TIP3   OH270656   6.246   4.415   0.004 -0.2593 -0.5925  0.1600
16414TIP3    H170657   6.324   4.360   0.003 -0.5007 -0.9539  0.8639
16414TIP3    H270658   6.281   4.505  -0.000  0.0939 -0.7813 -2.3119
16415TIP3   OH270659   4.967   4.868  15.745  0.0080 -0.1307  0.5280
16415TIP3    H170660   4.967   4.962  15.726  0.1536  0.1452  1.8083
16415TIP3    H270661   4.954   4.862  15.840 -0.6502 -1.4292  0.3913
16416TIP3   OH270662   5.402   6.706  11.744  0.4224 -0.2055  0.2001
16416TIP3    H170663   5.362   6.785  11.708  0.3155 -0.5703 -0.5082
16416TIP3    H270664   5.353   6.688  11.824 -0.1101 -0.0292 -0.0828
16417TIP3   OH270665   3.454   4.827  15.786  0.2496 -0.3943  0.2476
16417TIP3    H170666   3.457   4.758  15.852  1.6850  0.3520  1.0285
16417TIP3    H270667   3.541   4.868  15.791 -0.8059  1.9669  0.3639
16418TIP3   OH270668   2.529   0.062  15.225  0.2548  0.1287 -0.2020
16418TIP3    H170669   2.590   0.136  15.228  1.6206 -0.9170 -1.0021
16418TIP3    H270670   2.525   0.038  15.132 -1.0052 -0.1425 -0.0948
16419TIP3   OH270671   4.155   1.759   0.254  0.5371 -0.3549  0.2305
16419TIP3    H170672   4.238   1.800   0.228  0.6446 -0.3811  0.5313
16419TIP3    H270673   4.180   1.694   0.319  0.3529 -0.8191 -0.1629
16420TIP3   OH270674   0.836   0.275  11.722 -0.5486  0.2986 -0.0555
16420TIP3    H170675   0.923   0.278  11.682  0.2502  0.6264  1.6178
16420TIP3    H270676   0.778   0.309  11.655  0.7395  0.8898 -0.9170
16421TIP3   OH270677   1.930   1.142   6.298  0.0741  0.1358  0.3907
16421TIP3    H170678   1.965   1.206   6.360 -0.0712 -0.3092  0.9383
16421TIP3    H270679   1.988   1.066   6.307  0.6246  0.4123 -0.7124
16422TIP3   OH270680   5.213   3.902   4.523 -0.0250 -0.8563  0.1235
16422TIP3    H170681   5.209   3.823   4.577 -0.0462 -1.5216 -0.8371
16422TIP3    H270682   5.283   3.955   4.563  0.5420 -1.7221  0.3023
16423TIP3   OH270683   0.863   5.538  15.908  0.0717 -0.4689  0.0932
16423TIP3    H170684   0.863   5.466  15.845 -1.8858 -0.2474 -0.2051
16423TIP3    H270685   0.903   5.502  15.987 -2.2985 -2.4278  0.5024
16424TIP3   OH270686   4.584   0.629   3.429 -0.3549  0.1621  0.1342
16424TIP3    H170687   4.590   0.723   3.413 -1.1437 -0.3217 -4.6764
16424TIP3    H270688   4.674   0.601   3.441  0.0573  1.3748 -0.0231
16425TIP3   OH270689   0.198   0.542   6.365 -0.2577 -0.1182 -0.3613
16425TIP3    H170690   0.223   0.619   6.314 -0.8143  1.1273  1.1622
16425TIP3    H270691   0.280   0.509   6.402  0.1525 -1.0381 -1.9967
16426TIP3   OH270692   1.728   5.707  13.878  0.5078  0.6415  0.0782
16426TIP3    H170693   1.717   5.708  13.783 -1.7419 -1.0872  0.2059
16426TIP3    H270694   1.809   5.659  13.892  0.3836  0.0775 -0.9896
16427TIP3   OH270695   0.398   0.609   1.601  0.5392 -0.4527  0.1224
16427TIP3    H170696   0.361   0.662   1.671  2.4687  0.9324  0.1637
16427TIP3    H270697   0.337   0.619   1.528  0.9155  1.9837  0.0863
16428TIP3   OH270698   2.766   0.789   3.445 -0.1926 -0.0579  0.3642
16428TIP3    H170699   2.700   0.806   3.378  1.8903 -0.0273 -1.7821
16428TIP3    H270700   2.813   0.872   3.455  0.3196 -0.4060  0.9743
16429TIP3   OH270701   0.836   5.749   5.425  0.2581 -0.0588 -0.0282
16429TIP3    H170702   0.890   5.682   5.383 -0.8423 -0.5550 -0.6836
16429TIP3    H270703   0.870   5.754   5.514  3.2908  1.6999 -1.1114
16430TIP3   OH270704   2.389   1.008  16.494  0.2999  0.0444 -0.7849
16430TIP3    H170705   2.340   0.996  16.575  0.4384 -1.9683 -0.9415
16430TIP3    H270706   2.375   1.100  16.470 -2.4106 -0.1275 -0.1888
16431TIP3   OH270707   4.630   3.164   4.065 -1.0681  0.5272  0.7912
16431TIP3    H170708   4.642   3.251   4.102  3.6311  0.7619 -0.5933
16431TIP3    H270709   4.685   3.107   4.118 -0.2067 -0.5817 -1.1618
16432TIP3   OH270710   5.411   5.789   0.440  0.1244 -0.3052  0.4967
16432TIP3    H170711   5.491   5.762   0.485  0.4074 -0.3443 -0.0300
16432TIP3    H270712   5.381   5.710   0.395 -0.3611 -0.3620  0.9140
16433TIP3   OH270713   4.232   6.418   3.710  0.2707  0.1765  0.2069
16433TIP3    H170714   4.242   6.348   3.775  1.2396 -0.3618 -0.4939
16433TIP3    H270715   4.143   6.449   3.723 -0.3820 -1.5591  0.2018
16434TIP3   OH270716   2.704   3.617   4.908 -0.6976  0.1865  0.3777
16434TIP3    H170717   2.640   3.668   4.958 -2.1447 -1.5588  0.4299
16434TIP3    H270718   2.694   3.649   4.818 -0.8298  0.7060  0.5714
16435TIP3   OH270719   6.715   1.530   1.483 -0.0221 -1.2056 -0.3029
16435TIP3    H170720   6.755   1.605   1.439 -0.5355  0.9598  2.6182
16435TIP3    H270721   6.716   1.460   1.418 -1.3550  1.8595 -3.9492
16436TIP3   OH270722   4.647   0.036  14.394 -0.0978  0.7318  0.1805
16436TIP3    H170723   4.588   0.094  14.441 -0.2999 -0.7380  1.8587
16436TIP3    H270724   4.730   0.083  14.392 -1.2151  2.8586 -2.2788
16437TIP3   OH270725   1.755   5.550   5.085  0.3628 -0.1735 -0.4430
16437TIP3    H170726   1.701   5.472   5.079 -0.7629  0.5191  0.3476
16437TIP3    H270727   1.696   5.618   5.119  1.9513  0.3782  1.4070
16438TIP3   OH270728   6.299   0.276   1.050 -0.4738  0.4091  0.3436
16438TIP3    H170729   6.319   0.228   0.970 -0.1316  1.6156 -0.3194
16438TIP3    H270730   6.345   0.228   1.120  2.4583  1.4569 -0.7136
16439TIP3   OH270731   0.986   0.679  13.175  0.8038  0.3485  0.2542
16439TIP3    H170732   0.951   0.631  13.250  2.3848 -2.4702 -0.6850
16439TIP3    H270733   0.932   0.650  13.101  1.5226  0.3452 -0.2757
16440TIP3   OH270734   3.739   5.864  13.103  0.1852 -0.2411  0.3333
16440TIP3    H170735   3.811   5.825  13.054  0.9992  1.8720 -0.2540
16440TIP3    H270736   3.676   5.891  13.036  0.7322  1.5326  0.4807
16441TIP3   OH270737   1.376   1.594  12.036  0.2521 -0.2190  0.1181
16441TIP3    H170738   1.335   1.644  11.965 -1.3500 -0.3777  0.8883
16441TIP3    H270739   1.389   1.658  12.106  2.9586  0.2138 -0.6910
16442TIP3   OH270740   0.919   0.408   4.076  0.0521 -0.2513 -0.5207
16442TIP3    H170741   0.868   0.327   4.086  2.4058 -1.7165  0.9472
16442TIP3    H270742   0.883   0.451   3.999 -1.6062 -2.4764 -1.0861
16443TIP3   OH270743   2.193   4.839  16.925  0.1404 -0.1911  0.5249
16443TIP3    H170744   2.189   4.917  16.981  1.1955  1.4369 -1.5486
16443TIP3    H270745   2.147   4.864  16.845 -0.1629 -1.9892  0.0911
16444TIP3   OH270746   6.698   6.337   5.123 -0.0373  0.0404  0.0733
16444TIP3    H170747   6.613   6.346   5.166  0.7468 -0.1859  1.7416
16444TIP3    H270748   6.739   6.262   5.166  1.2332  0.4857 -0.3270
16445TIP3   OH270749   5.468   3.558  16.791  0.2619  0.8294 -0.1236
16445TIP3    H170750   5.402   3.587  16.727 -1.4656 -0.1802  1.1329
16445TIP3    H270751   5.451   3.465  16.802  1.8971  0.5585  0.2871
16446TIP3   OH270752   1.198   2.134   1.094  0.0854  0.2691 -0.6151
16446TIP3    H170753   1.174   2.082   1.018  1.2372  0.4272 -1.1106
16446TIP3    H270754   1.268   2.084   1.136  0.0658  0.6157 -0.1595
16447TIP3   OH270755   3.014   1.449  16.470 -0.3160  0.0018  0.3494
16447TIP3    H170756   3.059   1.450  16.385 -0.4885  0.9111  0.2657
16447TIP3    H270757   3.068   1.390  16.524 -0.1064 -0.4428 -0.3280
16448TIP3   OH270758   1.339   0.285   5.701 -0.4864  0.1964  0.4165
16448TIP3    H170759   1.302   0.245   5.779 -0.6985  0.8881  0.6770
16448TIP3    H270760   1.263   0.311   5.648 -0.3563 -1.6695 -0.7705
16449TIP3   OH270761   1.702   3.483   1.498  0.5287  0.0745 -0.0014
16449TIP3    H170762   1.685   3.394   1.467 -0.6208 -0.7493  2.6731
16449TIP3    H270763   1.665   3.540   1.430 -0.2294 -1.5355 -0.9917
16450TIP3   OH270764   5.836   5.742   2.739  0.7628  0.2252 -0.5088
16450TIP3    H170765   5.919   5.768   2.778  1.3479 -0.6693 -1.1197
16450TIP3    H270766   5.861   5.697   2.658 -0.2401 -1.2807 -0.0146
16451TIP3   OH270767   5.411   2.890  10.456 -0.3600  0.0546 -0.1240
16451TIP3    H170768   5.490   2.901  10.402 -1.1001  1.7056 -0.9159
16451TIP3    H270769   5.426   2.944  10.533 -0.3565 -0.3411  0.1587
16452TIP3   OH270770   5.940   1.395   4.298 -0.0339  0.1802 -0.5487
16452TIP3    H170771   5.949   1.398   4.393 -0.8440 -0.0567 -0.4607
16452TIP3    H270772   6.024   1.362   4.267  0.0469 -0.2531  0.1206
16453TIP3   OH270773   5.646   4.731   4.283  0.3515 -0.3202 -0.2085
16453TIP3    H170774   5.678   4.643   4.304 -0.7781 -0.5993  0.4125
16453TIP3    H270775   5.716   4.789   4.310  0.8218 -0.9846  0.0232
16454TIP3   OH270776   5.483   0.530  16.386  0.6574  0.0760 -0.3798
16454TIP3    H170777   5.523   0.443  16.394  2.4688  0.9092  0.1343
16454TIP3    H270778   5.489   0.550  16.293 -2.2467 -1.3976 -1.0000
16455TIP3   OH270779   3.120   3.633  15.364 -0.9892  0.2453  0.2317
16455TIP3    H170780   3.102   3.592  15.279 -1.9654  0.3796  0.3600
16455TIP3    H270781   3.214   3.650  15.363 -1.1717  1.4017 -1.3446
16456TIP3   OH270782   2.904   1.231  16.697  0.4058  0.2650  0.0923
16456TIP3    H170783   2.868   1.216  16.785 -1.0845 -0.7235 -0.6324
16456TIP3    H270784   2.995   1.202  16.703  0.6065  1.0995  1.5393
16457TIP3   OH270785   6.307   4.070  16.444 -0.4149  0.2101  0.4329
16457TIP3    H170786   6.303   4.084  16.539 -1.2920 -0.3036  0.4868
16457TIP3    H270787   6.314   4.157  16.407  1.1726  0.3508  1.0116
16458TIP3   OH270788   2.636   6.505   5.839 -0.8891  0.1926  0.2914
16458TIP3    H170789   2.597   6.485   5.924 -0.3181  0.6405  0.6653
16458TIP3    H270790   2.689   6.428   5.818  0.3130  0.7521  1.1426
16459TIP3   OH270791   4.255   6.499  14.045 -0.0016  0.0326  0.0728
16459TIP3    H170792   4.181   6.478  14.102  0.3696  1.5143  1.1707
16459TIP3    H270793   4.231   6.463  13.960 -1.9385  0.3654  0.4352
16460TIP3   OH270794   2.356   3.946  14.465  0.3909 -0.5468 -0.7147
16460TIP3    H170795   2.382   3.988  14.547 -0.4582 -0.4198 -0.5020
16460TIP3    H270796   2.438   3.939  14.415  0.6282  1.0428 -0.6147
16461TIP3   OH270797   1.930   5.325   5.674  0.2824  0.6676 -0.0187
16461TIP3    H170798   1.999   5.357   5.733 -0.1405  1.6279 -0.0249
16461TIP3    H270799   1.854   5.313   5.730  0.7487 -1.5557  0.2154
16462TIP3   OH270800   2.024   2.253  14.992 -0.5818 -0.0847 -0.4473
16462TIP3    H170801   2.094   2.234  14.930  1.1196  1.2061  0.9806
16462TIP3    H270802   2.022   2.177  15.051 -0.8653 -0.4339 -0.9057
16463TIP3   OH270803   4.324   4.432  13.544  0.4670 -0.3045 -0.1720
16463TIP3    H170804   4.281   4.505  13.499 -0.7229 -0.5748  0.4692
16463TIP3    H270805   4.358   4.471  13.625 -0.9754 -0.6000  0.6169
16464TIP3   OH270806   1.353   0.018   0.403  0.3001  0.6603 -0.4863
16464TIP3    H170807   1.353  -0.004   0.310 -0.7626  1.7790 -0.7778
16464TIP3    H270808   1.442  -0.001   0.432  0.9063  1.1145 -1.9349
16465TIP3   OH270809   1.154   1.771   3.188  0.2461  0.5235 -0.2441
16465TIP3    H170810   1.249   1.756   3.196  0.2295 -1.4154 -2.5350
16465TIP3    H270811   1.139   1.773   3.094 -2.0379  0.6160  0.0837
16466TIP3   OH270812   4.883   1.466   4.771  0.1147 -0.0059  0.0623
16466TIP3    H170813   4.862   1.441   4.681  0.3980  1.8484 -0.5637
16466TIP3    H270814   4.799   1.471   4.815 -0.2796  1.5477 -0.8112
16467TIP3   OH270815   1.351   2.516  16.639 -0.2902  0.4495  0.7683
16467TIP3    H170816   1.303   2.539  16.560 -0.1640  1.2650  0.9177
16467TIP3    H270817   1.417   2.585  16.648  2.4537 -1.7798 -0.6639
16468TIP3   OH270818   2.121   3.800  16.458  0.7745  0.0720  0.0779
16468TIP3    H170819   2.093   3.758  16.377  1.0739 -1.4327  0.7158
16468TIP3    H270820   2.093   3.891  16.449 -0.0361 -0.2824 -1.2994
16469TIP3   OH270821   1.356   2.437  15.781  0.7040 -0.2421  0.2087
16469TIP3    H170822   1.371   2.353  15.738  0.5297 -0.6139  0.8589
16469TIP3    H270823   1.308   2.415  15.861  0.7983  0.4578  0.4673
16470TIP3   OH270824   3.296   2.597   4.225  0.6306  0.0193  0.0497
16470TIP3    H170825   3.388   2.587   4.201  1.0957  3.3511 -0.0007
16470TIP3    H270826   3.262   2.659   4.160 -1.2967 -0.0996  0.8994
16471TIP3   OH270827   6.090   5.309   6.274 -0.2743  0.7544 -0.0255
16471TIP3    H170828   6.184   5.294   6.286 -0.0125  1.7982 -0.5992
16471TIP3    H270829   6.069   5.265   6.191 -1.2924 -3.2883  2.1539
16472TIP3   OH270830   0.293   3.118  16.899 -0.0769 -0.5375 -0.3744
16472TIP3    H170831   0.261   3.029  16.879  1.0590 -0.6871 -1.6637
16472TIP3    H270832   0.388   3.112  16.891 -0.0108  0.9193 -1.0077
16473TIP3   OH270833   5.636   6.159   1.641 -0.1083 -0.4913  0.2046
16473TIP3    H170834   5.613   6.180   1.732 -0.7557 -0.6327  0.0830
16473TIP3    H270835   5.551   6.153   1.596  0.2160 -0.2411 -0.4503
16474TIP3   OH270836   1.520   0.830   1.426  0.3230 -0.5050  0.4792
16474TIP3    H170837   1.543   0.739   1.445  1.7851 -0.7255 -1.8686
16474TIP3    H270838   1.426   0.828   1.408  0.7308 -2.1710 -2.0881
16475TIP3   OH270839   1.136   5.631   1.167  0.0219 -0.2808 -0.3783
16475TIP3    H170840   1.228   5.620   1.141  0.2923 -1.0167  0.7914
16475TIP3    H270841   1.140   5.689   1.243 -0.6762  1.2449 -1.4635
16476TIP3   OH270842   3.819   0.994   3.943  0.6493  0.1605  0.5057
16476TIP3    H170843   3.853   1.000   4.032  1.0812 -1.3895  0.4767
16476TIP3    H270844   3.891   1.024   3.887  1.3951 -1.4454  0.5490
16477TIP3   OH270845   6.667   4.574   4.550 -0.7218  0.7204 -0.4242
16477TIP3    H170846   6.653   4.655   4.501  0.6347  1.1420 -0.1752
16477TIP3    H270847   6.762   4.571   4.563 -0.9870  0.3131  1.6832
16478TIP3   OH270848   2.758   0.487   5.414 -0.3575  0.7963 -0.6693
16478TIP3    H170849   2.671   0.528   5.417 -1.1881 -0.9354  0.5768
16478TIP3    H270850   2.813   0.544   5.469 -1.2651  0.7349  0.3447
16479TIP3   OH270851   1.643   3.759  15.161 -0.1405  0.1630  0.0143
16479TIP3    H170852   1.555   3.776  15.126 -0.0721  0.5410  0.0211
16479TIP3    H270853   1.673   3.682  15.113 -1.3804 -1.4313  1.6348
16480TIP3   OH270854   4.553   1.877   2.061 -0.5368 -0.0684 -0.2359
16480TIP3    H170855   4.489   1.945   2.041  0.9192  1.1384 -0.8961
16480TIP3    H270856   4.621   1.922   2.111  0.8699 -0.8299 -1.4010
16481TIP3   OH270857   5.947   3.776  11.669 -0.1479  0.8229 -0.1749
16481TIP3    H170858   5.935   3.691  11.713 -0.0981  0.7524 -0.2976
16481TIP3    H270859   6.009   3.823  11.725  0.5532  0.4162 -0.6060
16482TIP3   OH270860   3.009   5.846  14.929  0.5057  0.1577 -0.6629
16482TIP3    H170861   3.062   5.846  14.850  2.7272  1.1482  0.7188
16482TIP3    H270862   3.042   5.774  14.981 -0.3084  0.0781 -0.2304
16483TIP3   OH270863   2.543   1.596  13.901  0.0695 -0.3103  0.1574
16483TIP3    H170864   2.537   1.690  13.915  2.2107 -0.2914  1.4010
16483TIP3    H270865   2.600   1.586  13.825 -2.1952 -0.6367 -1.6109
16484TIP3   OH270866   1.413   6.009   5.202 -0.1515 -0.2115 -0.1732
16484TIP3    H170867   1.443   6.094   5.232  0.9786 -1.0945  1.3525
16484TIP3    H270868   1.328   5.997   5.243  1.2916 -1.3196  2.7506
16485TIP3   OH270869   0.845   5.459   0.538 -0.0717  0.2088  0.3672
16485TIP3    H170870   0.774   5.395   0.539  0.2550 -0.1593  0.9083
16485TIP3    H270871   0.911   5.420   0.480  0.5033 -0.3862  1.3847
16486TIP3   OH270872   2.217   5.238  14.971 -0.7186 -0.4651 -0.3890
16486TIP3    H170873   2.187   5.147  14.972  2.6642 -1.7485 -0.8203
16486TIP3    H270874   2.245   5.255  15.061  1.0124 -0.8008 -0.8363
16487TIP3   OH270875   6.740   6.104   6.118  0.0420  0.2069 -0.1123
16487TIP3    H170876   6.756   6.018   6.159  0.9913 -0.9121 -2.6451
16487TIP3    H270877   6.650   6.099   6.086  0.2717 -0.0632 -0.7248
16488TIP3   OH270878   4.278   5.700  11.495 -0.3905  0.4341 -0.0432
16488TIP3    H170879   4.251   5.638  11.562 -0.4422  1.6545  1.1143
16488TIP3    H270880   4.196   5.734  11.459 -0.3907  1.1293  0.5898
16489TIP3   OH270881   4.177   2.141  15.724  0.4353  0.1783  0.2510
16489TIP3    H170882   4.250   2.131  15.663 -0.9238 -2.6393 -1.1246
16489TIP3    H270883   4.214   2.123  15.810  1.7643  0.9907 -0.1260
16490TIP3   OH270884   6.563   1.474  11.179 -0.4695  0.3672 -0.3896
16490TIP3    H170885   6.476   1.438  11.195 -0.8038  2.2612  2.8767
16490TIP3    H270886   6.555   1.520  11.095 -2.3946 -0.0232 -0.4648
16491TIP3   OH270887   2.830   2.045   3.778 -0.3870  0.0498  0.8363
16491TIP3    H170888   2.777   2.084   3.708 -1.0888  1.4801  2.1150
16491TIP3    H270889   2.804   1.953   3.779 -1.3969  0.3064  0.1156
16492TIP3   OH270890   4.136   5.900   3.251  0.1333  0.2711  0.3207
16492TIP3    H170891   4.050   5.941   3.244 -0.2747 -0.8364 -1.9638
16492TIP3    H270892   4.194   5.971   3.278 -1.3589  1.1836  1.2827
16493TIP3   OH270893   2.255   3.500   0.654  0.1908 -0.2105 -0.3982
16493TIP3    H170894   2.281   3.571   0.713  0.2412 -0.9987  0.5483
16493TIP3    H270895   2.192   3.541   0.594  1.6013  1.0857 -1.0619
16494TIP3   OH270896   4.264   4.955  15.277 -0.2550 -0.0778 -0.1807
16494TIP3    H170897   4.345   4.986  15.317 -0.7288  0.3679  0.4525
16494TIP3    H270898   4.198   4.965  15.345 -0.8040 -0.6671 -0.6060
16495TIP3   OH270899   0.501   3.831  11.950  0.2850 -0.4499 -0.0082
16495TIP3    H170900   0.443   3.823  11.875 -0.1359 -0.5093  0.3252
16495TIP3    H270901   0.510   3.926  11.963 -2.1913 -0.3665  1.8161
16496TIP3   OH270902   1.119   2.051   1.403 -0.3202 -0.8433 -0.4452
16496TIP3    H170903   1.200   2.017   1.366  1.1578  1.6986  0.2126
16496TIP3    H270904   1.109   2.004   1.486  0.7096 -0.8816 -0.3337
16497TIP3   OH270905   5.751   6.188  13.588  0.2152  0.1148  0.3341
16497TIP3    H170906   5.809   6.260  13.611 -1.2068  1.6558 -0.5970
16497TIP3    H270907   5.669   6.208  13.634  0.0111 -1.3053  0.6207
16498TIP3   OH270908   5.585   4.453   2.748 -0.1717 -0.0307  0.5315
16498TIP3    H170909   5.521   4.419   2.685  1.0187 -0.6621 -0.3822
16498TIP3    H270910   5.670   4.432   2.709  0.6214 -0.8052  2.5443
16499TIP3   OH270911   3.236   0.495   0.434  0.1159 -0.4016 -0.2448
16499TIP3    H170912   3.257   0.459   0.520  0.1400  0.6505  0.2115
16499TIP3    H270913   3.321   0.514   0.394  0.1940  2.4238  0.9821
16500TIP3   OH270914   2.608   2.453   3.734 -0.3834  0.2555 -0.0084
16500TIP3    H170915   2.692   2.493   3.714  1.0375 -2.8721 -1.0181
16500TIP3    H270916   2.571   2.508   3.804  1.9747  2.3371 -0.2456
16501TIP3   OH270917   2.011   0.339  15.267 -0.0786  0.1539 -0.0795
16501TIP3    H170918   1.921   0.316  15.292  0.1813 -0.2585  0.5100
16501TIP3    H270919   2.039   0.267  15.210  0.0040  0.0880  0.0425
16502TIP3   OH270920   5.670   4.709   2.547 -0.3905 -0.2755  0.4497
16502TIP3    H170921   5.684   4.776   2.614  1.0859 -0.5950  0.5033
16502TIP3    H270922   5.590   4.736   2.502 -0.2760  1.0696  1.0056
16503TIP3   OH270923   1.053   2.701  12.001 -0.5831 -0.0296  0.8280
16503TIP3    H170924   0.990   2.648  12.049 -1.2252  2.4162  2.9492
16503TIP3    H270925   1.008   2.786  11.990  0.8705  0.5461 -1.1557
16504TIP3   OH270926   6.380   4.472   3.510 -0.1587 -0.4517  0.7260
16504TIP3    H170927   6.440   4.397   3.510 -0.4990 -0.7247  1.0187
16504TIP3    H270928   6.293   4.434   3.516 -0.3792 -0.0604  0.1888
16505TIP3   OH270929   5.526   3.300  16.920  0.1375  0.0954  0.2022
16505TIP3    H170930   5.528   3.381  16.971 -0.5988 -0.6519  1.4753
16505TIP3    H270931   5.605   3.254  16.946  1.3235  0.9985 -1.6118
16506TIP3   OH270932   2.564   3.206  16.451 -0.4623 -0.5122 -0.6251
16506TIP3    H170933   2.622   3.133  16.432 -1.4174 -1.2477 -0.7601
16506TIP3    H270934   2.485   3.188  16.401  0.2178  1.9683 -2.8948
16507TIP3   OH270935   0.844   1.815   3.384  0.5923  0.3549  0.0474
16507TIP3    H170936   0.791   1.813   3.463 -0.5030  0.3409 -0.6700
16507TIP3    H270937   0.893   1.733   3.386  1.5780  0.9317  1.3495
16508TIP3   OH270938   5.098   4.573  16.320 -0.4921  0.0483  0.6863
16508TIP3    H170939   5.041   4.496  16.321  2.2172 -2.0883  0.9961
16508TIP3    H270940   5.130   4.578  16.230 -1.8977  1.9315  0.2087
16509TIP3   OH270941   5.549   3.368  11.129  0.2622  0.3460  0.2069
16509TIP3    H170942   5.458   3.343  11.146  0.2816  0.5747  0.6601
16509TIP3    H270943   5.542   3.448  11.076  0.1719  1.7318  2.2192
16510TIP3   OH270944   6.188   3.757  15.876  0.0252  0.0882  0.5763
16510TIP3    H170945   6.135   3.834  15.855 -1.2957 -1.2133 -1.1723
16510TIP3    H270946   6.148   3.722  15.956  0.7421  1.2662  1.4765
16511TIP3   OH270947   1.706   3.737   3.569  0.0016 -0.0463  0.1044
16511TIP3    H170948   1.745   3.702   3.488  0.2164 -0.6655  0.4677
16511TIP3    H270949   1.741   3.681   3.638 -0.5857  0.1573  0.5702
16512TIP3   OH270950   5.011   3.926  15.191  0.8070  0.3070  0.2423
16512TIP3    H170951   5.024   3.863  15.261  0.3302  0.7380  0.7350
16512TIP3    H270952   4.976   3.875  15.118  1.9739 -0.2622  0.0718
16513TIP3   OH270953   2.254   1.514   4.367 -0.6701  0.1879  0.0223
16513TIP3    H170954   2.223   1.587   4.313  0.5296 -0.2249 -1.2820
16513TIP3    H270955   2.343   1.538   4.390 -0.5212 -0.5303  0.2105
16514TIP3   OH270956   0.699   0.367  12.503  0.6145 -0.0158 -0.0074
16514TIP3    H170957   0.758   0.411  12.565 -0.7111  2.0699 -0.1317
16514TIP3    H270958   0.629   0.331  12.557  0.7107 -0.3204 -0.0832
16515TIP3   OH270959   2.879   4.096  11.378  0.1889  0.4767 -0.4055
16515TIP3    H170960   2.836   4.177  11.351  0.6617  0.5226 -1.0490
16515TIP3    H270961   2.828   4.066  11.454 -0.2128  1.1758 -0.3869
16516TIP3   OH270962   3.029   6.761   2.401  0.4895  0.1758  0.1515
16516TIP3    H170963   3.115   6.776   2.438  0.2983 -1.3600  1.3485
16516TIP3    H270964   2.972   6.825   2.444  1.1157  1.7260 -1.2194
16517TIP3   OH270965   6.446   1.860   1.377  0.2901 -0.1157 -0.1800
16517TIP3    H170966   6.435   1.939   1.325 -0.4422 -0.2839 -0.2927
16517TIP3    H270967   6.361   1.847   1.419  0.7675 -0.1659  0.7979
16518TIP3   OH270968   3.344   2.558  16.723  0.2460  0.3212 -0.6520
16518TIP3    H170969   3.290   2.552  16.802  1.9950 -0.7717  0.5139
16518TIP3    H270970   3.391   2.641  16.733  0.6260  0.0820 -0.4186
16519TIP3   OH270971   4.375   5.769  11.089  0.0468  0.2089  0.1709
16519TIP3    H170972   4.426   5.778  11.170  0.1217 -1.6603  0.3811
16519TIP3    H270973   4.353   5.676  11.086 -1.9456  0.6633 -0.7693
16520TIP3   OH270974   2.829   0.910   1.812  0.5522  0.6314  0.2323
16520TIP3    H170975   2.817   0.823   1.774  0.4660  0.3523  0.8889
16520TIP3    H270976   2.887   0.955   1.751  1.7062 -0.3491  0.5736
16521TIP3   OH270977   1.129   0.135   1.760 -0.2050 -0.7619 -0.2674
16521TIP3    H170978   1.125   0.226   1.732  0.4667 -0.1712  1.4377
16521TIP3    H270979   1.045   0.120   1.803  0.0969 -0.6240  0.3724
16522TIP3   OH270980   1.258   0.345  16.408 -0.2321 -0.1548 -0.7679
16522TIP3    H170981   1.331   0.282  16.404  0.0479  0.1836 -0.9724
16522TIP3    H270982   1.283   0.405  16.478 -0.6340 -0.4333 -0.3793
16523TIP3   OH270983   1.916   5.207  12.468  0.2646 -0.0900 -0.3630
16523TIP3    H170984   1.980   5.276  12.450  0.6032 -0.2108  0.3342
16523TIP3    H270985   1.838   5.254  12.498  1.1986 -0.0342  2.2733
16524TIP3   OH270986   4.449   2.721  12.003  0.4125  0.4914  0.2408
16524TIP3    H170987   4.415   2.727  11.914  1.0380 -1.0794 -0.1295
16524TIP3    H270988   4.385   2.768  12.056  0.1180  1.6027 -1.0383
16525TIP3   OH270989   2.645   3.614  11.576 -0.3471 -0.6047 -0.0312
16525TIP3    H170990   2.596   3.590  11.498  0.5201 -0.5913 -0.5919
16525TIP3    H270991   2.580   3.652  11.635 -0.8594  0.1841 -1.0814
16526TIP3   OH270992   0.671   3.239  17.091 -0.4158  0.0909  0.0956
16526TIP3    H170993   0.595   3.189  17.121 -0.6967  0.4561  0.0091
16526TIP3    H270994   0.648   3.330  17.110 -0.5413  0.3237 -1.0913
16527TIP3   OH270995   3.688   0.889  14.303 -0.5940 -0.3067  0.2374
16527TIP3    H170996   3.619   0.831  14.271 -0.1001 -2.0689  2.1472
16527TIP3    H270997   3.741   0.908  14.226 -2.3438 -0.0772 -0.9858
16528TIP3   OH270998   1.200   0.325   3.257  0.3937 -0.1815  0.0005
16528TIP3    H170999   1.184   0.251   3.316  2.1709 -0.7982 -0.2157
16528TIP3    H271000   1.119   0.376   3.259  0.1605 -0.5042  2.5027
16529TIP3   OH271001   3.404   5.676   5.221  0.6002  0.1656  0.1540
16529TIP3    H171002   3.432   5.688   5.131 -1.2085  0.0108 -0.4613
16529TIP3    H271003   3.485   5.676   5.272  1.5740  1.2738 -1.3366
16530TIP3   OH271004   6.273   2.459   2.451 -0.2037  0.0073 -0.2707
16530TIP3    H171005   6.275   2.544   2.406 -1.8104  0.2695  0.0896
16530TIP3    H271006   6.314   2.476   2.536  1.0615 -0.0230 -0.8514
16531TIP3   OH271007   0.238   5.467  14.507  0.0172  0.3729 -0.4978
16531TIP3    H171008   0.179   5.543  14.501  0.1938  0.4641 -1.3091
16531TIP3    H271009   0.180   5.392  14.512 -0.1687  0.6058  1.3897
16532TIP3   OH271010   1.972   3.712   4.778 -0.3664 -0.7719  0.2164
16532TIP3    H171011   2.060   3.680   4.756  0.4779  1.1183  0.6932
16532TIP3    H271012   1.953   3.673   4.863 -0.5618 -2.2113 -0.4533
16533TIP3   OH271013   0.358   3.421  14.798 -0.0298  0.5768  0.2305
16533TIP3    H171014   0.350   3.483  14.726 -0.7863  0.9359  0.6120
16533TIP3    H271015   0.366   3.335  14.755 -1.1182  0.7183 -0.2760
16534TIP3   OH271016   5.333   3.568   3.599 -0.1669  0.2390  0.2885
16534TIP3    H171017   5.295   3.520   3.525 -0.4977  0.3823  0.3609
16534TIP3    H271018   5.404   3.620   3.560  1.2792 -1.5186  0.4769
16535TIP3   OH271019   2.510   2.348  15.136  0.5067 -0.7823  0.1015
16535TIP3    H171020   2.514   2.423  15.196 -0.2590  1.1703 -2.1456
16535TIP3    H271021   2.601   2.336  15.107  0.7790 -1.3467  1.1394
16536TIP3   OH271022   4.456   3.290   4.264  0.8730 -0.7573 -0.0205
16536TIP3    H171023   4.441   3.364   4.324 -0.6042 -1.4159  0.4837
16536TIP3    H271024   4.404   3.312   4.186 -1.9329 -2.4645  1.2175
16537TIP3   OH271025   2.695   2.402   2.644 -0.1496  0.3064 -0.0556
16537TIP3    H171026   2.632   2.350   2.695 -0.2685 -0.6905 -1.1818
16537TIP3    H271027   2.659   2.404   2.556  0.9738  0.4305 -0.5295
16538TIP3   OH271028   4.132   1.373  15.922  0.5425  0.2078 -0.3776
16538TIP3    H171029   4.199   1.353  15.987  1.2138 -0.5521 -1.2741
16538TIP3    H271030   4.063   1.418  15.971  0.4855 -1.3823  1.0787
16539TIP3   OH271031   5.337   0.884   3.667  0.7632 -0.7893  0.0588
16539TIP3    H171032   5.424   0.921   3.649  0.3510  0.2854  0.1859
16539TIP3    H271033   5.288   0.956   3.705 -0.3572 -1.2257 -0.5091
16540TIP3   OH271034   1.634   2.994  16.623  0.1389  0.1686  0.1608
16540TIP3    H171035   1.561   2.933  16.613 -0.2489  0.8401 -1.5299
16540TIP3    H271036   1.593   3.077  16.649  0.3843  0.3377  0.0095
16541TIP3   OH271037   1.124   1.784   0.475  0.1659 -0.0395 -0.4713
16541TIP3    H171038   1.137   1.693   0.449 -0.5257 -0.3581  0.2722
16541TIP3    H271039   1.210   1.824   0.466  0.8515 -1.1809  0.8089
16542TIP3   OH271040   6.526   4.431   5.511  0.4673 -0.5412  0.3792
16542TIP3    H171041   6.539   4.368   5.440  0.4021 -0.1771  0.0434
16542TIP3    H271042   6.611   4.436   5.555  1.1776  0.9579 -1.0931
16543TIP3   OH271043   1.187   2.118  16.260 -0.5559 -0.0130  0.1756
16543TIP3    H171044   1.264   2.110  16.316 -1.0350 -1.0219  0.7080
16543TIP3    H271045   1.222   2.131  16.172  0.2101  0.4797  0.5461
16544TIP3   OH271046   1.184   6.088  14.511  0.3101  0.1335 -0.5471
16544TIP3    H171047   1.114   6.127  14.459  0.2990  0.0459 -0.5972
16544TIP3    H271048   1.164   5.995  14.514  0.8423 -0.0102 -1.2145
16545TIP3   OH271049   4.937   5.446  16.033 -0.4046  0.2580  0.7716
16545TIP3    H171050   4.985   5.433  16.114 -0.2369  0.4962  0.7115
16545TIP3    H271051   4.884   5.524  16.049 -0.0238  0.5792  0.4930
16546TIP3   OH271052   6.487   0.152   3.949 -0.9469 -0.0469 -0.1521
16546TIP3    H171053   6.423   0.194   3.892 -1.3953 -0.5877 -0.0536
16546TIP3    H271054   6.491   0.208   4.026 -0.1339  0.8395 -0.8190
16547TIP3   OH271055   6.035   6.253  16.752  0.5782  0.2301  0.0588
16547TIP3    H171056   5.954   6.289  16.789 -0.1128 -0.7370 -0.4728
16547TIP3    H271057   6.104   6.312  16.782 -0.5866  2.4725 -1.4383
16548TIP3   OH271058   4.563   3.088  15.772  0.1546  0.9409  0.3679
16548TIP3    H171059   4.588   3.035  15.696  2.2760  0.7841  1.1274
16548TIP3    H271060   4.484   3.135  15.743  0.2541  0.0319 -1.5240
16549TIP3   OH271061   5.172   6.507   1.215 -0.1277 -0.0450 -0.4661
16549TIP3    H171062   5.098   6.480   1.161 -0.1121 -1.3900  0.1568
16549TIP3    H271063   5.210   6.425   1.247  0.6907  0.6762  0.4747
16550TIP3   OH271064   5.856   3.894  16.402 -0.4657  0.1443 -0.3209
16550TIP3    H171065   5.918   3.832  16.363 -0.5567 -1.4837  1.9190
16550TIP3    H271066   5.900   3.979  16.395  2.5376 -1.0516  1.9198
16551TIP3   OH271067   4.185   1.873  13.380  0.5543 -0.5431 -0.1377
16551TIP3    H171068   4.172   1.851  13.288 -0.3213 -1.5460  0.2062
16551TIP3    H271069   4.277   1.856  13.397  0.8044  0.0036 -0.9176
16552TIP3   OH271070   1.235   2.924   3.854  0.2123  0.3099 -0.2038
16552TIP3    H171071   1.175   2.992   3.884 -1.9060 -1.2015 -0.7498
16552TIP3    H271072   1.244   2.865   3.928 -0.0250 -0.1534 -0.5390
16553TIP3   OH271073   3.661   0.326  14.834  0.1125 -0.6856  0.2768
16553TIP3    H171074   3.641   0.417  14.854 -0.9316 -0.7481 -0.4008
16553TIP3    H271075   3.755   0.326  14.816  0.1315  0.2504  0.3149
16554TIP3   OH271076   3.885   6.584   0.205  0.5656 -0.4413  0.6066
16554TIP3    H171077   3.879   6.500   0.250 -1.0800 -1.1219 -0.7570
16554TIP3    H271078   3.866   6.563   0.113  3.4910  0.9110 -0.4329
16555TIP3   OH271079   3.805   0.201  15.155 -0.1790  0.3800  0.1581
16555TIP3    H171080   3.856   0.127  15.189  0.0345 -0.0829 -1.1158
16555TIP3    H271081   3.867   0.250  15.101 -0.5324  1.0373  0.3358
16556TIP3   OH271082   0.781   4.262   1.743  0.2612  0.1377  0.4239
16556TIP3    H171083   0.825   4.346   1.734  0.1597  0.1949  0.4745
16556TIP3    H271084   0.813   4.211   1.668 -0.8730  0.7500 -0.4997
16557TIP3   OH271085   5.058   4.827  16.413 -0.5251  0.4879 -0.1327
16557TIP3    H171086   5.000   4.879  16.357  0.5077 -0.8289 -2.5551
16557TIP3    H271087   5.032   4.736  16.397  0.5797  0.0247  0.6270
16558TIP3   OH271088   5.704   4.055   0.601  0.3075 -0.0977  0.8430
16558TIP3    H171089   5.707   3.961   0.586 -0.6804  0.0703 -0.5993
16558TIP3    H271090   5.769   4.091   0.541 -0.5258  0.2557  0.1312
16559TIP3   OH271091   0.723   4.305   2.902 -0.7524 -0.1970 -0.5319
16559TIP3    H171092   0.745   4.245   2.972  1.0235  0.6971 -0.2782
16559TIP3    H271093   0.729   4.252   2.822  0.8833 -0.3699 -0.3250
16560TIP3   OH271094   4.815   6.599   4.008 -0.1003 -0.3907  0.7691
16560TIP3    H171095   4.871   6.660   4.057 -1.0310  0.4179  0.8508
16560TIP3    H271096   4.809   6.638   3.920 -1.0825 -0.0966  0.9585
16561TIP3   OH271097   3.978   3.917   2.201 -0.0346  0.0149 -0.1471
16561TIP3    H171098   3.965   3.838   2.254  1.9012  0.3761  0.9421
16561TIP3    H271099   3.903   3.919   2.142 -0.2932 -2.4545  0.0227
16562TIP3   OH271100   5.492   1.805  13.225 -0.0245 -0.4243 -0.2632
16562TIP3    H171101   5.489   1.735  13.290 -0.8251  0.6661  0.9235
16562TIP3    H271102   5.506   1.884  13.276 -2.0109  0.6397 -1.2663
16563TIP3   OH271103   5.150   1.788   5.929  0.0694 -0.2266 -0.1479
16563TIP3    H171104   5.067   1.793   5.976  0.2078  0.8130  0.0214
16563TIP3    H271105   5.132   1.829   5.844  0.9442  2.2472  0.7544
16564TIP3   OH271106   3.664   5.472   4.218  0.1853 -0.5911 -0.1576
16564TIP3    H171107   3.737   5.533   4.235  0.0990  0.0429 -1.8512
16564TIP3    H271108   3.706   5.387   4.209  0.4618 -0.5846  0.9135
16565TIP3   OH271109   5.340   0.704   3.447  0.0694  0.2702 -0.4031
16565TIP3    H171110   5.369   0.783   3.401 -1.4488  1.3192  0.3313
16565TIP3    H271111   5.338   0.730   3.539  3.1001 -1.7942  0.3734
16566TIP3   OH271112   2.956   3.000   5.052  0.0248 -0.2932 -0.0920
16566TIP3    H171113   2.969   2.938   5.124 -0.7310 -0.4182 -0.0445
16566TIP3    H271114   3.036   3.052   5.049 -0.5831  0.8476  1.9344
16567TIP3   OH271115   0.943   6.044   6.651  0.1825  0.2488  0.2114
16567TIP3    H171116   0.890   6.057   6.572  0.9033 -0.1660 -0.3545
16567TIP3    H271117   1.000   6.121   6.654  0.2026  0.2304  0.2908
16568TIP3   OH271118   0.346   6.122  15.228  0.4020  0.0301 -0.2270
16568TIP3    H171119   0.274   6.184  15.240  0.6764  0.3498 -0.2366
16568TIP3    H271120   0.375   6.135  15.138  0.0729 -0.5296 -0.4207
16569TIP3   OH271121   1.008   0.380   0.341 -0.2883 -0.2395 -0.1485
16569TIP3    H171122   1.029   0.473   0.330  2.8899 -0.6517  1.3389
16569TIP3    H271123   1.000   0.346   0.252 -0.5150  1.2369 -0.7221
16570TIP3   OH271124   4.564   5.153   0.408 -0.5858 -0.0454  0.4693
16570TIP3    H171125   4.524   5.163   0.494  0.4374  0.0916  0.9481
16570TIP3    H271126   4.636   5.091   0.422  0.4025  0.9535  0.0174
16571TIP3   OH271127   6.135   6.246   2.274 -0.0031  0.2183 -0.5747
16571TIP3    H171128   6.204   6.194   2.315 -0.2338 -0.0779 -0.5583
16571TIP3    H271129   6.057   6.231   2.328 -0.0567  0.6271 -0.5359
16572TIP3   OH271130   3.108   1.536  15.554  0.0803 -0.7355  0.1210
16572TIP3    H171131   3.109   1.456  15.501 -0.9289 -0.4325 -0.3946
16572TIP3    H271132   3.104   1.607  15.489 -1.8073 -0.3742  0.5590
16573TIP3   OH271133   0.314   3.809   2.403  0.3071 -0.1318 -0.2395
16573TIP3    H171134   0.313   3.863   2.324  0.6857 -2.0013 -1.5646
16573TIP3    H271135   0.401   3.823   2.441 -0.3324  1.7963  0.6351
16574TIP3   OH271136   4.737   4.954   3.105 -0.5927 -0.1821 -0.7382
16574TIP3    H171137   4.652   4.994   3.124 -0.6957 -0.2725 -0.9917
16574TIP3    H271138   4.801   5.016   3.140 -0.7573  0.0483 -0.8378
16575TIP3   OH271139   2.922   2.127  12.173  0.9715  0.6822  0.0389
16575TIP3    H171140   2.931   2.035  12.199  1.8791  0.8324  0.3011
16575TIP3    H271141   2.882   2.124  12.086  0.6374  0.0570  0.2091
16576TIP3   OH271142   5.525   5.545  16.358  0.7177  0.1155 -0.4597
16576TIP3    H171143   5.594   5.478  16.363  1.2656  0.6977 -0.0031
16576TIP3    H271144   5.444   5.496  16.367  1.1539 -0.3468  1.7568
16577TIP3   OH271145   0.340   5.622  15.911 -0.0167  0.2546 -0.0681
16577TIP3    H171146   0.404   5.692  15.898 -1.1387  1.3134 -0.0132
16577TIP3    H271147   0.309   5.633  16.000  1.9363 -2.1874  1.0305
16578TIP3   OH271148   2.685   4.354   0.956 -0.1708  0.2076  0.4631
16578TIP3    H171149   2.648   4.370   1.043 -0.5152 -2.2944  0.8602
16578TIP3    H271150   2.719   4.265   0.961 -1.4530 -0.5529 -2.3747
16579TIP3   OH271151   0.337   6.008   5.677  0.3303 -0.2297  0.1326
16579TIP3    H171152   0.374   6.088   5.713 -0.1271  0.5055 -0.9775
16579TIP3    H271153   0.268   6.038   5.618  0.3859 -1.4264 -0.5727
16580TIP3   OH271154   5.709   3.193   6.622  0.4446  0.1359 -0.4331
16580TIP3    H171155   5.769   3.118   6.626  2.0928  1.4191 -0.4904
16580TIP3    H271156   5.683   3.198   6.529 -1.1824 -1.4581 -0.1260
16581TIP3   OH271157   6.529   4.152   1.307 -0.1231  0.2774  0.3608
16581TIP3    H171158   6.469   4.138   1.234 -0.0959  0.5608  0.2816
16581TIP3    H271159   6.542   4.247   1.309  1.6807  0.1031 -0.7183
16582TIP3   OH271160   0.655   1.516   2.694 -0.1971  0.3629 -0.7145
16582TIP3    H171161   0.714   1.578   2.650 -0.6933  0.8672 -0.6785
16582TIP3    H271162   0.624   1.459   2.624  1.2504 -0.6780 -0.5574
16583TIP3   OH271163   4.951   6.394   0.040  0.0035  0.3327  0.0777
16583TIP3    H171164   5.019   6.346   0.086 -1.1642  1.0120  2.6946
16583TIP3    H271165   4.869   6.354   0.068 -0.7782 -0.5445 -3.0840
16584TIP3   OH271166   3.686   1.576  16.562  0.3650  0.1410 -0.0653
16584TIP3    H171167   3.602   1.605  16.528 -0.4125  0.7923  2.1948
16584TIP3    H271168   3.707   1.640  16.630  1.3755 -1.4879  1.2271
16585TIP3   OH271169   5.002   3.433   0.426  0.0064  0.0495 -0.9642
16585TIP3    H171170   5.053   3.369   0.476  1.0402  0.2048 -1.7950
16585TIP3    H271171   4.911   3.414   0.450  0.3258 -1.3163 -0.7073
16586TIP3   OH271172   6.143   0.374   0.832  0.1356  0.3795  0.5283
16586TIP3    H171173   6.076   0.311   0.857 -0.9325  1.6754  1.0791
16586TIP3    H271174   6.184   0.400   0.914  2.0117 -1.0847  0.1193
16587TIP3   OH271175   3.808   0.803   0.814  0.1011 -0.0810 -0.3524
16587TIP3    H171176   3.779   0.740   0.880 -2.6377  0.5183 -0.8332
16587TIP3    H271177   3.875   0.757   0.764  0.8070 -1.2532  1.5642
16588TIP3   OH271178   1.787   4.915   3.934  0.5692  0.0793  0.1923
16588TIP3    H171179   1.708   4.921   3.879  1.4375  1.8913 -0.9429
16588TIP3    H271180   1.792   4.822   3.957 -0.3674 -0.6189 -2.0437
16589TIP3   OH271181   3.809   0.675  11.998 -0.2976  0.5028  0.1542
16589TIP3    H171182   3.878   0.668  11.932 -0.1064 -2.4209  0.5551
16589TIP3    H271183   3.819   0.763  12.034  1.1619  1.2878 -1.9812
16590TIP3   OH271184   1.464   3.224   1.341 -0.2113  0.2081 -0.8434
16590TIP3    H171185   1.496   3.294   1.283  0.1730  1.3711  0.6943
16590TIP3    H271186   1.539   3.166   1.351  0.1537  0.7382 -0.4540
16591TIP3   OH271187   3.287   4.530  13.369 -0.5625 -0.5994  0.1473
16591TIP3    H171188   3.195   4.503  13.374 -1.0431  0.7186 -0.9081
16591TIP3    H271189   3.295   4.600  13.433 -0.5244 -0.1240 -0.3735
16592TIP3   OH271190   4.872   3.445   0.851  0.1617  0.1208  0.4493
16592TIP3    H171191   4.938   3.440   0.781  0.7382 -0.5267  1.0265
16592TIP3    H271192   4.848   3.354   0.868  0.6729  0.1945  1.6895
16593TIP3   OH271193   2.068   4.132  11.428 -0.1330 -0.2247 -0.6242
16593TIP3    H171194   2.055   4.226  11.440  2.4301 -0.1438  3.9507
16593TIP3    H271195   2.162   4.119  11.439 -0.3628 -3.3438 -1.4396
16594TIP3   OH271196   1.543   0.175  14.102  0.1742 -1.0020 -0.0367
16594TIP3    H171197   1.508   0.185  14.013  0.0596  1.5064  0.2375
16594TIP3    H271198   1.466   0.155  14.156 -0.2010  0.1858 -0.1080
16595TIP3   OH271199   4.158   0.039   0.992  0.5732  0.0010 -0.0242
16595TIP3    H171200   4.247   0.067   1.012  0.9165 -0.5856 -0.6983
16595TIP3    H271201   4.127   0.101   0.926  0.6619 -0.0910 -0.1522
16596TIP3   OH271202   5.657   3.881  11.567 -0.7474  0.0099 -0.0817
16596TIP3    H171203   5.635   3.857  11.657  0.7869 -1.1929  0.0088
16596TIP3    H271204   5.746   3.849  11.555  0.5005  3.3199 -0.8742
16597TIP3   OH271205   1.904   1.712  14.930 -0.7085 -0.4153 -0.6540
16597TIP3    H171206   1.942   1.673  14.851  0.8236  0.7337 -0.5213
16597TIP3    H271207   1.973   1.707  14.996  0.0362  3.3751 -0.9142
16598TIP3   OH271208   6.551   1.265  12.015 -0.5299 -0.1294 -0.1221
16598TIP3    H171209   6.514   1.244  11.929 -2.0009 -0.8406  0.6404
16598TIP3    H271210   6.481   1.312  12.060  0.4449  0.7710  0.4790
16599TIP3   OH271211   6.216   0.802   1.242  0.7908 -0.3213 -0.4058
16599TIP3    H171212   6.297   0.832   1.201 -0.0943  0.6428 -1.4951
16599TIP3    H271213   6.190   0.873   1.300  0.9053 -0.7881  0.2329
16600TIP3   OH271214   4.332   5.308  15.085 -0.1583 -0.1061  0.2015
16600TIP3    H171215   4.257   5.353  15.123 -1.5220 -0.0364 -2.4172
16600TIP3    H271216   4.403   5.371  15.090 -1.1856  1.1276 -0.4364
16601TIP3   OH271217   5.597   2.315   2.588  0.1462 -0.0909  0.7015
16601TIP3    H171218   5.571   2.223   2.595  0.2551 -0.1411  0.4310
16601TIP3    H271219   5.551   2.358   2.661 -0.5738 -0.2092  0.3256
16602TIP3   OH271220   1.383   5.878   1.771  0.2216 -0.6150  0.3839
16602TIP3    H171221   1.316   5.899   1.836  0.9392  0.0740  0.9107
16602TIP3    H271222   1.464   5.871   1.821  0.7703 -0.1752 -0.4240
16603TIP3   OH271223   5.626   5.992   2.465  0.0137  0.4096 -0.3555
16603TIP3    H171224   5.595   5.983   2.375  0.8067 -0.0296 -0.5864
16603TIP3    H271225   5.553   6.036   2.510 -0.2530  0.9585 -1.2800
16604TIP3   OH271226   4.934   1.929  15.484 -0.1551 -0.0546 -0.0530
16604TIP3    H171227   5.006   1.991  15.492  0.3812 -0.7716  0.7987
16604TIP3    H271228   4.875   1.950  15.557  0.0498 -0.5598  0.2664
16605TIP3   OH271229   3.828   5.673  12.220  0.6714  0.2690 -0.3680
16605TIP3    H171230   3.832   5.687  12.126  0.7023  1.6516 -0.1933
16605TIP3    H271231   3.871   5.751  12.257 -1.5561  0.9994  0.8392
16606TIP3   OH271232   6.518   4.913  14.499 -0.1319 -0.0530 -0.2046
16606TIP3    H171233   6.428   4.912  14.531 -0.6912 -0.1365 -1.6957
16606TIP3    H271234   6.526   4.832  14.449  1.6326 -1.3841  2.0530
16607TIP3   OH271235   0.199   4.992   2.863 -0.4074  0.2945 -0.4526
16607TIP3    H171236   0.181   5.050   2.937  1.2872 -0.0538  0.2873
16607TIP3    H271237   0.120   4.996   2.809 -0.5517  2.8603 -0.1572
16608TIP3   OH271238   6.088   4.395  12.989 -0.2786 -0.0519  0.1395
16608TIP3    H171239   6.111   4.302  12.994  1.5356  0.3202 -0.6507
16608TIP3    H271240   6.172   4.441  12.990 -1.0438  1.4943 -1.4337
16609TIP3   OH271241   5.397   2.117  11.773  0.3195  0.7459 -0.0722
16609TIP3    H171242   5.424   2.047  11.833  0.3212  0.7184 -0.1048
16609TIP3    H271243   5.315   2.149  11.809 -0.7092 -0.5869 -1.0945
16610TIP3   OH271244   0.389   4.647   2.107  0.4463 -0.3009  0.5019
16610TIP3    H171245   0.464   4.610   2.154  0.1610 -0.1095  1.1223
16610TIP3    H271246   0.314   4.595   2.137  0.3375 -0.5238 -0.1516
16611TIP3   OH271247   6.180   1.287   0.987 -0.0998  0.2099 -0.0126
16611TIP3    H171248   6.249   1.351   0.967 -0.6821  1.1293  0.8438
16611TIP3    H271249   6.203   1.210   0.935  0.7408  1.0345 -0.9009
16612TIP3   OH271250   2.118   2.491   5.379  0.4480  0.1691 -0.6148
16612TIP3    H171251   2.121   2.554   5.451  0.6903 -0.2141 -0.2830
16612TIP3    H271252   2.032   2.449   5.387 -0.3463  1.5154 -1.7634
16613TIP3   OH271253   5.501   2.064  13.344  0.5824 -0.0573 -0.1725
16613TIP3    H171254   5.436   2.133  13.356 -1.1483 -1.6839  0.2604
16613TIP3    H271255   5.542   2.085  13.260  0.4278  1.7179  0.1468
16614TIP3   OH271256   0.477   5.257   4.210 -0.4517  0.2065 -0.8952
16614TIP3    H171257   0.527   5.189   4.166  2.6816  0.6108  1.6525
16614TIP3    H271258   0.499   5.338   4.165  0.1498  0.1988 -0.6227
16615TIP3   OH271259   6.448   4.819   5.270 -0.6273 -0.1601  0.1610
16615TIP3    H171260   6.431   4.875   5.346 -1.0106 -0.5876  0.3949
16615TIP3    H271261   6.535   4.846   5.240  0.6253 -1.6169  2.1955
16616TIP3   OH271262   0.785   3.943   5.596  0.3988  0.1614  0.3586
16616TIP3    H171263   0.747   4.012   5.540  1.2964  1.0150  0.7708
16616TIP3    H271264   0.868   3.980   5.626  0.9545 -1.1671  0.5029
16617TIP3   OH271265   3.052   3.415  15.814  0.1577  0.2855 -0.0702
16617TIP3    H171266   2.983   3.384  15.873  1.6326  0.9456  2.1480
16617TIP3    H271267   3.055   3.350  15.744 -0.7594 -1.3329  1.3173
16618TIP3   OH271268   0.204   6.366  16.508 -0.3252  0.1716  0.4893
16618TIP3    H171269   0.111   6.355  16.489 -0.3459  2.4169 -1.0222
16618TIP3    H271270   0.247   6.298  16.456 -1.0912 -1.1718  1.5399
16619TIP3   OH271271   2.880   4.150   5.870 -0.4755 -0.2884  0.0238
16619TIP3    H171272   2.875   4.192   5.784 -0.7969 -1.9398 -0.8048
16619TIP3    H271273   2.800   4.177   5.915 -0.3478  0.5078 -0.2277
16620TIP3   OH271274   0.029   2.647   2.150 -0.0724 -0.0345  0.4973
16620TIP3    H171275   0.062   2.678   2.235 -0.2546 -1.3055  1.0481
16620TIP3    H271276   0.101   2.596   2.114 -0.6047 -0.9241  0.6747
16621TIP3   OH271277   2.032   4.798   1.434 -0.3668 -0.1926  0.1626
16621TIP3    H171278   2.111   4.813   1.383 -0.1476  0.5020  0.7095
16621TIP3    H271279   1.978   4.876   1.420 -1.7321 -1.3474 -1.5713
16622TIP3   OH271280   6.132   5.599   4.323  0.5513  0.6632  0.3434
16622TIP3    H171281   6.112   5.541   4.395  2.1111  1.0902  1.1667
16622TIP3    H271282   6.060   5.662   4.322 -1.3162 -1.3722 -0.7534
16623TIP3   OH271283   5.408   1.447  11.608 -0.1647 -0.2834  0.0650
16623TIP3    H171284   5.400   1.526  11.662  0.0223 -1.0806  1.2933
16623TIP3    H271285   5.487   1.462  11.556 -0.7042  0.7752 -0.4991
16624TIP3   OH271286   1.421   5.629   5.100  0.2655 -0.6487  0.0733
16624TIP3    H171287   1.331   5.661   5.096  0.7310  0.7417  0.0197
16624TIP3    H271288   1.413   5.535   5.117 -1.1602 -0.3144  1.4686
16625TIP3   OH271289   2.783   0.403  17.146  0.5033  0.4114  0.5567
16625TIP3    H171290   2.727   0.340  17.102 -0.3916  0.4567  1.6064
16625TIP3    H271291   2.726   0.477  17.166  0.7055  0.1175  2.3790
16626TIP3   OH271292   6.411   4.852  12.447 -0.0469 -0.0990  0.1034
16626TIP3    H171293   6.333   4.805  12.419  0.1715 -0.6081  0.3268
16626TIP3    H271294   6.443   4.896  12.368  0.8814 -1.9603 -0.6371
16627TIP3   OH271295   6.110   3.635  12.151  0.6261  0.6993 -0.0931
16627TIP3    H171296   6.043   3.698  12.125 -0.4368 -0.7457 -0.9522
16627TIP3    H271297   6.187   3.659  12.098 -0.4413 -0.0410 -2.0692
16628TIP3   OH271298   4.142   6.417   2.098 -0.0216  0.5823  0.5643
16628TIP3    H171299   4.179   6.490   2.049  2.3659 -0.5813  0.4849
16628TIP3    H271300   4.189   6.417   2.181  0.0030 -0.8119  0.5782
16629TIP3   OH271301   0.526   5.970   0.697  0.0981  0.4679 -0.1866
16629TIP3    H171302   0.510   6.061   0.720 -0.8480  0.4090 -0.5468
16629TIP3    H271303   0.572   5.973   0.614 -0.3252  0.6181 -0.4194
16630TIP3   OH271304   1.479   5.350  12.394 -0.5572 -0.4463 -0.3209
16630TIP3    H171305   1.388   5.372  12.412 -0.0668  1.4219  0.1640
16630TIP3    H271306   1.512   5.314  12.477 -0.5998 -0.1381 -0.1663
16631TIP3   OH271307   1.261   1.992   5.567  0.1719 -0.4243 -0.2673
16631TIP3    H171308   1.325   2.004   5.637  0.5660 -1.3608 -0.4637
16631TIP3    H271309   1.306   2.023   5.488 -0.5414  1.3807 -0.0278
16632TIP3   OH271310   4.526   3.801   1.876 -0.6329  0.0007  0.0560
16632TIP3    H171311   4.458   3.810   1.809  0.5735 -0.6153 -1.3025
16632TIP3    H271312   4.549   3.891   1.899 -0.7393  0.2391 -0.7197
16633TIP3   OH271313   0.114   0.884   2.692 -0.2293 -0.1924  0.2613
16633TIP3    H171314   0.148   0.925   2.613  1.0062  0.4740  1.1035
16633TIP3    H271315   0.067   0.954   2.737 -5.4976 -1.6425 -2.1798
16634TIP3   OH271316   0.020   1.161  13.839  0.0374 -0.5614  0.0109
16634TIP3    H171317  -0.043   1.112  13.785  1.8989 -0.1575 -2.7335
16634TIP3    H271318   0.106   1.133  13.808  1.2255  0.4475  2.1677
16635TIP3   OH271319   0.701   5.447   0.244 -0.4262 -0.5750  0.0381
16635TIP3    H171320   0.647   5.521   0.215  0.5343  0.6316  1.1832
16635TIP3    H271321   0.786   5.486   0.263 -0.0173 -1.9002  1.0634
16636TIP3   OH271322   0.317   2.637  11.398  0.0237  0.0933 -0.0159
16636TIP3    H171323   0.395   2.609  11.349  0.1043  1.7864 -0.9180
16636TIP3    H271324   0.329   2.731  11.411 -1.0464  0.0612  1.3966
16637TIP3   OH271325   5.959   3.885  12.131 -0.8556  0.0139  0.0657
16637TIP3    H171326   5.907   3.871  12.210 -0.7840  1.1340  0.3291
16637TIP3    H271327   5.979   3.979  12.132  3.8257 -0.7266  1.6780
16638TIP3   OH271328   4.060   6.123   2.777  0.1290  0.1082 -0.0495
16638TIP3    H171329   4.108   6.077   2.845 -0.5373 -2.2183 -1.0686
16638TIP3    H271330   4.120   6.192   2.748  1.1418 -0.0424  1.5613
16639TIP3   OH271331   0.711   1.043  11.511  0.3719 -0.5158 -0.3114
16639TIP3    H171332   0.753   1.078  11.432  0.3467 -0.0561 -0.1290
16639TIP3    H271333   0.759   1.084  11.583 -0.1136 -0.3138 -0.1006
16640TIP3   OH271334   6.482   0.044  14.128 -0.2491  0.1434  0.2854
16640TIP3    H171335   6.394   0.009  14.111 -0.1534 -0.1623  0.4204
16640TIP3    H271336   6.477   0.076  14.219 -0.2965  0.3676  0.2053
16641TIP3   OH271337   4.238   1.354   4.830 -0.4891  0.0352  0.5423
16641TIP3    H171338   4.187   1.322   4.756 -0.5862 -0.8445  0.9770
16641TIP3    H271339   4.179   1.413   4.877 -0.8683 -0.4218  0.6452
16642TIP3   OH271340   6.563   5.440   0.266  0.1379 -0.3287 -0.2123
16642TIP3    H171341   6.487   5.388   0.294  0.9112 -0.5051  1.7178
16642TIP3    H271342   6.525   5.517   0.223 -1.0911 -1.0027 -0.3791
16643TIP3   OH271343   4.234   1.084  13.514 -0.0968 -0.0403  0.2953
16643TIP3    H171344   4.222   1.107  13.422 -0.9460 -3.9580 -0.7593
16643TIP3    H271345   4.326   1.100  13.532  0.3662 -0.3921 -1.6443
16644TIP3   OH271346   1.249   3.380  13.272  0.4089  0.3662 -0.1311
16644TIP3    H171347   1.256   3.394  13.177 -0.3194  0.9186 -0.1140
16644TIP3    H271348   1.320   3.432  13.309  0.4116  0.5194 -0.3489
16645TIP3   OH271349   0.573   4.109   4.652 -0.1118  0.1558 -0.3328
16645TIP3    H171350   0.544   4.018   4.652  2.0672 -0.5911 -0.4755
16645TIP3    H271351   0.622   4.118   4.570  0.0201  1.3545 -0.1323
16646TIP3   OH271352   4.135   1.858  14.627 -0.3457  0.2354 -0.0266
16646TIP3    H171353   4.075   1.835  14.697  0.5493 -0.6465  0.4688
16646TIP3    H271354   4.212   1.893  14.671  0.1190 -0.0730 -0.5807
16647TIP3   OH271355   1.071   6.757  14.112 -0.3502  0.1142  0.0863
16647TIP3    H171356   1.134   6.690  14.139 -1.9411 -0.6526  2.1872
16647TIP3    H271357   0.997   6.746  14.172 -1.9699  1.7859 -1.4736
16648TIP3   OH271358   2.703   0.795  12.889  0.0310  0.5169 -0.1464
16648TIP3    H171359   2.664   0.827  12.970 -0.8221 -0.3662 -0.1881
16648TIP3    H271360   2.678   0.860  12.823 -2.0084 -0.3650 -0.3065
16649TIP3   OH271361   6.080   0.663   0.423 -0.5685  0.1175  0.5769
16649TIP3    H171362   6.056   0.623   0.506  1.4252 -1.3435  0.5089
16649TIP3    H271363   6.034   0.611   0.357 -0.5484 -0.0016  0.6563
16650TIP3   OH271364   4.847   4.688  15.293  0.1582  0.2837  0.0084
16650TIP3    H171365   4.927   4.670  15.342  0.2803  0.2540 -0.2002
16650TIP3    H271366   4.800   4.753  15.347  0.5180  0.6117 -0.0693
16651TIP3   OH271367   6.357   5.309   2.966  0.0304  0.2565 -0.9735
16651TIP3    H171368   6.276   5.280   2.925 -0.4903  1.3252 -0.7258
16651TIP3    H271369   6.381   5.237   3.025 -0.8057 -0.0063 -0.9499
16652TIP3   OH271370   3.244   4.819  13.289 -0.8800 -0.4164  0.1727
16652TIP3    H171371   3.237   4.883  13.218  0.5839 -0.2719  0.1466
16652TIP3    H271372   3.250   4.872  13.368  0.2018 -0.5084  0.1634
16653TIP3   OH271373   4.724   2.775   1.921  0.1080  0.6144  0.1583
16653TIP3    H171374   4.727   2.747   2.012 -1.3151 -1.4292 -0.3575
16653TIP3    H271375   4.789   2.721   1.876 -1.3647 -0.6864 -0.5223
16654TIP3   OH271376   4.709   4.264   4.729  0.7444  0.2017 -0.0677
16654TIP3    H171377   4.769   4.246   4.801 -0.0354  0.4838  0.6642
16654TIP3    H271378   4.655   4.185   4.721  0.2212  0.5178  0.2713
16655TIP3   OH271379   1.631   1.431  12.636  0.1852  0.1853 -0.0110
16655TIP3    H171380   1.587   1.506  12.677  3.2166  3.0219 -1.4761
16655TIP3    H271381   1.724   1.449  12.649  1.0567 -3.0609 -1.0476
16656TIP3   OH271382   1.599   6.464   5.134 -0.2898  0.2038 -0.1829
16656TIP3    H171383   1.657   6.494   5.204 -0.9555 -0.2540  0.5815
16656TIP3    H271384   1.556   6.544   5.103 -1.0699  0.2319  0.9339
16657TIP3   OH271385   4.012   6.337  11.438  0.0296  0.3421 -0.0139
16657TIP3    H171386   3.966   6.360  11.357  2.0794 -0.0225 -1.3609
16657TIP3    H271387   4.091   6.392  11.436  0.3524 -0.0390  1.4980
16658TIP3   OH271388   1.210   6.280   5.450  0.2164  0.0667 -0.5272
16658TIP3    H171389   1.136   6.337   5.430  0.3727  0.7034  0.5977
16658TIP3    H271390   1.205   6.268   5.545  0.3238 -1.6243 -0.6991
16659TIP3   OH271391   0.187   6.181   1.799  0.0061 -0.1381 -0.4268
16659TIP3    H171392   0.154   6.271   1.798  2.7946  1.0666  2.0975
16659TIP3    H271393   0.145   6.140   1.874  0.3472 -0.2357 -0.2855
16660TIP3   OH271394   4.256   4.502  12.220 -0.1418  0.4402  0.1980
16660TIP3    H171395   4.224   4.412  12.225 -1.1373  0.7108 -0.8160
16660TIP3    H271396   4.184   4.550  12.178  1.2443  1.2592 -1.3473
16661TIP3   OH271397   5.118   4.892  16.687 -0.0489  0.7507 -0.2381
16661TIP3    H171398   5.076   4.976  16.671 -0.6949  0.4169 -0.3066
16661TIP3    H271399   5.090   4.836  16.614 -0.9722 -0.0173  0.6725
16662TIP3   OH271400   3.763   3.861  14.820 -0.2284  0.6635 -0.1132
16662TIP3    H171401   3.778   3.947  14.781  0.4362  0.2021 -0.9130
16662TIP3    H271402   3.763   3.877  14.914  0.5268  1.4510 -0.2326
16663TIP3   OH271403   1.525   0.721  14.174  0.4583 -0.7865  0.3473
16663TIP3    H171404   1.558   0.791  14.118  1.2820 -0.2376  1.4615
16663TIP3    H271405   1.540   0.753  14.263 -1.8783 -1.1061  0.9326
16664TIP3   OH271406   4.825   5.620  16.797  0.0529  0.0253 -0.3787
16664TIP3    H171407   4.785   5.538  16.767  1.8545 -0.2552 -2.2628
16664TIP3    H271408   4.869   5.598  16.878 -2.4362  0.0520  1.0817
16665TIP3   OH271409   5.082   5.650   2.510 -0.1022 -0.3327 -0.1732
16665TIP3    H171410   5.103   5.636   2.602  1.4384  1.7716 -0.1136
16665TIP3    H271411   4.987   5.656   2.507 -0.1415  0.0825  1.3984
16666TIP3   OH271412   3.806   2.607  12.374 -0.6169 -0.2637 -0.0917
16666TIP3    H171413   3.712   2.592  12.377 -0.7373 -0.9876 -3.5104
16666TIP3    H271414   3.838   2.546  12.308  2.0398  0.9925 -0.0974
16667TIP3   OH271415   0.796   0.307   0.685 -0.3397  0.1038  0.2476
16667TIP3    H171416   0.805   0.394   0.646 -3.3574 -0.0018 -0.9005
16667TIP3    H271417   0.788   0.248   0.610 -3.1415 -0.5088  0.9433
16668TIP3   OH271418   1.078   5.810  15.249  0.1233  0.1968 -0.6310
16668TIP3    H171419   1.143   5.880  15.249  0.8425 -0.4550 -1.3792
16668TIP3    H271420   1.129   5.730  15.257 -0.6616 -0.2792 -0.2654
16669TIP3   OH271421   6.758   4.413  13.599 -0.2664  0.3997 -0.1026
16669TIP3    H171422   6.828   4.388  13.539 -0.5078  2.0554 -1.1304
16669TIP3    H271423   6.685   4.438  13.542 -0.4403  2.1884  0.8388
16670TIP3   OH271424   5.397   2.718   6.115 -0.2130  0.7863  0.9305
16670TIP3    H171425   5.402   2.807   6.079 -0.8986  0.0517 -1.1121
16670TIP3    H271426   5.481   2.705   6.159  0.3125  2.0780  0.3557
16671TIP3   OH271427   0.583   2.700  16.521  0.2498  0.0236 -0.2433
16671TIP3    H171428   0.615   2.726  16.435 -0.2874 -0.3986 -0.5783
16671TIP3    H271429   0.657   2.656  16.562  0.2092 -0.6487 -0.8796
16672TIP3   OH271430   4.499   0.980  16.002 -0.6473  0.1164 -0.0968
16672TIP3    H171431   4.406   0.974  16.022 -0.4674 -0.1973  0.7287
16672TIP3    H271432   4.504   0.978  15.907 -1.3872 -1.5906 -0.1381
16673TIP3   OH271433   5.893   4.630  12.333 -0.9082  0.1328  0.1545
16673TIP3    H171434   5.988   4.643  12.339 -0.9139  0.5830 -0.5171
16673TIP3    H271435   5.858   4.662  12.416 -0.4621 -0.1514  0.4540
16674TIP3   OH271436   1.996   2.787  12.972  0.0668  0.0913 -0.1731
16674TIP3    H171437   1.935   2.795  12.899 -0.6792  0.7967  0.5068
16674TIP3    H271438   2.082   2.804  12.933 -0.1817 -0.6499 -1.0881
16675TIP3   OH271439   6.324   6.254   6.449  0.0234 -0.3756 -0.2397
16675TIP3    H171440   6.292   6.165   6.434 -0.0616 -0.4323  0.2563
16675TIP3    H271441   6.354   6.254   6.540  1.5671 -0.3583 -0.7265
16676TIP3   OH271442   4.222   4.550   3.413 -0.0054 -0.2560 -0.4462
16676TIP3    H171443   4.236   4.507   3.497  0.1059  1.4865  0.4774
16676TIP3    H271444   4.300   4.528   3.361  0.6822 -0.0723  0.4916
16677TIP3   OH271445   1.954   3.395   2.635 -0.2458 -0.2695  0.2225
16677TIP3    H171446   1.960   3.324   2.699  1.3556  1.1711  1.7876
16677TIP3    H271447   2.044   3.423   2.623 -0.6547  0.2931 -1.8149
16678TIP3   OH271448   2.867   4.239  14.913  0.0500  0.3078 -0.2180
16678TIP3    H171449   2.901   4.157  14.948  0.8874  0.8895  0.3643
16678TIP3    H271450   2.843   4.290  14.990 -0.0848  0.7765 -0.5634
16679TIP3   OH271451   1.308   4.671   3.114 -0.2023 -0.5149  0.0826
16679TIP3    H171452   1.297   4.736   3.045  0.4463  1.1709  1.4772
16679TIP3    H271453   1.397   4.636   3.102 -0.0975 -0.2354  0.0447
16680TIP3   OH271454   3.243   0.581   5.996  0.1162  0.4187  0.0779
16680TIP3    H171455   3.165   0.584   6.052 -0.1254 -0.7019 -0.1736
16680TIP3    H271456   3.275   0.491   6.004  1.4494  0.8787  0.2463
16681TIP3   OH271457   4.101   2.732   0.427 -0.1831 -0.2796 -0.6403
16681TIP3    H171458   4.117   2.647   0.387  0.6246 -0.7037  0.5313
16681TIP3    H271459   4.016   2.723   0.470  1.1246 -1.4984  1.9011
16682TIP3   OH271460   1.031   4.600  13.216 -0.3709 -0.5317 -0.6117
16682TIP3    H171461   1.117   4.631  13.187 -0.0489 -1.5823 -0.8339
16682TIP3    H271462   0.991   4.676  13.258  0.2595  0.2528 -1.3903
16683TIP3   OH271463   4.979   3.962  15.640  0.2466  0.3197  0.2522
16683TIP3    H171464   4.991   3.993  15.730 -2.0996 -0.4115  0.8867
16683TIP3    H271465   4.969   3.867  15.649 -2.3659  0.4572 -0.4212
16684TIP3   OH271466   2.891   1.819   4.743 -0.7974 -0.2122 -0.0408
16684TIP3    H171467   2.839   1.739   4.735  0.5689 -1.0848 -0.3552
16684TIP3    H271468   2.902   1.850   4.653  0.7600 -1.0562 -0.1706
16685TIP3   OH271469   1.641   0.750  11.376 -0.4947 -0.6855 -0.4516
16685TIP3    H171470   1.680   0.826  11.418 -2.8477 -0.2131  1.0043
16685TIP3    H271471   1.605   0.783  11.294 -0.7123 -0.4310 -0.2528
16686TIP3   OH271472   6.632   3.826  10.943 -0.8362  0.2283  0.0645
16686TIP3    H171473   6.705   3.886  10.926 -2.1720  1.6998 -0.7259
16686TIP3    H271474   6.662   3.772  11.016  1.6506 -0.2955 -1.2245
16687TIP3   OH271475   4.009   4.140   6.301 -0.1552 -0.4526  0.2726
16687TIP3    H171476   3.943   4.176   6.361  0.6798 -0.3387  1.1326
16687TIP3    H271477   4.062   4.082   6.355  1.3604  0.5671 -0.0869
16688TIP3   OH271478   2.746   1.396  14.760 -0.0162 -0.3999  0.2457
16688TIP3    H171479   2.825   1.403  14.707 -0.0514  0.5582  0.3090
16688TIP3    H271480   2.682   1.452  14.717 -0.6136 -1.0224  0.2988
16689TIP3   OH271481   1.573   4.215   0.525 -0.5631  0.3384  0.0870
16689TIP3    H171482   1.535   4.146   0.470 -0.5264 -0.7930  1.4123
16689TIP3    H271483   1.577   4.292   0.469  1.7541 -1.3751 -2.3036
16690TIP3   OH271484   0.963   5.775  13.605  0.0048 -0.2005 -0.1989
16690TIP3    H171485   0.909   5.852  13.619 -1.2746 -1.2243  0.7368
16690TIP3    H271486   0.955   5.756  13.511  0.8544  1.1469 -0.5624
16691TIP3   OH271487   2.361   5.244   2.680  0.1251  0.3305  0.1839
16691TIP3    H171488   2.304   5.200   2.744  0.7324 -1.2011 -0.2673
16691TIP3    H271489   2.417   5.174   2.647 -0.7945  0.8312 -2.7457
16692TIP3   OH271490   5.469   4.085   4.438  0.1763 -0.1635 -0.4030
16692TIP3    H171491   5.434   4.049   4.519 -0.0509 -0.9065 -0.8179
16692TIP3    H271492   5.544   4.138   4.465  0.7086 -1.2142  0.2040
16693TIP3   OH271493   0.833   0.032   2.932  0.4188  0.0732 -0.0361
16693TIP3    H171494   0.874   0.077   2.859  0.4715 -0.5907 -0.4181
16693TIP3    H271495   0.876  -0.053   2.936 -0.1663 -0.2174  0.2376
16694TIP3   OH271496   4.965   0.335  13.808 -0.1336  0.4107 -0.1647
16694TIP3    H171497   4.980   0.427  13.827 -2.6276  1.2335 -1.7344
16694TIP3    H271498   5.011   0.319  13.726 -1.0050  0.6894 -0.7086
16695TIP3   OH271499   3.809   4.562   5.924  0.2713  0.2752  0.3550
16695TIP3    H171500   3.802   4.527   5.835 -1.0778 -1.0551  0.9451
16695TIP3    H271501   3.903   4.570   5.939  0.5331 -0.0364 -0.9707
16696TIP3   OH271502   5.902   6.720  14.347  0.2083 -0.0545 -0.2433
16696TIP3    H171503   5.979   6.691  14.395  0.0888 -0.7237 -0.4372
16696TIP3    H271504   5.841   6.748  14.416 -1.1028 -3.7320  0.3259
16697TIP3   OH271505   0.328   3.568  15.059 -0.0759  0.1352 -0.5137
16697TIP3    H171506   0.296   3.521  15.135 -0.7445 -0.7676 -1.3225
16697TIP3    H271507   0.341   3.500  14.992 -1.4181  1.1013 -1.8330
16698TIP3   OH271508   5.541   1.469  11.929 -0.1943  0.6126  0.0420
16698TIP3    H171509   5.606   1.480  11.859 -0.3960  1.3968 -0.0356
16698TIP3    H271510   5.593   1.463  12.009  0.0881 -1.2396 -0.2520
16699TIP3   OH271511   3.828   0.015   1.077  0.0943 -0.3485  0.1835
16699TIP3    H171512   3.808   0.061   0.996 -1.1570 -1.4980 -0.2011
16699TIP3    H271513   3.781   0.066   1.144  0.5602  0.2045  0.0972
16700TIP3   OH271514   0.686   3.102  13.075  0.1627  0.0683  0.0985
16700TIP3    H171515   0.750   3.038  13.044  0.6359  0.1643  0.8429
16700TIP3    H271516   0.615   3.050  13.113  0.2433 -0.0304  0.1136
16701TIP3   OH271517   1.261   2.705  11.475 -0.7990 -1.0179 -0.2272
16701TIP3    H171518   1.220   2.792  11.468  0.4898 -0.3637  0.1051
16701TIP3    H271519   1.197   2.646  11.434 -1.5591  0.1239 -0.7677
16702TIP3   OH271520   1.682   0.432   2.193  0.6527  0.3090  0.0501
16702TIP3    H171521   1.720   0.381   2.264  0.3303 -2.1783 -1.4480
16702TIP3    H271522   1.599   0.464   2.228 -0.7134 -2.9425  0.1730
16703TIP3   OH271523   0.033   2.234  15.883 -0.3990  0.6048 -0.4656
16703TIP3    H171524  -0.056   2.239  15.918 -1.2713 -1.2022 -2.2365
16703TIP3    H271525   0.064   2.146  15.906  0.0565  0.4047 -1.7353
16704TIP3   OH271526   0.518   3.498  12.178 -0.4047  0.4246  0.1391
16704TIP3    H171527   0.574   3.431  12.216  0.3627  1.5012  0.9660
16704TIP3    H271528   0.543   3.501  12.086 -0.4304 -0.3889  0.0981
16705TIP3   OH271529   1.936   0.826   4.516  0.1874  0.3384  0.4043
16705TIP3    H171530   1.899   0.778   4.590 -0.6715  0.5333  0.1024
16705TIP3    H271531   1.894   0.788   4.439  0.6289  0.5489  0.0522
16706TIP3   OH271532   0.469   5.852   4.827 -0.3220  0.3697 -0.4024
16706TIP3    H171533   0.547   5.893   4.788  1.2554 -1.9319  0.1408
16706TIP3    H271534   0.465   5.765   4.788 -1.2346 -0.4114  1.3191
16707TIP3   OH271535   4.691   4.600  15.003  0.0910  0.2877 -0.0252
16707TIP3    H171536   4.648   4.673  14.958  1.1522  0.6902 -0.4236
16707TIP3    H271537   4.718   4.636  15.087 -2.1602 -0.5488  1.1419
16708TIP3   OH271538   0.510   6.138  12.403  0.3687 -0.1795  0.5220
16708TIP3    H171539   0.495   6.070  12.468  0.1602  0.5001  1.1994
16708TIP3    H271540   0.426   6.145  12.357  0.7959 -1.3159 -0.4753
16709TIP3   OH271541   1.765   0.908  11.840  0.0646  0.8659 -0.0575
16709TIP3    H171542   1.749   0.820  11.874 -1.0204  0.2116 -2.0458
16709TIP3    H271543   1.793   0.893  11.749  0.3897  2.5506 -0.2600
16710TIP3   OH271544   0.546   5.299  11.905  0.2112  0.1457 -0.2630
16710TIP3    H171545   0.454   5.317  11.887 -0.1674 -1.3227  0.0771
16710TIP3    H271546   0.564   5.342  11.989 -1.4048 -3.0181  1.9136
16711TIP3   OH271547   4.509   2.328  15.502  0.5011 -0.2606  0.1381
16711TIP3    H171548   4.502   2.284  15.586 -1.6090 -1.3162 -0.5131
16711TIP3    H271549   4.511   2.421  15.524 -0.5449 -0.4929  1.3605
16712TIP3   OH271550   0.808   1.642  11.094 -0.0552 -0.2709 -0.4133
16712TIP3    H171551   0.744   1.584  11.053  0.2495  0.1817 -1.5606
16712TIP3    H271552   0.852   1.686  11.021 -0.0612  1.1881  0.4225
16713TIP3   OH271553   6.261   4.703  14.960 -0.3103 -0.0590 -0.8547
16713TIP3    H171554   6.169   4.693  14.935 -0.8645  0.7363  0.7500
16713TIP3    H271555   6.259   4.729  15.052  1.5004  0.7911 -1.0040
16714TIP3   OH271556   4.592   2.592   0.396 -0.2266 -0.1222  0.1901
16714TIP3    H171557   4.670   2.573   0.344 -0.6104 -4.4673  0.8247
16714TIP3    H271558   4.626   2.620   0.481  0.7170 -1.6018  0.3367
16715TIP3   OH271559   6.026   0.067   6.388 -0.0742 -0.2309  0.6227
16715TIP3    H171560   5.955   0.095   6.331  1.0175  3.0884  0.6782
16715TIP3    H271561   6.073   0.000   6.338 -1.0714  0.2160 -0.9762
16716TIP3   OH271562   5.045   0.009   2.543 -0.0113  0.1340 -0.0143
16716TIP3    H171563   5.052  -0.066   2.602  0.9330  0.4309  0.2754
16716TIP3    H271564   5.121   0.064   2.566 -0.7384  1.2200 -0.1447
16717TIP3   OH271565   2.689   3.423  11.216  0.1549  0.2300 -0.2723
16717TIP3    H171566   2.682   3.368  11.138 -1.9274  0.8629 -0.5815
16717TIP3    H271567   2.775   3.464  11.208 -0.2109  0.6976 -2.5280
16718TIP3   OH271568   3.332   5.052   0.413 -0.2531  0.1448  0.2534
16718TIP3    H171569   3.422   5.044   0.442 -0.3692  0.8787  0.8505
16718TIP3    H271570   3.301   4.961   0.404 -0.7277 -0.2530  4.1267
16719TIP3   OH271571   1.453   0.170   2.006  0.0414  0.2548  0.3115
16719TIP3    H171572   1.542   0.143   2.030  0.4214  0.6824 -0.5339
16719TIP3    H271573   1.411   0.191   2.089  1.2272  1.4787  0.6408
16720TIP3   OH271574   5.175   1.732   3.129 -0.2127  0.7238 -0.3311
16720TIP3    H171575   5.131   1.649   3.112 -0.5143  1.1583 -1.8174
16720TIP3    H271576   5.115   1.780   3.186 -0.1639  0.0513  0.3069
16721TIP3   OH271577   1.496   6.033   3.284  0.3589 -0.3703 -0.4633
16721TIP3    H171578   1.405   6.059   3.299  0.1187 -2.0660  1.4594
16721TIP3    H271579   1.526   6.090   3.213 -2.1635  0.2817 -1.1019
16722TIP3   OH271580   3.732   1.978   4.817 -0.1966  0.3525  0.3542
16722TIP3    H171581   3.805   1.934   4.775  1.9654  1.7399  2.4164
16722TIP3    H271582   3.677   2.008   4.744  0.3074 -2.1860 -1.1944
16723TIP3   OH271583   2.123   5.950   0.853 -0.0948 -0.0954  0.0314
16723TIP3    H171584   2.214   5.961   0.828  0.3352 -2.0106  0.6032
16723TIP3    H271585   2.096   5.868   0.811 -2.0786  1.2400 -1.4686
16724TIP3   OH271586   1.510   2.279   0.318 -0.3024 -0.0386  0.0470
16724TIP3    H171587   1.423   2.291   0.358 -0.1851 -2.1363  1.0600
16724TIP3    H271588   1.546   2.367   0.314 -2.0309  0.7524  0.6590
16725TIP3   OH271589   6.061   0.947   3.587 -0.6866 -0.4408  0.2150
16725TIP3    H171590   6.023   0.865   3.556  1.2602 -1.8581  1.3618
16725TIP3    H271591   6.124   0.972   3.519  1.3311 -1.9069  1.4128
16726TIP3   OH271592   5.721   4.094  12.496  0.3085 -0.3276  0.2023
16726TIP3    H171593   5.715   4.187  12.473 -0.4810  0.1092  1.9972
16726TIP3    H271594   5.729   4.094  12.592 -1.5011 -2.1358  0.4112
16727TIP3   OH271595   0.081   2.109  15.051 -0.0689 -0.1502  0.2337
16727TIP3    H171596   0.134   2.174  15.005 -0.2882  1.1704  1.7255
16727TIP3    H271597   0.121   2.103  15.138 -1.2030 -0.5357  0.7588
16728TIP3   OH271598   2.868   6.728  15.170 -0.2385 -0.3461  0.4071
16728TIP3    H171599   2.896   6.643  15.203  3.8288  0.7218  0.2231
16728TIP3    H271600   2.887   6.725  15.076 -1.9079  0.1715  0.0071
16729TIP3   OH271601   3.715   2.713   2.106 -0.1365 -0.7853 -0.1482
16729TIP3    H171602   3.664   2.727   2.027 -0.6028 -2.4396 -0.1643
16729TIP3    H271603   3.728   2.619   2.111  0.7717 -0.6263  1.2034
16730TIP3   OH271604   2.625   1.448  14.347  0.1536 -0.0898 -0.3856
16730TIP3    H171605   2.642   1.405  14.264  1.5343 -0.1861 -0.0802
16730TIP3    H271606   2.695   1.513  14.355  0.2257 -0.2918  0.8354
16731TIP3   OH271607   6.073   1.178   2.198  0.2894  0.3827  0.0496
16731TIP3    H171608   6.120   1.114   2.251  0.5128  0.0863 -0.4932
16731TIP3    H271609   6.068   1.138   2.111 -2.3990 -0.3567  0.4473
16732TIP3   OH271610   2.462   0.378   3.623 -0.0614  0.2213 -0.3626
16732TIP3    H171611   2.447   0.307   3.561  0.7437 -0.5597  0.3069
16732TIP3    H271612   2.525   0.436   3.579  1.6270 -1.0768  0.2382
16733TIP3   OH271613   4.527   2.069   6.136 -0.2713  0.2693  0.0244
16733TIP3    H171614   4.528   2.108   6.049 -2.3472  0.1293 -0.0973
16733TIP3    H271615   4.510   2.142   6.195 -0.0697  0.1750  0.1997
16734TIP3   OH271616   6.691   4.995  16.445 -0.1195 -0.3389 -0.1048
16734TIP3    H171617   6.694   5.083  16.481  0.2220 -0.2110 -0.4359
16734TIP3    H271618   6.772   4.954  16.474  0.5337  0.0233 -1.3421
16735TIP3   OH271619   5.361   0.822   2.143 -0.1524  0.2423 -0.3444
16735TIP3    H171620   5.407   0.784   2.218 -1.1898  0.7352  0.5742
16735TIP3    H271621   5.408   0.904   2.125  0.0601  0.1567 -0.1841
16736TIP3   OH271622   1.307   2.161  15.324  0.4367  0.0835 -0.5260
16736TIP3    H171623   1.263   2.076  15.333 -0.4388  0.2397 -2.6826
16736TIP3    H271624   1.326   2.168  15.230  0.2258  2.3932 -0.4544
16737TIP3   OH271625   3.363   1.613  16.833 -0.4061 -0.6447 -0.0719
16737TIP3    H171626   3.446   1.656  16.853  0.7795 -1.9630 -1.8636
16737TIP3    H271627   3.343   1.639  16.743 -2.0405 -0.2558  0.3649
16738TIP3   OH271628   6.361   2.585   1.456 -0.2618  0.1039 -0.2078
16738TIP3    H171629   6.451   2.560   1.433  0.1067  1.3296 -0.1858
16738TIP3    H271630   6.306   2.524   1.409  0.5940 -1.6055  0.8928
16739TIP3   OH271631   1.330   4.346  11.771  0.1614 -0.4791  0.2546
16739TIP3    H171632   1.237   4.329  11.790 -0.0335  0.9252  0.6272
16739TIP3    H271633   1.373   4.342  11.857  0.0934  0.9414  0.3653
16740TIP3   OH271634   6.317   4.843   3.122 -0.8780 -0.1972 -0.0570
16740TIP3    H171635   6.363   4.825   3.040  1.0876 -2.0250  1.3474
16740TIP3    H271636   6.225   4.852   3.096 -0.1096  1.2000 -2.6622
16741TIP3   OH271637   3.938   4.626   1.173 -0.4101 -0.3146 -0.3995
16741TIP3    H171638   4.022   4.608   1.215 -1.2517 -0.1992  1.4680
16741TIP3    H271639   3.956   4.698   1.112  0.8723 -0.4280 -0.1760
16742TIP3   OH271640   2.609   2.664   1.973 -0.4778  0.1900 -0.0714
16742TIP3    H171641   2.624   2.758   1.961 -2.3799  0.5971  0.4570
16742TIP3    H271642   2.519   2.650   1.946 -0.5763 -1.2795  0.8928
16743TIP3   OH271643   3.178   5.137   4.707 -0.1615 -0.1760  0.6025
16743TIP3    H171644   3.160   5.049   4.675 -1.2629  0.4451 -0.5966
16743TIP3    H271645   3.188   5.190   4.627 -1.0944  1.0754  1.2800
16744TIP3   OH271646   4.701   1.408   2.656  0.2591  0.2829  0.4843
16744TIP3    H171647   4.653   1.331   2.627  1.7714  0.1004 -1.6959
16744TIP3    H271648   4.786   1.375   2.686  0.4995  0.9843  0.6164
16745TIP3   OH271649   1.477   1.207  11.611 -0.8815 -0.3270 -0.2920
16745TIP3    H171650   1.436   1.273  11.556 -1.6389 -0.3623  0.2224
16745TIP3    H271651   1.571   1.214  11.590 -1.0832  0.0657 -1.1337
16746TIP3   OH271652   0.345   6.172   0.988 -0.3985 -0.1572  0.5001
16746TIP3    H171653   0.427   6.200   0.947 -0.8487 -0.5700 -0.7423
16746TIP3    H271654   0.356   6.078   1.001 -0.2239 -0.0154  1.4531
16747TIP3   OH271655   4.509   1.665   0.783  0.0282  0.4571 -0.3145
16747TIP3    H171656   4.550   1.598   0.728  0.6522  0.1267  0.5318
16747TIP3    H271657   4.565   1.670   0.861 -1.7637 -0.3313  1.1060
16748TIP3   OH271658   0.194   6.253  12.715  0.0733  0.1556 -0.3891
16748TIP3    H171659   0.287   6.253  12.736  0.0291 -1.6782 -0.0225
16748TIP3    H271660   0.151   6.232  12.798 -0.7051  1.2657 -0.4884
16749TIP3   OH271661   4.763   6.201   0.662 -0.4144  0.1946  0.0593
16749TIP3    H171662   4.841   6.156   0.628  0.0186  0.8061  0.2310
16749TIP3    H271663   4.787   6.293   0.663  0.0557  0.1577  3.1673
16750TIP3   OH271664   4.759   6.456  13.763 -0.0143 -0.3400 -0.2206
16750TIP3    H171665   4.797   6.544  13.759  2.8362 -1.3988  1.1561
16750TIP3    H271666   4.694   6.461  13.833  0.0312  0.6936 -0.2379
16751TIP3   OH271667   4.620   4.898   1.563  0.1263 -0.3836 -0.3007
16751TIP3    H171668   4.692   4.887   1.502  0.5269  2.9674 -0.6175
16751TIP3    H271669   4.663   4.918   1.647 -0.4046  0.1783 -0.1551
16752TIP3   OH271670   4.464   6.338  15.223 -0.2256  0.5417 -0.4658
16752TIP3    H171671   4.411   6.356  15.300 -2.2427 -0.6433 -1.5040
16752TIP3    H271672   4.509   6.256  15.244 -1.5647 -0.3350 -0.8748
16753TIP3   OH271673   5.669   3.180  14.224  0.1021 -0.4215  0.1123
16753TIP3    H171674   5.693   3.167  14.316 -0.1438 -0.4404  0.1752
16753TIP3    H271675   5.634   3.095  14.196  0.3364 -0.4642 -0.0480
16754TIP3   OH271676   0.149   1.975   5.829 -0.1971 -0.1191  0.2994
16754TIP3    H171677   0.183   1.898   5.875 -1.6634 -1.4425 -0.6906
16754TIP3    H271678   0.133   2.039   5.898  1.2457 -0.6098  1.1340
16755TIP3   OH271679   5.593   4.992   3.767  0.0276  0.3312 -0.2009
16755TIP3    H171680   5.630   5.050   3.699 -1.4446 -1.3607 -2.6135
16755TIP3    H271681   5.654   4.918   3.770  0.7586  0.9427  1.3335
16756TIP3   OH271682   3.354   2.125  11.950  0.0581  0.2129 -0.2106
16756TIP3    H171683   3.309   2.125  12.035 -0.4220 -1.0340 -0.4382
16756TIP3    H271684   3.428   2.184  11.962  0.9401 -1.1851  1.6010
16757TIP3   OH271685   5.320   3.551  16.334 -0.2235  0.8027  0.2111
16757TIP3    H171686   5.312   3.477  16.394 -0.2390  0.4171 -0.2644
16757TIP3    H271687   5.390   3.526  16.274  0.2274  1.4548  0.4474
16758TIP3   OH271688   5.493   5.030   0.047 -0.5363  0.1871  0.4282
16758TIP3    H171689   5.488   5.108   0.102 -1.7720 -0.0933  0.7450
16758TIP3    H271690   5.451   4.961   0.099  1.6978 -1.0427  0.7026
16759TIP3   OH271691   3.337   6.297  15.485  0.1640 -0.0225  0.1190
16759TIP3    H171692   3.385   6.223  15.521  0.7911  0.3427  0.0472
16759TIP3    H271693   3.404   6.350  15.441 -0.3021  0.4990  0.0256
16760TIP3   OH271694   2.913   1.350  14.226  0.0389  0.2639 -0.0043
16760TIP3    H171695   2.977   1.367  14.157  0.8718 -0.4726  0.5557
16760TIP3    H271696   2.875   1.265  14.204 -0.1819  0.3401  0.0799
16761TIP3   OH271697   2.870   2.541   3.629 -0.5360  0.2220  0.0293
16761TIP3    H171698   2.876   2.630   3.663 -2.3840 -0.4589  2.4448
16761TIP3    H271699   2.958   2.504   3.641  0.3680  1.7694 -1.4112
16762TIP3   OH271700   2.268   5.518  13.775  0.1763 -0.6741 -0.3962
16762TIP3    H171701   2.338   5.518  13.840 -0.1041  2.0023  0.0254
16762TIP3    H271702   2.314   5.526  13.691  0.4152 -0.9500 -0.2961
16763TIP3   OH271703   2.734   3.283  11.792  0.7161 -0.0309  0.4267
16763TIP3    H171704   2.791   3.348  11.751  0.1135  0.1898 -0.0776
16763TIP3    H271705   2.647   3.323  11.791  0.1962 -1.0965 -0.5221
16764TIP3   OH271706   3.948   3.935   1.002 -0.2693  0.1832  0.1973
16764TIP3    H171707   4.040   3.962   1.006 -0.0184 -0.6006 -0.0036
16764TIP3    H271708   3.901   4.013   0.974  0.6267  0.0412 -1.9409
16765TIP3   OH271709   0.071   3.716  12.997  0.0704 -0.1659 -0.2293
16765TIP3    H171710   0.035   3.743  12.912  0.6152  0.1930 -0.3563
16765TIP3    H271711   0.005   3.658  13.034 -1.7917  2.3508  0.6507
16766TIP3   OH271712   0.349   1.683  15.817 -0.4304 -0.2071  0.1194
16766TIP3    H171713   0.349   1.699  15.911 -0.2168 -0.1901  0.1159
16766TIP3    H271714   0.281   1.741  15.783 -1.1347 -0.8695  0.3747
16767TIP3   OH271715   4.678   4.794   2.347 -0.2286 -0.6290  0.7982
16767TIP3    H171716   4.613   4.725   2.338  0.3732 -1.0296 -0.6682
16767TIP3    H271717   4.661   4.853   2.274  1.3633 -1.0169  0.0677
16768TIP3   OH271718   0.181   2.594  10.844  0.4436 -0.5821  0.1003
16768TIP3    H171719   0.140   2.577  10.760  1.1947 -2.4363  0.0608
16768TIP3    H271720   0.200   2.508  10.880  1.1080  0.1739  1.6980
16769TIP3   OH271721   2.614   4.741   6.110  0.0427  0.4774  0.1493
16769TIP3    H171722   2.683   4.675   6.103  0.1605  0.4185  1.5766
16769TIP3    H271723   2.574   4.726   6.196 -0.7821  1.4451 -0.0380
16770TIP3   OH271724   2.697   0.284  16.771 -0.2970 -0.2965  0.9640
16770TIP3    H171725   2.648   0.272  16.852  0.7447 -2.3770  1.3458
16770TIP3    H271726   2.786   0.255  16.792 -0.3970 -2.5527 -1.3428
16771TIP3   OH271727   0.152   1.009   4.836 -0.0955  0.1984  0.9045
16771TIP3    H171728   0.179   1.095   4.806 -1.6704  0.5370  0.3725
16771TIP3    H271729   0.196   0.947   4.777 -0.5962  0.7340 -0.0509
16772TIP3   OH271730   3.790   4.376  17.130  0.2110  0.1319  0.4656
16772TIP3    H171731   3.753   4.464  17.124  1.3458  0.7500  1.9430
16772TIP3    H271732   3.885   4.390  17.128  0.4133 -1.0982  0.4154
16773TIP3   OH271733   2.480   4.742  13.744  0.0023 -0.2318  0.3273
16773TIP3    H171734   2.447   4.781  13.663 -0.4213 -4.6388 -1.9346
16773TIP3    H271735   2.403   4.740  13.802 -1.2084 -1.6957 -1.2254
16774TIP3   OH271736   0.831   1.366  15.117  0.1670  0.0919 -0.1146
16774TIP3    H171737   0.767   1.295  15.110 -0.1402  0.3591 -0.0252
16774TIP3    H271738   0.913   1.326  15.089 -0.0735 -0.2071 -0.4158
16775TIP3   OH271739   1.415   4.795   4.013  0.1739  0.2216 -0.2507
16775TIP3    H171740   1.488   4.756   4.061  1.2666  0.2164 -1.8421
16775TIP3    H271741   1.367   4.845   4.079  1.8325  0.5426  0.7600
16776TIP3   OH271742   2.738   3.375  14.552 -0.2319 -0.3596 -0.0043
16776TIP3    H171743   2.682   3.308  14.513  1.8426 -2.2632  0.1226
16776TIP3    H271744   2.784   3.330  14.622 -1.7547  2.2663  2.9036
16777TIP3   OH271745   3.276   1.311   0.233 -0.6747  0.7248 -0.0109
16777TIP3    H171746   3.237   1.227   0.210  0.3899  0.0151  0.7259
16777TIP3    H271747   3.251   1.369   0.161 -0.3204 -0.5474 -1.1902
16778TIP3   OH271748   4.688   3.784   2.095  0.1814  0.0003  0.2009
16778TIP3    H171749   4.620   3.766   2.030 -0.7688 -1.3116  1.4858
16778TIP3    H271750   4.716   3.698   2.125  1.4016  0.5556  0.7597
16779TIP3   OH271751   5.675   0.147   1.212  0.2853  0.2356  0.4755
16779TIP3    H171752   5.730   0.215   1.174 -0.6930  0.3111 -0.8872
16779TIP3    H271753   5.603   0.194   1.252  0.0310  0.0430  0.2458
16780TIP3   OH271754   2.095   4.273  16.754  0.3905 -0.0122 -0.1768
16780TIP3    H171755   2.116   4.189  16.795 -0.9366  0.0034  0.5758
16780TIP3    H271756   2.098   4.337  16.825 -2.0178  0.0006 -0.0306
16781TIP3   OH271757   5.690   4.493  13.873 -0.0471 -0.2461  0.3816
16781TIP3    H171758   5.652   4.420  13.825 -1.9743 -0.3368  1.9083
16781TIP3    H271759   5.744   4.539  13.809 -0.7246 -1.6059 -1.2380
16782TIP3   OH271760   2.952   4.313   1.770  0.1110  0.4975  0.1150
16782TIP3    H171761   2.999   4.323   1.853  3.2124 -0.0064 -1.4472
16782TIP3    H271762   2.969   4.394   1.723 -0.1082  0.0791 -0.7043
16783TIP3   OH271763   2.821   3.828  17.002  0.3496  0.0566  0.5624
16783TIP3    H171764   2.829   3.768  16.927  1.4399 -0.2730  0.9297
16783TIP3    H271765   2.747   3.885  16.978 -0.5807 -1.2760  0.1086
16784TIP3   OH271766   2.728   4.641   1.844 -0.2575 -0.3025  0.2374
16784TIP3    H171767   2.656   4.695   1.877 -1.2334 -1.0762 -0.5674
16784TIP3    H271768   2.686   4.559   1.817  0.8974 -0.6770 -0.4829
16785TIP3   OH271769   0.470   4.316   4.786 -0.4485 -0.5203  0.3240
16785TIP3    H171770   0.512   4.254   4.727  0.8494 -1.0098  1.6827
16785TIP3    H271771   0.522   4.396   4.778  0.4851 -0.9576  1.6106
16786TIP3   OH271772   5.675   4.157  11.677 -0.2598  0.2570 -0.1154
16786TIP3    H171773   5.580   4.165  11.684 -0.4253 -0.7191 -0.9939
16786TIP3    H271774   5.690   4.124  11.588  0.9964  1.6835 -0.4886
16787TIP3   OH271775   0.284   4.151   6.437 -0.2162 -0.0135 -0.0459
16787TIP3    H171776   0.215   4.124   6.496  0.2968 -2.2550 -0.3646
16787TIP3    H271777   0.350   4.191   6.493 -0.6378 -0.2428  0.6211
16788TIP3   OH271778   2.356   3.381   1.800 -0.1754  0.2113 -0.0555
16788TIP3    H171779   2.299   3.395   1.724  0.2127  0.3762 -0.3210
16788TIP3    H271780   2.316   3.433   1.870 -1.4805 -1.2738  0.3439
16789TIP3   OH271781   3.684   5.161  11.624 -0.2360 -0.2504  0.4334
16789TIP3    H171782   3.672   5.237  11.567  0.2467 -1.4021 -1.3152
16789TIP3    H271783   3.628   5.094  11.585 -0.3866 -0.8985  1.7263
16790TIP3   OH271784   0.796   1.034   4.925 -0.3762 -0.1154  0.5287
16790TIP3    H171785   0.751   1.042   4.841 -1.3814  0.2684  1.0859
16790TIP3    H271786   0.731   1.061   4.990  0.9348  1.4015  1.2977
16791TIP3   OH271787   4.385   4.324   5.793 -0.1748  0.5029  0.1435
16791TIP3    H171788   4.366   4.343   5.885 -2.2635  1.7601 -0.4780
16791TIP3    H271789   4.426   4.403   5.760 -0.2639  0.3980 -0.2246
16792TIP3   OH271790   0.432   0.506   3.604 -0.0379 -0.2765  0.2990
16792TIP3    H171791   0.417   0.546   3.690  0.1535 -1.3382  0.8328
16792TIP3    H271792   0.430   0.412   3.619 -0.2610 -0.4901 -0.9114
16793TIP3   OH271793   0.075   5.083  15.799  0.2835  0.5918 -0.0885
16793TIP3    H171794   0.116   5.010  15.754  1.5602  1.3603 -0.2157
16793TIP3    H271795  -0.009   5.095  15.755  0.6963  0.1294 -1.0124
16794TIP3   OH271796   5.877   5.922  15.938 -0.0460  0.1909 -0.1493
16794TIP3    H171797   5.878   5.856  15.869  1.1466  0.8529 -0.7934
16794TIP3    H271798   5.798   5.974  15.920 -0.5097 -0.5000 -0.1580
16795TIP3   OH271799   1.289   5.959  15.296 -0.1213  0.2382 -0.0245
16795TIP3    H171800   1.309   6.002  15.380  0.3650 -0.7931  0.4079
16795TIP3    H271801   1.367   5.974  15.243  0.2395 -0.4891  0.2902
16796TIP3   OH271802   3.856   5.212  15.093 -0.3557  0.1872  0.2033
16796TIP3    H171803   3.810   5.173  15.167  0.9490  1.6482  1.8832
16796TIP3    H271804   3.948   5.191  15.109 -0.2689 -3.4838 -3.5545
16797TIP3   OH271805   5.988   3.246  14.019  0.1325 -0.3391  0.1800
16797TIP3    H171806   6.039   3.166  14.009 -1.4458 -1.4669  0.7457
16797TIP3    H271807   5.900   3.216  14.043 -0.7694  1.5173 -0.5693
16798TIP3   OH271808   4.716   3.469   3.014 -0.5291  0.5289  0.2709
16798TIP3    H171809   4.657   3.490   3.087 -0.2131  1.1872  0.3453
16798TIP3    H271810   4.804   3.474   3.052 -0.2323  2.7759 -0.5570
16799TIP3   OH271811   3.997   4.707   3.749  0.0240  0.5903  0.6674
16799TIP3    H171812   4.010   4.750   3.665 -2.0506  1.7409  0.8710
16799TIP3    H271813   4.077   4.724   3.798  0.3812  1.7743 -0.2908
16800TIP3   OH271814   6.709   6.113   4.922 -0.3156 -0.5816  0.4414
16800TIP3    H171815   6.672   6.058   4.992 -3.0744  0.8597  0.2445
16800TIP3    H271816   6.662   6.085   4.843  0.1865  0.2455 -0.1578
16801TIP3   OH271817   2.035   1.123  13.837  0.8466 -0.4210  0.2879
16801TIP3    H171818   2.064   1.088  13.922 -1.0227  3.1674  2.6693
16801TIP3    H271819   1.948   1.084  13.825  0.2652  0.5669  1.1187
16802TIP3   OH271820   5.642   0.959   3.923  0.5090  0.0824 -0.2655
16802TIP3    H171821   5.559   1.007   3.921  1.1974  1.3239 -0.3875
16802TIP3    H271822   5.622   0.876   3.881 -0.2803  1.0452 -1.9188
16803TIP3   OH271823   3.018   2.622  15.725 -0.1250 -0.0481 -0.4092
16803TIP3    H171824   2.995   2.696  15.668 -0.2969  0.4196  0.2546
16803TIP3    H271825   3.111   2.608  15.709 -0.2120 -0.0523 -0.9521
16804TIP3   OH271826   1.536   6.703  12.526 -0.0051  0.1072 -0.2875
16804TIP3    H171827   1.521   6.717  12.432  0.1848  0.4559 -0.2706
16804TIP3    H271828   1.613   6.757  12.545  0.1894 -0.2631 -0.0109
16805TIP3   OH271829   2.576   3.748   0.546  0.4784 -0.6231  0.0930
16805TIP3    H171830   2.493   3.783   0.577  0.3084 -2.2642  1.6868
16805TIP3    H271831   2.636   3.823   0.547  0.3637 -0.3522  4.1283
16806TIP3   OH271832   6.473   5.678   5.640  0.2592  0.1421  0.1580
16806TIP3    H171833   6.475   5.707   5.549  1.0672  1.4733  0.5831
16806TIP3    H271834   6.403   5.729   5.680  2.2445  2.3035  1.1169
16807TIP3   OH271835   6.419   6.321  16.021  0.0882 -0.1771 -0.5427
16807TIP3    H171836   6.367   6.243  16.003 -0.4176 -0.0199  0.2350
16807TIP3    H271837   6.355   6.391  16.030  0.4880  0.1727 -0.3908
16808TIP3   OH271838   5.432   6.253  17.207  0.1325  0.2330  0.8641
16808TIP3    H171839   5.462   6.341  17.185  2.6950 -0.5566  0.8297
16808TIP3    H271840   5.436   6.205  17.124 -2.4704  0.3264  0.6114
16809TIP3   OH271841   2.319   4.734   0.264 -0.1931  0.5409  0.3980
16809TIP3    H171842   2.347   4.643   0.270  0.2349  0.5493 -0.9754
16809TIP3    H271843   2.294   4.745   0.172  0.3781  1.9708  0.3810
16810TIP3   OH271844   5.694   4.195   4.540  0.0198 -0.2083 -0.4711
16810TIP3    H171845   5.763   4.256   4.567 -0.4446  0.6155 -1.0632
16810TIP3    H271846   5.670   4.148   4.619 -1.7272  2.5321  0.7687
16811TIP3   OH271847   3.250   5.013  14.933 -0.9495 -0.0433 -0.3489
16811TIP3    H171848   3.205   5.082  14.884  0.1260 -0.4847 -2.0417
16811TIP3    H271849   3.206   4.932  14.908 -1.3242 -0.1429  0.5768
16812TIP3   OH271850   2.768   2.137   0.832  0.0454  0.3567 -0.1210
16812TIP3    H171851   2.804   2.155   0.745 -2.2695  1.8404 -0.8625
16812TIP3    H271852   2.792   2.213   0.884  0.0751  0.2007  0.0966
16813TIP3   OH271853   6.155   3.416  14.778 -0.5699 -0.1614  0.6084
16813TIP3    H171854   6.193   3.348  14.721  0.9220 -0.9441  2.4356
16813TIP3    H271855   6.073   3.440  14.735 -0.6057 -2.3234 -0.6835
16814TIP3   OH271856   4.936   5.678   1.529  0.2288 -0.0112 -0.0749
16814TIP3    H171857   4.895   5.694   1.444  0.1689  1.4482  0.1910
16814TIP3    H271858   5.029   5.693   1.514  0.1983  0.4193  0.1413
16815TIP3   OH271859   3.135   0.614  15.876 -0.1074  0.4942 -0.2358
16815TIP3    H171860   3.065   0.550  15.862  0.4262 -0.1478 -0.0072
16815TIP3    H271861   3.195   0.572  15.937  0.9691  0.6642 -1.1332
16816TIP3   OH271862   4.069   3.860   3.091  0.2106  0.5793  0.0053
16816TIP3    H171863   4.036   3.774   3.116 -0.5823  1.0116  0.4996
16816TIP3    H271864   4.013   3.887   3.018 -0.2546  1.1232  0.5485
16817TIP3   OH271865   2.107   4.012  15.692  0.5904  0.0712 -0.5455
16817TIP3    H171866   2.138   4.034  15.604  1.5942  0.6745 -0.0645
16817TIP3    H271867   2.186   4.013  15.746  0.1470 -1.3811  0.1638
16818TIP3   OH271868   5.642   1.794  15.476  0.2353 -0.2878 -0.4019
16818TIP3    H171869   5.720   1.765  15.523  0.4423 -0.4068 -0.8121
16818TIP3    H271870   5.582   1.720  15.483  0.2501 -0.2902 -0.2940
16819TIP3   OH271871   1.144   2.741   0.740 -0.4586 -0.2172  0.4428
16819TIP3    H171872   1.135   2.668   0.678  0.4489 -0.4164  0.5376
16819TIP3    H271873   1.054   2.757   0.771 -1.0858  0.4531 -1.5492
16820TIP3   OH271874   4.524   3.441   2.462  0.3356  0.3933  0.6398
16820TIP3    H171875   4.517   3.528   2.422 -1.3950 -0.6511 -1.5333
16820TIP3    H271876   4.435   3.418   2.486  0.8317 -0.6427  1.5714
16821TIP3   OH271877   2.710   2.858  14.654  0.5585  0.0133  0.0204
16821TIP3    H171878   2.660   2.830  14.577  0.3730 -0.9500  0.4851
16821TIP3    H271879   2.797   2.879  14.619  0.4612 -0.3652 -0.4577
16822TIP3   OH271880   4.401   0.037  14.154 -0.0855  0.0704  0.2089
16822TIP3    H171881   4.396  -0.027  14.224  2.4697 -0.5728 -0.0705
16822TIP3    H271882   4.382  -0.013  14.074 -1.9471  0.5729  0.2969
16823TIP3   OH271883   0.162   5.972   3.171 -0.0914  0.1638 -0.1561
16823TIP3    H171884   0.122   6.005   3.252 -0.9903 -2.5458  0.6086
16823TIP3    H271885   0.134   6.035   3.104 -0.8259  1.5087  1.3200
16824TIP3   OH271886   2.874   5.611  16.256  0.1970 -0.1910 -0.2231
16824TIP3    H171887   2.919   5.652  16.182 -0.8219  0.0711 -0.7110
16824TIP3    H271888   2.833   5.684  16.302  0.2519 -0.4266  0.1990
16825TIP3   OH271889   6.564   1.041  13.607  0.1147 -0.5143 -0.3301
16825TIP3    H171890   6.504   1.021  13.680 -0.7835  1.3657 -0.4965
16825TIP3    H271891   6.577   0.957  13.563 -1.6259 -1.1701  0.3093
16826TIP3   OH271892   5.434   1.571   2.803 -0.1246  0.2062  0.3701
16826TIP3    H171893   5.465   1.565   2.893 -0.4183 -1.6317  0.3853
16826TIP3    H271894   5.356   1.515   2.800 -0.0795  0.1730 -1.0410
16827TIP3   OH271895   0.058   1.848  13.117  0.5614 -0.3262 -0.3771
16827TIP3    H171896   0.136   1.903  13.106 -1.3137  2.7152  0.4904
16827TIP3    H271897   0.032   1.862  13.208 -0.5894 -1.8848 -0.4297
16828TIP3   OH271898   2.099   1.118   4.868  0.0157  0.1351  0.0373
16828TIP3    H171899   2.008   1.089   4.861 -0.1376  0.9019 -1.8832
16828TIP3    H271900   2.103   1.169   4.948 -0.7226 -1.5972  1.2260
16829TIP3   OH271901   5.007   3.579   4.633  0.3072  0.5498 -0.0550
16829TIP3    H171902   5.053   3.583   4.717  1.4570  0.0941 -0.6417
16829TIP3    H271903   4.993   3.671   4.609 -0.9713  0.6978  1.1027
16830TIP3   OH271904   6.022   6.144   4.574 -0.0871  0.1748  0.5778
16830TIP3    H171905   5.938   6.098   4.562  0.5839 -0.8334 -0.4193
16830TIP3    H271906   6.034   6.193   4.493  0.3287  0.2348  0.6741
16831TIP3   OH271907   2.279   2.001  10.676 -0.1872  0.3059  0.3107
16831TIP3    H171908   2.336   1.962  10.611 -0.0714  0.0999  0.5328
16831TIP3    H271909   2.317   1.975  10.760 -0.3626  0.5248  0.4609
16832TIP3   OH271910   0.150   0.308   5.799 -0.1979  0.0918 -0.4589
16832TIP3    H171911   0.144   0.315   5.704 -2.0226  1.7553 -0.2807
16832TIP3    H271912   0.111   0.389   5.832  1.5856  0.1541  1.7187
16833TIP3   OH271913   2.387   1.999   4.250 -0.5572  0.0501  0.4205
16833TIP3    H171914   2.468   2.038   4.217 -0.0629 -0.6505  0.7702
16833TIP3    H271915   2.326   2.072   4.258  0.3501  0.7499  1.0742
16834TIP3   OH271916   1.385   3.455  15.819 -0.4356 -0.4390 -0.2412
16834TIP3    H171917   1.393   3.543  15.854 -1.3161 -0.8169  0.9823
16834TIP3    H271918   1.469   3.413  15.840 -0.5986 -0.3636  0.6061
16835TIP3   OH271919   6.315   3.963   2.206  0.2424  0.0822  0.6196
16835TIP3    H171920   6.389   3.998   2.158  0.0309 -1.3227 -0.8018
16835TIP3    H271921   6.354   3.914   2.279  0.6101  1.1464  1.1523
16836TIP3   OH271922   6.192   5.779   0.532  0.7042  0.5708  0.2081
16836TIP3    H171923   6.170   5.827   0.612  1.3843  0.6982  0.3234
16836TIP3    H271924   6.147   5.828   0.463 -1.3662 -0.5587  0.6788
16837TIP3   OH271925   6.343   4.209   0.738  0.4539 -0.3694 -0.5748
16837TIP3    H171926   6.345   4.230   0.645 -0.8397  1.3398 -0.2649
16837TIP3    H271927   6.280   4.270   0.776  0.9205 -1.0284  1.4313
16838TIP3   OH271928   3.333   6.491   5.659 -0.2823  0.2338 -0.0422
16838TIP3    H171929   3.365   6.577   5.686 -0.4344  0.9671 -2.0438
16838TIP3    H271930   3.241   6.491   5.686 -0.0660  0.3676  0.7059
16839TIP3   OH271931   1.028   4.385   2.201 -0.6117 -0.0466 -0.0207
16839TIP3    H171932   1.053   4.435   2.278 -1.3316  0.4227 -0.0697
16839TIP3    H271933   0.965   4.442   2.156 -2.4955 -1.5200  0.6018
16840TIP3   OH271934   2.289   0.654  16.845  0.1586 -0.1712 -0.1791
16840TIP3    H171935   2.315   0.563  16.834  2.5464  0.2508  1.1676
16840TIP3    H271936   2.324   0.699  16.768  0.8033 -0.0858  0.1564
16841TIP3   OH271937   4.300   3.024   4.327 -0.2195  0.1700  0.2300
16841TIP3    H171938   4.365   2.956   4.312 -1.3481 -0.5936 -1.5270
16841TIP3    H271939   4.346   3.106   4.307  0.3486 -0.3192 -0.5284
16842TIP3   OH271940   4.557   6.577  15.825 -0.8381  0.0774 -0.4313
16842TIP3    H171941   4.614   6.587  15.748  0.4551 -1.3029  0.2912
16842TIP3    H271942   4.578   6.490  15.859  0.0750  1.3345  2.5766
16843TIP3   OH271943   6.337   1.196   2.842  0.2992  0.5651 -0.3659
16843TIP3    H171944   6.308   1.286   2.860  3.4017  1.6062  0.1028
16843TIP3    H271945   6.420   1.189   2.889  0.1797 -2.5862 -0.4496
16844TIP3   OH271946   3.903   2.098   1.684 -0.6524  0.1424  0.6013
16844TIP3    H171947   3.982   2.047   1.702 -1.7121 -1.4661  0.8698
16844TIP3    H271948   3.831   2.043   1.715 -2.1747 -0.0270 -2.8103
16845TIP3   OH271949   2.672   3.485   5.569 -0.0411 -0.6846 -0.0948
16845TIP3    H171950   2.757   3.440   5.567 -0.0549 -0.6955 -0.9999
16845TIP3    H271951   2.674   3.536   5.649  0.7840 -0.7685 -0.0490
16846TIP3   OH271952   5.064   6.203  12.071  0.2645 -0.1378 -0.6345
16846TIP3    H171953   5.030   6.116  12.089  0.5743  0.0826  1.1955
16846TIP3    H271954   5.103   6.196  11.984  0.8499 -1.9942 -0.2641
16847TIP3   OH271955   2.931   0.884   3.759 -0.1443 -0.5449  0.2629
16847TIP3    H171956   2.917   0.959   3.702 -0.9792 -1.0365 -0.2146
16847TIP3    H271957   2.969   0.920   3.839  2.1566  0.0300 -1.0141
16848TIP3   OH271958   3.966   5.106   5.224  0.0183 -0.3136  0.2000
16848TIP3    H171959   3.931   5.164   5.156 -0.4265 -0.8755 -0.0524
16848TIP3    H271960   4.061   5.120   5.220 -0.0022 -0.3324 -0.5344
16849TIP3   OH271961   5.419   3.214  15.836 -0.5071 -0.1497 -0.6571
16849TIP3    H171962   5.439   3.230  15.929 -0.5776 -0.2067 -0.6320
16849TIP3    H271963   5.340   3.160  15.838  0.2684 -1.2977 -0.7269
16850TIP3   OH271964   3.468   2.668  16.978 -0.1809  0.1638 -0.1087
16850TIP3    H171965   3.529   2.594  16.983 -0.9485 -0.4486  0.6391
16850TIP3    H271966   3.384   2.631  17.003 -0.6376  1.2458  0.0222
16851TIP3   OH271967   3.419   6.176   1.118 -0.0698  0.8814  0.0095
16851TIP3    H171968   3.458   6.104   1.068  0.2342  1.9888 -1.4191
16851TIP3    H271969   3.353   6.134   1.173  0.1290 -0.4914 -0.7520
16852TIP3   OH271970   1.471   0.080  16.668 -0.2898 -0.1179 -0.0923
16852TIP3    H171971   1.416   0.018  16.715  1.4811 -1.3564  0.4933
16852TIP3    H271972   1.481   0.155  16.726 -3.4226  1.3906 -1.2860
16853TIP3   OH271973   3.361   6.718  15.199 -0.7188  0.3389 -0.2331
16853TIP3    H171974   3.435   6.773  15.174 -1.0177  1.0218  0.3663
16853TIP3    H271975   3.303   6.720  15.123 -0.0493 -0.3496 -0.7803
16854TIP3   OH271976   1.951   3.255   1.516 -0.3043  0.6871 -0.0919
16854TIP3    H171977   1.955   3.258   1.612  1.0514 -0.3107 -0.0875
16854TIP3    H271978   2.000   3.176   1.492 -2.9218 -0.6282 -1.5120
16855TIP3   OH271979   1.951   2.269   4.147  0.0980 -0.1418 -0.0550
16855TIP3    H171980   1.962   2.176   4.125  0.3288 -0.4513  1.2907
16855TIP3    H271981   2.026   2.312   4.105  1.4499 -0.9518  1.4392
16856TIP3   OH271982   0.140   1.237   0.470 -0.0765  0.1247  0.0016
16856TIP3    H171983   0.089   1.288   0.407 -0.6359  0.6382  0.8540
16856TIP3    H271984   0.206   1.298   0.502 -1.0204  0.4874  1.3497
16857TIP3   OH271985   4.202   0.393  10.668 -0.6338 -0.1729  0.2961
16857TIP3    H171986   4.175   0.311  10.709 -0.9201 -0.1387  0.1735
16857TIP3    H271987   4.129   0.418  10.612 -1.0470  0.7760  1.2253
16858TIP3   OH271988   4.522   0.256   1.560  0.2012 -0.1470  0.0947
16858TIP3    H171989   4.491   0.273   1.472 -1.9243 -1.1240  0.5821
16858TIP3    H271990   4.473   0.316   1.616  0.2973 -0.6692  0.7643
16859TIP3   OH271991   2.436   5.105  13.229 -0.0857  0.3270 -0.0774
16859TIP3    H171992   2.444   5.021  13.183  0.9099  0.6984 -0.6228
16859TIP3    H271993   2.345   5.108  13.258 -0.3883 -0.5190 -0.8756
16860TIP3   OH271994   5.100   4.305  11.319  0.3129  0.1528 -0.0014
16860TIP3    H171995   5.109   4.211  11.302  1.2210 -0.3178  2.6152
16860TIP3    H271996   5.056   4.339  11.242 -0.8274 -2.5713 -0.6742
16861TIP3   OH271997   3.659   1.767   1.383 -1.0792 -0.3713  0.1511
16861TIP3    H171998   3.594   1.772   1.453 -3.6287  3.4694 -2.1183
16861TIP3    H271999   3.703   1.852   1.385  0.4310 -1.0584 -1.4655
16862TIP3   OH272000   0.043   5.047  11.335 -0.0932  0.3899 -0.4234
16862TIP3    H172001  -0.002   5.043  11.251  0.4553  1.1650 -0.7629
16862TIP3    H272002   0.136   5.038  11.313  0.1954  2.1895 -0.0840
16863TIP3   OH272003   1.358   4.442  12.817  0.0625  0.4584  0.0197
16863TIP3    H172004   1.334   4.382  12.887  1.4846  1.1337  1.1505
16863TIP3    H272005   1.411   4.389  12.757  0.1219  0.2343  0.2660
16864TIP3   OH272006   2.909   2.780  13.583  0.1974  0.3558 -0.7121
16864TIP3    H172007   2.857   2.857  13.558  0.4520  0.9587  0.5598
16864TIP3    H272008   2.999   2.808  13.570  0.2843  0.1636 -0.5090
16865TIP3   OH272009   5.909   4.158   2.171 -0.1390 -0.1070  0.4911
16865TIP3    H172010   5.996   4.156   2.132 -1.1555 -0.7525 -1.8816
16865TIP3    H272011   5.915   4.227   2.238  2.1423 -0.0919  0.3506
16866TIP3   OH272012   1.608   2.695   4.870 -0.3914 -0.3224 -0.3205
16866TIP3    H172013   1.604   2.601   4.890  0.3508 -0.6849 -1.7116
16866TIP3    H272014   1.517   2.719   4.853 -0.7040 -0.5706  0.8994
16867TIP3   OH272015   4.737   1.477  14.039 -0.2489  0.1508 -0.1524
16867TIP3    H172016   4.657   1.510  14.081  0.1399 -0.0353  0.7683
16867TIP3    H272017   4.708   1.403  13.986 -0.9539  1.1833 -1.2791
16868TIP3   OH272018   4.688   1.933   0.628  0.1390 -0.4289 -0.1904
16868TIP3    H172019   4.704   1.842   0.604 -1.1363 -0.3119 -1.5853
16868TIP3    H272020   4.635   1.928   0.707  0.9483 -0.8666  0.3414
16869TIP3   OH272021   6.629   6.166  16.507  0.5455  0.1785  0.2311
16869TIP3    H172022   6.647   6.246  16.555 -0.1058  0.1268  0.5645
16869TIP3    H272023   6.555   6.187  16.451  1.5883  0.3890 -1.1327
16870TIP3   OH272024   0.982   4.683   3.496  0.6003 -0.4708 -0.0993
16870TIP3    H172025   0.946   4.752   3.550 -1.1404 -1.4846  0.1238
16870TIP3    H272026   1.025   4.623   3.557 -0.7315 -1.2385  0.1169
16871TIP3   OH272027   4.814   2.007  16.513 -0.3985  0.4451  0.2541
16871TIP3    H172028   4.844   2.086  16.558  0.3036  0.2335  0.1623
16871TIP3    H272029   4.719   2.010  16.521 -0.2822  0.1912  2.1251
16872TIP3   OH272030   5.793   5.080  12.292 -0.1038 -0.0529 -0.0910
16872TIP3    H172031   5.722   5.034  12.336 -0.4663  1.6820  1.2642
16872TIP3    H272032   5.772   5.073  12.199 -1.9501  0.2087  0.2584
16873TIP3   OH272033   2.907   1.160   5.069  1.0449  0.3230  0.2820
16873TIP3    H172034   2.871   1.137   5.155  0.7431  0.9616  0.3378
16873TIP3    H272035   2.966   1.234   5.087 -0.2880  1.5588 -0.2685
16874TIP3   OH272036   5.401   3.076  15.095  0.1316  0.5139  0.1034
16874TIP3    H172037   5.399   3.003  15.034  3.0782  0.1815  0.2684
16874TIP3    H272038   5.357   3.043  15.174  0.1870 -0.5714 -0.3136
16875TIP3   OH272039   1.472   0.512   5.848  0.4100  0.2769  0.3144
16875TIP3    H172040   1.559   0.479   5.867 -0.1927 -0.1214  2.7277
16875TIP3    H272041   1.414   0.462   5.906 -1.2702  1.4205 -0.2907
16876TIP3   OH272042   2.021   4.663   5.041  0.3961  0.4004 -0.0460
16876TIP3    H172043   2.080   4.691   4.971 -0.3791  2.2384  0.0010
16876TIP3    H272044   1.978   4.585   5.005  0.8254  0.6585 -1.1639
16877TIP3   OH272045   5.025   4.443  13.842 -0.2117  0.0910 -0.2342
16877TIP3    H172046   5.002   4.354  13.815 -1.2142  0.5133 -0.8473
16877TIP3    H272047   5.120   4.441  13.851 -0.4016 -1.8092  2.6728
16878TIP3   OH272048   4.072   1.168  16.783 -0.6134  0.4602  0.1480
16878TIP3    H172049   4.102   1.188  16.871  0.1217  0.6246 -0.1348
16878TIP3    H272050   4.103   1.242  16.730 -1.2751  0.4964 -0.2042
16879TIP3   OH272051   5.549   2.377   3.162  0.0483  0.3431  0.1046
16879TIP3    H172052   5.611   2.340   3.225  0.8312  0.5199 -0.5484
16879TIP3    H272053   5.507   2.300   3.123  2.0877  0.0121 -1.6773
16880TIP3   OH272054   5.749   6.623  15.557  0.0351  0.3854  0.0757
16880TIP3    H172055   5.713   6.556  15.498 -0.4826  0.4289  0.3382
16880TIP3    H272056   5.828   6.583  15.593 -0.1290  0.0147  0.0306
16881TIP3   OH272057   0.047   2.465  11.981  0.2998  0.2090 -0.0008
16881TIP3    H172058   0.024   2.375  12.006 -0.1566  0.2150 -0.3694
16881TIP3    H272059   0.134   2.458  11.942 -0.1987 -0.2735 -1.0906
16882TIP3   OH272060   1.567   0.420  13.663 -0.1675 -0.0212 -0.1419
16882TIP3    H172061   1.618   0.351  13.621 -2.7875 -2.8279  0.9605
16882TIP3    H272062   1.632   0.487  13.686  2.2467 -1.2743 -2.7980
16883TIP3   OH272063   1.219   3.970   1.584 -0.4000 -0.1246  0.1035
16883TIP3    H172064   1.212   3.885   1.541 -1.5511  0.7203 -1.5138
16883TIP3    H272065   1.151   3.968   1.652  0.2289 -0.8274  0.7274
16884TIP3   OH272066   0.296   3.095   4.714  0.2910  0.1288 -0.0369
16884TIP3    H172067   0.268   3.025   4.772 -0.1139  0.8048  0.6036
16884TIP3    H272068   0.372   3.133   4.757 -1.3314  2.0989  1.2690
16885TIP3   OH272069   0.268   5.264   5.911 -0.3196 -0.2495  0.0048
16885TIP3    H172070   0.204   5.221   5.968 -0.8672 -2.6994 -2.2632
16885TIP3    H272071   0.340   5.202   5.903 -0.1120  0.1352 -1.6816
16886TIP3   OH272072   3.979   6.544   3.740 -0.1251 -0.3883 -0.2345
16886TIP3    H172073   3.963   6.578   3.828 -0.4493 -0.7458 -0.1497
16886TIP3    H272074   3.896   6.502   3.715  0.3346 -1.3371 -0.2274
16887TIP3   OH272075   2.321   5.762  15.853  0.3148  0.1901 -0.3025
16887TIP3    H172076   2.337   5.853  15.879 -0.7095  0.0710  0.7991
16887TIP3    H272077   2.397   5.714  15.887  0.1782  0.4188  0.3270
16888TIP3   OH272078   1.839   6.100  14.510  0.2634 -0.5135 -0.2522
16888TIP3    H172079   1.787   6.116  14.588 -1.0813  0.0124 -1.2172
16888TIP3    H272080   1.777   6.061  14.448  0.7376  1.0694 -1.7938
16889TIP3   OH272081   4.907   5.531  11.646  0.2383 -0.0586 -0.4797
16889TIP3    H172082   4.931   5.477  11.722  2.1687  1.5027  0.0844
16889TIP3    H272083   4.833   5.583  11.677  0.5618  0.0614  0.1097
16890TIP3   OH272084   5.343   5.589  13.998 -0.0581  0.6968  0.5957
16890TIP3    H172085   5.423   5.550  13.962 -1.0848 -2.7128  1.6382
16890TIP3    H272086   5.290   5.610  13.920  0.4012 -0.4357 -0.0485
16891TIP3   OH272087   1.463   1.952  16.064  0.1906  0.6227 -0.1993
16891TIP3    H172088   1.485   2.039  16.031  1.9152 -0.6703 -2.7661
16891TIP3    H272089   1.401   1.917  16.001  0.7292 -0.5858 -0.0794
16892TIP3   OH272090   6.449   2.985  11.502  0.6251  0.0685  0.0150
16892TIP3    H172091   6.423   3.067  11.544 -0.3714  0.2939 -0.9780
16892TIP3    H272092   6.391   2.919  11.539  0.9258 -0.0554  0.2683
16893TIP3   OH272093   2.308   4.435  13.785  0.2352 -0.0569  0.2800
16893TIP3    H172094   2.272   4.347  13.788 -0.2370  0.0919 -0.6145
16893TIP3    H272095   2.333   4.448  13.693  2.0017  0.0757  0.7293
16894TIP3   OH272096   6.365   2.091   3.576 -0.1050 -0.3177 -0.5141
16894TIP3    H172097   6.308   2.039   3.633 -0.0894  1.8776  1.6768
16894TIP3    H272098   6.452   2.054   3.588  0.0295  0.5363  1.5702
16895TIP3   OH272099   1.961   1.834   4.342  0.4667 -0.2154 -0.3680
16895TIP3    H172100   1.899   1.793   4.402  2.0580 -0.0665  1.4442
16895TIP3    H272101   2.042   1.784   4.352  1.5536  1.4616 -0.3763
16896TIP3   OH272102   3.162   4.345  16.562  0.9240  0.0860 -0.3853
16896TIP3    H172103   3.077   4.306  16.546  1.5973 -0.5783 -2.7732
16896TIP3    H272104   3.183   4.323  16.653 -1.2296 -0.0697  0.1204
16897TIP3   OH272105   4.708   6.220  12.065  0.1897  0.5010 -0.4355
16897TIP3    H172106   4.748   6.134  12.078 -1.5219 -0.4466 -1.0860
16897TIP3    H272107   4.747   6.253  11.984 -0.7655 -0.7255 -1.4519
16898TIP3   OH272108   3.308   0.624  16.812 -0.1749 -0.6258  0.2796
16898TIP3    H172109   3.274   0.613  16.900 -1.6929  0.4990 -0.1049
16898TIP3    H272110   3.390   0.672  16.823 -1.5117  1.6455  1.0129
16899TIP3   OH272111   6.765   3.640   0.471  0.3744 -0.1285 -0.3713
16899TIP3    H172112   6.734   3.723   0.433 -1.2759 -1.0193 -1.0546
16899TIP3    H272113   6.851   3.627   0.431  1.4381  2.0361  0.9983
16900TIP3   OH272114   6.203   1.678  13.476  0.8999 -0.1946 -0.0448
16900TIP3    H172115   6.248   1.645  13.399 -1.2136 -0.3251 -1.3218
16900TIP3    H272116   6.233   1.768  13.485  0.1246  0.3159 -1.9686
16901TIP3   OH272117   1.755   0.519   0.886 -0.3107 -0.0761  0.1593
16901TIP3    H172118   1.729   0.437   0.929 -1.4860 -0.2933 -0.9143
16901TIP3    H272119   1.677   0.547   0.839 -0.5287  2.6358  1.9046
16902TIP3   OH272120   0.839   2.407   1.574 -0.2189  0.0822 -0.1900
16902TIP3    H172121   0.826   2.471   1.503  0.1427  0.3063 -0.0530
16902TIP3    H272122   0.916   2.357   1.547  1.5466  1.8538  1.2573
16903TIP3   OH272123   5.547   2.814   5.096  0.2816  0.3971  0.2310
16903TIP3    H172124   5.608   2.887   5.105 -0.7474  1.3867 -0.5049
16903TIP3    H272125   5.592   2.751   5.040  1.4635  0.1227  1.4450
16904TIP3   OH272126   5.749   0.026   0.359 -0.1242 -0.1448  0.1434
16904TIP3    H172127   5.714  -0.044   0.304 -0.1334  0.4708 -0.6505
16904TIP3    H272128   5.728  -0.001   0.448  0.9475 -1.7479 -0.0498
16905TIP3   OH272129   0.623   2.673   3.350  0.0825 -0.1589  0.0596
16905TIP3    H172130   0.529   2.684   3.336  0.5440  1.9295 -2.0065
16905TIP3    H272131   0.642   2.723   3.429 -0.3927  0.4238 -0.1860
16906TIP3   OH272132   2.674   3.373  12.154 -0.0717 -0.3698  0.5106
16906TIP3    H172133   2.750   3.396  12.101 -1.5807  0.8857 -1.2192
16906TIP3    H272134   2.656   3.281  12.132  0.2956 -0.3411  0.0816
16907TIP3   OH272135   3.689   0.047   0.302  0.6213 -0.2872 -0.8034
16907TIP3    H172136   3.770   0.013   0.264  1.2426  1.0371 -0.7165
16907TIP3    H272137   3.717   0.120   0.357 -0.5506 -0.3833 -0.0533
16908TIP3   OH272138   1.789   2.076   2.713 -0.6560 -0.0634  0.5730
16908TIP3    H172139   1.846   1.999   2.717  0.7290  0.9178  0.3289
16908TIP3    H272140   1.744   2.069   2.629  0.3288 -0.0228  0.0350
16909TIP3   OH272141   5.738   5.255  16.615  0.7320  0.1594  0.2050
16909TIP3    H172142   5.653   5.244  16.570  0.5798  1.6209  0.0988
16909TIP3    H272143   5.742   5.181  16.676  0.6313 -1.5054 -1.6803
16910TIP3   OH272144   1.699   6.011   2.877 -0.6718  0.3658  0.6549
16910TIP3    H172145   1.676   6.070   2.948  0.8146  2.4080 -0.4413
16910TIP3    H272146   1.793   5.996   2.887 -0.6654 -0.2527 -0.1948
16911TIP3   OH272147   2.304   4.077   5.594  0.0146  0.1681  0.0739
16911TIP3    H172148   2.239   4.129   5.641 -1.3722 -4.0614  3.5327
16911TIP3    H272149   2.384   4.086   5.646 -0.4277 -1.4019  1.1360
16912TIP3   OH272150   0.643   5.363  11.636 -0.0499 -0.4356 -0.0851
16912TIP3    H172151   0.733   5.369  11.669  0.3567  1.2874 -1.3365
16912TIP3    H272152   0.591   5.339  11.712  1.3627 -0.6383  0.8515
16913TIP3   OH272153   5.115   6.439   5.458 -0.1822 -0.0751  0.6354
16913TIP3    H172154   5.096   6.532   5.448  1.5149  0.1507 -1.0714
16913TIP3    H272155   5.143   6.430   5.549 -0.4507  1.0621  0.8401
16914TIP3   OH272156   2.691   0.510  12.833  0.0303  0.0795  0.1626
16914TIP3    H172157   2.764   0.466  12.790  0.9049  0.4443  1.2481
16914TIP3    H272158   2.729   0.589  12.871 -1.0262  0.5260  0.3228
16915TIP3   OH272159   6.630   1.376  13.886 -0.1424 -0.2928 -0.2898
16915TIP3    H172160   6.683   1.452  13.910 -0.4707  0.2636 -1.2982
16915TIP3    H272161   6.683   1.301  13.913  0.5184  0.2763  0.0237
16916TIP3   OH272162   5.080   3.715  15.341 -0.6761  0.6990 -0.3071
16916TIP3    H172163   5.048   3.630  15.310 -1.1893  0.1743  1.5661
16916TIP3    H272164   5.168   3.723  15.302 -0.2110 -1.1525  0.2777
16917TIP3   OH272165   3.686   6.162  14.163 -0.4541  0.3248 -0.4098
16917TIP3    H172166   3.696   6.256  14.157 -0.4822  0.3347 -0.3064
16917TIP3    H272167   3.767   6.131  14.204 -0.4806  0.3145 -0.3639
16918TIP3   OH272168   0.281   6.040  13.969  0.4501  0.1646 -0.0336
16918TIP3    H172169   0.195   6.011  13.999 -0.6520  2.4068 -0.8345
16918TIP3    H272170   0.316   6.092  14.041  2.1446 -2.4244  1.1476
16919TIP3   OH272171   5.379   5.589   4.984  0.1105 -0.2047 -0.3340
16919TIP3    H172172   5.430   5.521   5.027 -0.4530  0.0314  0.7530
16919TIP3    H272173   5.432   5.669   4.995 -0.5084  0.0671  0.9130
16920TIP3   OH272174   5.991   1.032  14.300  0.2131  0.2104 -0.7921
16920TIP3    H172175   6.070   1.056  14.251  0.7891 -1.9974 -1.0213
16920TIP3    H272176   5.921   1.032  14.235  0.3127  0.6031 -0.9058
16921TIP3   OH272177   6.319   5.642  15.572  0.5365 -0.2194  0.2224
16921TIP3    H172178   6.325   5.738  15.577 -0.0673 -0.1947  0.5843
16921TIP3    H272179   6.339   5.612  15.660  1.7920 -0.5009 -0.1374
16922TIP3   OH272180   0.506   1.826  12.455 -0.5324 -0.2429  0.0629
16922TIP3    H172181   0.565   1.762  12.496 -0.2204 -1.4528 -2.1075
16922TIP3    H272182   0.523   1.817  12.361 -3.3891  0.1492 -0.5762
16923TIP3   OH272183   4.197   5.114   3.915 -0.4693  0.2000  0.4441
16923TIP3    H172184   4.112   5.157   3.904 -0.9922 -0.9223  0.0043
16923TIP3    H272185   4.180   5.040   3.973 -0.2271 -1.2158 -1.2141
16924TIP3   OH272186   6.602   1.997   5.049 -0.3503 -0.3348 -0.1338
16924TIP3    H172187   6.642   2.066   5.103 -0.8095  1.6223 -2.1855
16924TIP3    H272188   6.628   2.017   4.960 -1.1636 -2.4081 -0.9161
16925TIP3   OH272189   4.819   0.762   6.196 -0.6375  0.4459  0.1634
16925TIP3    H172190   4.897   0.787   6.245 -0.0609 -0.4045 -0.3052
16925TIP3    H272191   4.842   0.779   6.105 -0.8197 -0.2800 -0.0200
16926TIP3   OH272192   2.426   3.774  12.610 -0.2615  0.1108  0.1300
16926TIP3    H172193   2.445   3.686  12.643  1.1019  0.9536  1.7248
16926TIP3    H272194   2.480   3.782  12.532 -0.0860 -0.3141  0.2041
16927TIP3   OH272195   5.839   2.176  15.352 -0.6175  0.1090 -0.6136
16927TIP3    H172196   5.931   2.155  15.339 -0.0999 -0.7135  3.0764
16927TIP3    H272197   5.834   2.271  15.341  1.5945  0.7577  2.6258
16928TIP3   OH272198   0.452   0.044  15.569  0.0391 -0.2765  0.1603
16928TIP3    H172199   0.464  -0.045  15.602 -0.9949  0.0857  1.6320
16928TIP3    H272200   0.500   0.099  15.631  0.7772  0.2034 -0.8092
16929TIP3   OH272201   6.667   4.244   2.503  0.1492 -0.1432 -0.4752
16929TIP3    H172202   6.604   4.202   2.562 -0.3236  0.4794 -0.5329
16929TIP3    H272203   6.713   4.170   2.462 -0.5414 -0.6106 -0.4374
16930TIP3   OH272204   4.505   4.873   3.748  0.0890  0.1895  0.0202
16930TIP3    H172205   4.559   4.852   3.825  1.0661 -0.4791 -0.8146
16930TIP3    H272206   4.497   4.968   3.750  0.9119  0.2660  0.4375
16931TIP3   OH272207   4.616   5.097  16.780  0.3767 -0.1902  0.5337
16931TIP3    H172208   4.680   5.032  16.808 -0.0168 -1.0999 -0.5936
16931TIP3    H272209   4.533   5.067  16.817  0.2728 -0.0615  0.4082
16932TIP3   OH272210   4.524   0.866  14.481  0.0213 -0.3876  0.1476
16932TIP3    H172211   4.481   0.859  14.567  0.6329  0.7532  0.5602
16932TIP3    H272212   4.556   0.956  14.477  0.0994 -0.4549 -1.2439
16933TIP3   OH272213   1.818   1.901  16.695 -0.2902  0.1515 -0.2708
16933TIP3    H172214   1.871   1.856  16.629 -0.3377  2.1113 -1.7412
16933TIP3    H272215   1.881   1.926  16.763  0.5142  1.4425 -1.4455
16934TIP3   OH272216   0.447   2.548   0.808 -0.5932  0.1513 -0.4360
16934TIP3    H172217   0.477   2.457   0.808 -0.0178  0.2425  2.2202
16934TIP3    H272218   0.431   2.569   0.716  0.4030 -2.2468 -1.2258
16935TIP3   OH272219   2.963   1.715  16.063 -0.2825 -0.4537 -0.1530
16935TIP3    H172220   3.028   1.729  15.994  1.4664 -2.9967  0.7913
16935TIP3    H272221   3.002   1.755  16.141 -1.5372  1.0698 -0.2699
16936TIP3   OH272222   5.204   3.096  15.580 -0.3973  0.4124 -0.1053
16936TIP3    H172223   5.216   3.164  15.513 -0.7433  0.8445  0.2678
16936TIP3    H272224   5.222   3.014  15.534 -1.0635  0.6719 -0.8438
16937TIP3   OH272225   3.425   2.499  16.462  0.0004  0.3512  0.2030
16937TIP3    H172226   3.515   2.466  16.471 -0.2824 -0.3064  0.6698
16937TIP3    H272227   3.393   2.507  16.551 -0.8331 -0.6359  0.0067
16938TIP3   OH272228   5.338   1.831  10.240 -0.0487  0.3432 -0.5798
16938TIP3    H172229   5.366   1.827  10.332  0.0280  3.0267 -0.3967
16938TIP3    H272230   5.276   1.759  10.231 -0.6423  0.4667  1.8036
16939TIP3   OH272231   4.661   2.961   0.253  0.1123  0.6095 -0.4818
16939TIP3    H172232   4.705   2.930   0.174  0.2572  0.3149 -0.2848
16939TIP3    H272233   4.575   2.920   0.251 -0.2616  1.3905 -1.0028
16940TIP3   OH272234   5.242   1.087  13.128 -0.2620  0.0772  0.7209
16940TIP3    H172235   5.238   1.017  13.193 -0.0001 -0.6626 -0.0547
16940TIP3    H272236   5.170   1.068  13.067  1.8116 -1.4636 -1.4055
16941TIP3   OH272237   6.539   6.436  12.112  0.0058  0.3679 -0.6434
16941TIP3    H172238   6.609   6.484  12.067  0.6437  0.2157  0.1756
16941TIP3    H272239   6.514   6.493  12.184 -1.8751  1.1789 -1.8705
16942TIP3   OH272240   3.954   3.362   0.652  0.0419 -0.1072  0.6043
16942TIP3    H172241   3.988   3.316   0.575  0.4138  0.7884  0.2162
16942TIP3    H272242   3.941   3.293   0.718 -1.4927 -1.0692 -0.6497
16943TIP3   OH272243   2.964   3.786   3.471 -0.6590  0.0434  0.3379
16943TIP3    H172244   3.019   3.862   3.489 -1.9538  0.5134  2.8097
16943TIP3    H272245   2.886   3.822   3.429 -0.5192 -0.1732 -0.1129
16944TIP3   OH272246   1.427   2.831  11.917 -0.2953 -0.2752  0.6641
16944TIP3    H172247   1.435   2.821  11.822 -0.1201  0.7297  0.5620
16944TIP3    H272248   1.353   2.892  11.929  0.0397  0.0488  1.1387
16945TIP3   OH272249   1.537   5.246   2.913 -0.3444  0.1785 -0.2889
16945TIP3    H172250   1.495   5.205   2.837  1.8798  0.9449 -2.0491
16945TIP3    H272251   1.609   5.188   2.934  0.6475  1.3074 -0.4830
16946TIP3   OH272252   4.308   3.722   4.126 -0.6470  0.1801  0.1345
16946TIP3    H172253   4.240   3.789   4.125 -1.8114 -0.9065 -2.3022
16946TIP3    H272254   4.260   3.639   4.123  0.7699 -0.6600 -0.6920
16947TIP3   OH272255   5.432   4.215   5.747 -0.3558  0.1135  0.5844
16947TIP3    H172256   5.479   4.238   5.668 -0.5225  1.7605  0.9258
16947TIP3    H272257   5.375   4.142   5.721  0.7289 -0.4144 -0.3837
16948TIP3   OH272258   1.899   6.131  15.716 -0.0227  0.6366 -0.7576
16948TIP3    H172259   1.916   6.193  15.786 -0.3988  0.2982 -0.3621
16948TIP3    H272260   1.876   6.050  15.760 -0.8082  0.5702 -1.2690
16949TIP3   OH272261   4.197   5.274   2.057 -0.5281 -0.0994  0.0931
16949TIP3    H172262   4.245   5.196   2.029 -0.3095  0.7096 -1.9784
16949TIP3    H272263   4.265   5.332   2.093 -0.7330 -0.9313  1.9187
16950TIP3   OH272264   1.902   2.431   1.351  0.1342  0.1065 -0.0327
16950TIP3    H172265   1.875   2.481   1.428 -0.8066  0.8847 -0.8521
16950TIP3    H272266   1.995   2.453   1.340 -0.1263  1.2181 -0.0439
16951TIP3   OH272267   2.358   2.128  10.993  0.1905 -0.2382  0.2964
16951TIP3    H172268   2.408   2.175  10.926 -0.2094  0.1507  0.2603
16951TIP3    H272269   2.364   2.036  10.968 -1.0904  0.0100 -1.0810
16952TIP3   OH272270   4.550   0.490   4.269  0.2151  0.2243 -0.7132
16952TIP3    H172271   4.543   0.415   4.328 -1.3397  0.4811 -0.5314
16952TIP3    H272272   4.632   0.475   4.221  1.8379  0.3005  1.8656
16953TIP3   OH272273   1.875   0.614  11.254 -0.2981 -0.2025 -0.2387
16953TIP3    H172274   1.875   0.709  11.242 -1.1398 -0.3534 -1.6187
16953TIP3    H272275   1.851   0.601  11.346 -1.2274  0.9018 -0.3032
16954TIP3   OH272276   1.448   5.435  16.121  0.1438 -0.1429 -0.5570
16954TIP3    H172277   1.499   5.516  16.115 -0.4967  0.3049 -0.1127
16954TIP3    H272278   1.368   5.460  16.167  1.2398 -1.6505  2.4718
16955TIP3   OH272279   1.991   4.561  15.769  0.2216 -0.2137  0.2402
16955TIP3    H172280   2.031   4.647  15.780 -0.5143  0.2637 -0.6592
16955TIP3    H272281   1.933   4.553  15.845  0.3249  0.0761  0.3536
16956TIP3   OH272282   5.299   5.757   4.330  0.2735  0.4161 -0.6004
16956TIP3    H172283   5.367   5.722   4.387 -1.2142  2.1374  2.4993
16956TIP3    H272284   5.224   5.699   4.343  0.4164 -0.2404 -2.3538
16957TIP3   OH272285   5.979   3.894   3.307 -0.1838  0.1401  0.1089
16957TIP3    H172286   6.024   3.810   3.297 -0.1532  0.2819 -1.0588
16957TIP3    H272287   6.019   3.950   3.241 -1.1999  0.6443 -0.0849
16958TIP3   OH272288   4.613   0.621  15.969  0.0957  0.4175  0.4258
16958TIP3    H172289   4.616   0.526  15.977 -1.3504  0.2466 -0.5710
16958TIP3    H272290   4.605   0.637  15.875  0.8603  1.5568  0.5334
16959TIP3   OH272291   5.472   3.615  11.624  0.1697  0.5421 -0.6134
16959TIP3    H172292   5.524   3.614  11.704 -1.5473 -1.7132  0.5688
16959TIP3    H272293   5.413   3.689  11.634 -1.1762 -0.6747  1.0805
16960TIP3   OH272294   6.486   1.820  16.559 -0.2912 -0.0118 -0.3590
16960TIP3    H172295   6.512   1.894  16.503  0.3234  0.1115  0.0905
16960TIP3    H272296   6.498   1.743  16.503 -1.4062  0.2564 -0.9991
16961TIP3   OH272297   1.100   3.075   2.823  0.2935  0.1004  0.1077
16961TIP3    H172298   1.149   2.996   2.847  0.4942  0.2584  0.2168
16961TIP3    H272299   1.137   3.144   2.877 -0.3263  0.1401  0.4878
16962TIP3   OH272300   2.368   3.778  11.154  0.0348  0.0134  0.1772
16962TIP3    H172301   2.391   3.852  11.097  0.2987 -0.3106 -0.1436
16962TIP3    H272302   2.371   3.702  11.096 -0.1897 -0.2540  0.5164
16963TIP3   OH272303   5.407   0.227   3.004  0.1421  0.1728 -0.1240
16963TIP3    H172304   5.398   0.137   2.972  0.8348  0.2249 -0.4654
16963TIP3    H272305   5.410   0.281   2.924  2.7777  0.2308 -0.0721
16964TIP3   OH272306   1.476   0.971   4.509  0.3635 -0.4258 -0.3741
16964TIP3    H172307   1.508   0.928   4.588  1.7553  3.0829  1.1920
16964TIP3    H272308   1.382   0.957   4.510  0.4711 -1.1992  1.4223
16965TIP3   OH272309   6.288   4.583  10.587  0.0340 -0.8606  0.0304
16965TIP3    H172310   6.296   4.657  10.527  1.4228 -0.6342  0.4740
16965TIP3    H272311   6.312   4.507  10.534  1.8297 -0.5946  0.4236
16966TIP3   OH272312   3.132   6.099   0.931 -0.2893 -0.5308  0.7323
16966TIP3    H172313   3.078   6.178   0.942 -0.1390 -0.2457 -0.4742
16966TIP3    H272314   3.075   6.039   0.882 -0.0236 -0.7765  0.7275
16967TIP3   OH272315   5.123   3.320   4.287  0.0841 -0.3153  0.3681
16967TIP3    H172316   5.136   3.240   4.236  0.6303 -1.1326  1.7314
16967TIP3    H272317   5.143   3.391   4.226 -0.7607 -1.1861 -0.9754
16968TIP3   OH272318   6.075   0.786   2.176 -0.8610 -0.2623  0.1901
16968TIP3    H172319   6.162   0.821   2.157 -0.7939 -0.7787 -0.4710
16968TIP3    H272320   6.024   0.805   2.098 -1.0918 -0.7632  0.2162
16969TIP3   OH272321   0.554   0.398   1.615  0.1736  1.0531  0.3511
16969TIP3    H172322   0.503   0.479   1.616  1.0843  1.6391  0.8810
16969TIP3    H272323   0.587   0.391   1.525 -0.1786  1.1003  0.2195
16970TIP3   OH272324   3.157   1.946   5.679  0.0706  0.4855  0.6725
16970TIP3    H172325   3.064   1.934   5.695 -0.2457  1.6687 -0.1420
16970TIP3    H272326   3.174   1.902   5.596  0.6031 -1.1191  1.5909
16971TIP3   OH272327   1.128   5.608   3.816  0.2881 -0.1243  0.6564
16971TIP3    H172328   1.123   5.703   3.801  0.5866 -0.1123  0.6273
16971TIP3    H272329   1.180   5.575   3.743  0.5065 -0.2586  0.8718
16972TIP3   OH272330   0.188   6.459   4.836  0.4219  0.7375  0.7796
16972TIP3    H172331   0.214   6.369   4.815 -0.6532  0.7528 -0.8446
16972TIP3    H272332   0.248   6.486   4.905  0.8318 -1.1887  1.2519
16973TIP3   OH272333   6.587   1.797  17.085 -0.4401  0.2237  0.3882
16973TIP3    H172334   6.629   1.848  17.016  1.1072 -1.0929  0.2750
16973TIP3    H272335   6.614   1.840  17.167 -0.1036  0.2580  0.2599
16974TIP3   OH272336   1.083   3.351  13.934 -0.0184  0.1670  0.2448
16974TIP3    H172337   1.095   3.445  13.920  0.9083  0.3101  1.7769
16974TIP3    H272338   1.002   3.345  13.985  0.5243  0.2605  1.1518
16975TIP3   OH272339   5.302   4.172  13.827 -0.0700 -0.0929 -0.4758
16975TIP3    H172340   5.369   4.135  13.770 -0.0149  0.1705 -0.5831
16975TIP3    H272341   5.226   4.186  13.770  0.0982  0.4885 -0.5624
16976TIP3   OH272342   1.198   4.330  16.251  0.2575  0.0036 -0.1087
16976TIP3    H172343   1.182   4.270  16.178 -0.4043  1.4725 -1.2233
16976TIP3    H272344   1.114   4.334  16.297  0.2900  0.1159 -0.0601
16977TIP3   OH272345   3.363   3.092   3.163  0.0288 -0.0468 -0.4698
16977TIP3    H172346   3.335   3.049   3.244 -0.4340  1.0084 -0.0505
16977TIP3    H272347   3.426   3.158   3.192 -0.5304  0.6885 -0.8964
16978TIP3   OH272348   4.520   4.439   5.568  0.0109 -0.2886  0.8394
16978TIP3    H172349   4.431   4.462   5.544  0.1371  1.0610  1.5619
16978TIP3    H272350   4.556   4.397   5.490 -0.3818  1.6776 -0.4671
16979TIP3   OH272351   5.963   0.959   0.214  0.2793  0.1179  0.4877
16979TIP3    H172352   5.902   0.886   0.221  1.7066 -0.9320  3.8923
16979TIP3    H272353   5.956   0.987   0.122 -1.6078 -3.0938 -0.5217
16980TIP3   OH272354   5.717   4.720   1.701  0.2461  0.1534 -0.0726
16980TIP3    H172355   5.703   4.739   1.794 -2.4706 -1.1843 -0.0849
16980TIP3    H272356   5.766   4.638   1.700 -0.2248 -0.1350  0.2072
16981TIP3   OH272357   5.955   6.664  13.991 -0.4943  0.4893 -0.1514
16981TIP3    H172358   5.974   6.647  13.898 -2.1237 -0.0062 -0.4336
16981TIP3    H272359   5.873   6.714  13.989 -0.6478  0.2997  1.0249
16982TIP3   OH272360   4.404   0.695   2.232 -0.2298  0.0389 -0.2191
16982TIP3    H172361   4.364   0.656   2.309  1.3612 -0.1028  0.5824
16982TIP3    H272362   4.453   0.624   2.192 -0.0702  0.3965 -0.6704
16983TIP3   OH272363   5.899   4.485   5.524 -0.2067  0.0423  0.0070
16983TIP3    H172364   5.949   4.434   5.588  0.4991  1.6721  0.8172
16983TIP3    H272365   5.943   4.469   5.441 -0.4832 -1.2589  0.0805
16984TIP3   OH272366   2.612   4.608  16.032 -0.9431 -0.8278  0.4650
16984TIP3    H172367   2.609   4.518  16.001 -0.0305 -0.4828 -0.7240
16984TIP3    H272368   2.616   4.601  16.128  0.2574 -2.0959  0.3473
16985TIP3   OH272369   5.269   2.948  16.753  0.5165  0.3102  0.1108
16985TIP3    H172370   5.196   2.900  16.791 -0.8149  1.1967 -1.2197
16985TIP3    H272371   5.316   2.883  16.700 -0.8781  0.2577 -1.1335
16986TIP3   OH272372   4.485   3.740   2.779  0.0282 -0.4326  0.2929
16986TIP3    H172373   4.574   3.713   2.801  0.5529 -0.6526 -1.8741
16986TIP3    H272374   4.467   3.813   2.838  1.4115 -0.7533  1.1629
16987TIP3   OH272375   0.312   0.138  14.086  0.6730 -0.1655  0.0846
16987TIP3    H172376   0.333   0.076  14.156  0.6759 -2.0210 -1.4712
16987TIP3    H272377   0.239   0.097  14.040 -0.9946  2.2031  0.4286
16988TIP3   OH272378   2.251   6.626   0.398  0.3606  0.4100 -0.1659
16988TIP3    H172379   2.253   6.676   0.480  0.2757  0.3271 -0.1141
16988TIP3    H272380   2.165   6.585   0.397  1.3297 -1.7892  1.0232
16989TIP3   OH272381   1.331   1.847   3.643 -0.4595 -0.4330  0.1501
16989TIP3    H172382   1.339   1.780   3.575 -0.0691 -0.5974  0.3513
16989TIP3    H272383   1.362   1.927   3.602  3.0920 -1.1401  1.0509
16990TIP3   OH272384   6.481   6.028   3.841 -0.9222 -0.2984  0.1810
16990TIP3    H172385   6.395   6.037   3.883 -0.5563 -1.3210  1.2132
16990TIP3    H272386   6.490   5.934   3.826  0.1255 -0.2341  0.3624
16991TIP3   OH272387   0.859   5.478   3.755 -0.1269  0.5958 -0.1760
16991TIP3    H172388   0.941   5.526   3.767  0.7656 -1.0560  0.7026
16991TIP3    H272389   0.832   5.454   3.844 -1.9493  1.6571 -0.3799
16992TIP3   OH272390   6.764   4.086   4.763 -0.4167 -0.6135 -0.7657
16992TIP3    H172391   6.701   4.083   4.835 -0.7935 -0.5017 -1.0831
16992TIP3    H272392   6.831   4.148   4.791  1.6318 -3.4657  1.2302
16993TIP3   OH272393   6.188   2.331   1.321 -0.4001  0.6351  0.4355
16993TIP3    H172394   6.225   2.380   1.248 -0.8793  0.8208  0.3112
16993TIP3    H272395   6.131   2.265   1.279  0.9782 -0.6764  0.5510
16994TIP3   OH272396   3.624   6.256   0.177  0.3739 -0.0719  0.4689
16994TIP3    H172397   3.609   6.253   0.082 -2.1161 -1.5439  0.8146
16994TIP3    H272398   3.560   6.320   0.208 -1.2212 -2.0262  1.4379
16995TIP3   OH272399   0.037   3.961   3.922  0.6681  0.1146 -0.0997
16995TIP3    H172400   0.102   3.906   3.878  0.7792 -0.7858  1.1581
16995TIP3    H272401   0.006   3.909   3.995  1.0260  1.8328  1.3535
16996TIP3   OH272402   6.079   1.761  13.224  0.0619 -0.3414 -0.0566
16996TIP3    H172403   5.990   1.759  13.190 -0.4216  1.8174  0.9151
16996TIP3    H272404   6.075   1.713  13.307 -0.1595 -0.3405 -0.0680
16997TIP3   OH272405   6.359   4.501   6.679  0.4506  0.0348  0.0339
16997TIP3    H172406   6.285   4.556   6.653  0.2584 -0.1708  0.1483
16997TIP3    H272407   6.388   4.537   6.763  0.7061  0.3373 -0.1805
16998TIP3   OH272408   3.357   0.791   0.123 -0.5332 -0.7389  0.1736
16998TIP3    H172409   3.313   0.858   0.175  0.7235  0.3732 -0.1401
16998TIP3    H272410   3.286   0.751   0.071 -1.5743 -0.9162  1.6734
16999TIP3   OH272411   0.595   6.124   2.355  0.0639  1.0032  0.0961
16999TIP3    H172412   0.594   6.102   2.262 -2.6682  0.0078  0.2756
16999TIP3    H272413   0.674   6.080   2.389  1.1497  1.4534 -1.6975
17000TIP3   OH272414   5.166   0.385  15.326  0.2125 -0.9306 -0.1534
17000TIP3    H172415   5.092   0.353  15.273 -0.3559  0.3724 -0.1787
17000TIP3    H272416   5.126   0.414  15.408  0.8203 -1.0285  0.1821
17001TIP3   OH272417   1.264   4.930   1.412  0.5302 -0.2833  0.0919
17001TIP3    H172418   1.268   4.919   1.317  1.4208  0.6736 -0.0012
17001TIP3    H272419   1.189   4.876   1.439 -1.1876  1.1725 -1.4395
17002TIP3   OH272420   6.746   2.048  16.115 -0.2546  0.3199 -0.4288
17002TIP3    H172421   6.687   1.982  16.150 -0.1094 -0.1957 -1.1471
17002TIP3    H272422   6.695   2.129  16.116 -0.1211  0.4387  1.3705
17003TIP3   OH272423   6.291   1.351  16.379 -0.8645 -0.1929 -0.1125
17003TIP3    H172424   6.200   1.381  16.381 -1.2376 -1.2337 -0.4901
17003TIP3    H272425   6.332   1.403  16.310 -1.2093  0.1760 -0.0453
17004TIP3   OH272426   2.817   3.358   2.037 -0.1623 -0.0141 -0.2590
17004TIP3    H172427   2.768   3.332   1.959  1.0102  0.2237 -1.1020
17004TIP3    H272428   2.889   3.412   2.004  0.6929 -0.3708  0.9308
17005TIP3   OH272429   0.060   1.793  13.889 -0.1287 -0.4471  0.1963
17005TIP3    H172430   0.091   1.703  13.880  0.5925 -0.1814 -0.0863
17005TIP3    H272431  -0.010   1.800  13.824  0.9718 -0.3217 -1.0305
17006TIP3   OH272432   6.201   1.213  12.031 -0.1192  0.3535 -0.6825
17006TIP3    H172433   6.113   1.188  12.059 -0.2616  1.1940 -0.3588
17006TIP3    H272434   6.245   1.129  12.013 -1.0503 -0.0658 -1.0805
17007TIP3   OH272435   3.161   6.273  10.647  0.2808 -0.1190 -0.1665
17007TIP3    H172436   3.251   6.240  10.647 -0.1236 -1.3018  0.9149
17007TIP3    H272437   3.114   6.216  10.707 -0.8022  1.5931  0.7082
17008TIP3   OH272438   3.451   6.370  14.231 -0.2655 -0.2243 -0.2328
17008TIP3    H172439   3.396   6.372  14.309 -0.5263  1.1491 -0.4272
17008TIP3    H272440   3.537   6.341  14.263 -0.6423 -0.7190  0.3654
17009TIP3   OH272441   5.113   2.192  13.921  0.1238  0.3119 -0.2839
17009TIP3    H172442   5.017   2.199  13.926  0.2041  1.0734  0.5358
17009TIP3    H272443   5.145   2.254  13.987  1.2324  1.5537 -1.9046
17010TIP3   OH272444   2.353   3.487  16.589 -0.7420 -0.0226 -0.0423
17010TIP3    H172445   2.322   3.436  16.664 -0.7286 -0.5472 -0.3925
17010TIP3    H272446   2.322   3.439  16.513  0.2218 -0.1057 -0.3906
17011TIP3   OH272447   1.764   2.438   3.944  0.4492 -0.4420  0.3282
17011TIP3    H172448   1.697   2.404   3.885 -1.0802  0.1650  1.6207
17011TIP3    H272449   1.794   2.362   3.993 -1.6062 -0.3321  1.9029
17012TIP3   OH272450   5.946   5.807   4.271 -0.3230  0.2399 -0.0181
17012TIP3    H172451   6.026   5.841   4.309  2.7964 -3.6512 -2.3244
17012TIP3    H272452   5.928   5.865   4.197  1.2431  0.3404 -0.3438
17013TIP3   OH272453   1.155   0.965  11.761  0.5269 -0.5132 -0.3676
17013TIP3    H172454   1.179   0.904  11.831  1.0386 -2.9743 -2.5376
17013TIP3    H272455   1.188   0.925  11.681 -1.8941  1.0828 -2.3321
17014TIP3   OH272456   5.941   5.476  13.935  0.0731  0.2025  0.0807
17014TIP3    H172457   5.939   5.460  14.029  2.2081  2.3889  0.5970
17014TIP3    H272458   5.884   5.409  13.898  1.1352 -2.3592  2.6785
17015TIP3   OH272459   2.339   5.548  14.342  0.2850 -0.0868 -0.1887
17015TIP3    H172460   2.326   5.467  14.391  0.4991 -0.3560 -0.5643
17015TIP3    H272461   2.349   5.616  14.408 -1.5604 -0.0831  0.1345
17016TIP3   OH272462   5.462   6.599  12.583  0.1075 -0.0921 -0.0669
17016TIP3    H172463   5.508   6.528  12.628 -0.4640 -0.9990 -0.8644
17016TIP3    H272464   5.513   6.612  12.503  0.3850  0.6198  0.2217
17017TIP3   OH272465   6.701   2.638  11.720  0.4279  0.0533  0.0539
17017TIP3    H172466   6.707   2.583  11.798  0.8595  0.7149  0.5019
17017TIP3    H272467   6.621   2.690  11.733  0.5752  0.2635  0.1260
17018TIP3   OH272468   5.272   0.132  11.623 -0.0416 -0.0747 -0.2533
17018TIP3    H172469   5.302   0.222  11.606  0.3873 -0.1961 -0.1503
17018TIP3    H272470   5.240   0.101  11.538 -2.9193  1.1638  0.2480
17019TIP3   OH272471   6.717   6.626  15.157  0.8480 -0.4137 -0.0793
17019TIP3    H172472   6.646   6.668  15.107  0.8751  0.9754  0.9732
17019TIP3    H272473   6.674   6.596  15.238  1.7040  2.2660  1.5324
17020TIP3   OH272474   2.334   2.626   1.690  0.4647  0.4492  0.2730
17020TIP3    H172475   2.361   2.536   1.708 -0.6774  0.5017  2.5657
17020TIP3    H272476   2.416   2.676   1.692  0.9218 -0.2966  0.8318
17021TIP3   OH272477   3.664   3.318   4.101  0.0956  0.3046  0.6850
17021TIP3    H172478   3.690   3.229   4.079 -1.5186 -0.6383  2.3446
17021TIP3    H272479   3.671   3.366   4.019  0.5956 -1.4535 -0.3425
17022TIP3   OH272480   1.930   3.051  15.595 -0.6764  0.2638  0.3300
17022TIP3    H172481   1.993   3.082  15.660 -1.4461 -0.9197  1.6973
17022TIP3    H272482   1.858   3.114  15.600 -1.0564 -0.2289  1.1667
17023TIP3   OH272483   0.784   0.350  16.280 -0.5669  0.1674  0.2739
17023TIP3    H172484   0.824   0.264  16.294  1.1691  1.0362  1.0398
17023TIP3    H272485   0.851   0.412  16.308 -0.9843  1.8384 -2.1023
17024TIP3   OH272486   4.062   3.987  15.160  0.0003  0.2615  0.1290
17024TIP3    H172487   4.071   3.914  15.098  0.2724 -0.5294  1.0825
17024TIP3    H272488   4.150   4.024  15.165  0.5054 -1.0645  1.6935
17025TIP3   OH272489   4.350   0.979  13.010  0.2054  0.2970 -0.3286
17025TIP3    H172490   4.280   0.955  13.071  0.9603 -1.0928  0.0335
17025TIP3    H272491   4.353   0.907  12.947  2.4156 -0.5718  0.6648
17026TIP3   OH272492   0.126   6.056   2.548  0.2361 -0.1979 -0.0916
17026TIP3    H172493   0.135   6.027   2.639  1.6379 -0.0800 -0.1730
17026TIP3    H272494   0.212   6.089   2.524 -0.3776  0.7356 -1.1528
17027TIP3   OH272495   1.591   6.093   4.762 -0.2709  0.5203 -0.2903
17027TIP3    H172496   1.615   6.144   4.839  0.5228 -0.5097  0.1753
17027TIP3    H272497   1.516   6.040   4.791 -0.2246  0.4248 -0.3448
17028TIP3   OH272498   1.504   5.665  15.350 -0.4735 -0.1123  0.0955
17028TIP3    H172499   1.550   5.675  15.266  2.8371 -2.5382  1.4304
17028TIP3    H272500   1.516   5.750  15.393  1.0939 -0.0402 -0.4123
17029TIP3   OH272501   4.836   4.010  16.477  0.5108  0.4883  0.0184
17029TIP3    H172502   4.896   3.956  16.425 -0.3777  0.3734 -0.9159
17029TIP3    H272503   4.831   4.093  16.431  1.0878  1.0327  0.9076
17030TIP3   OH272504   0.508   6.741   1.926  0.7642 -0.2026  0.0751
17030TIP3    H172505   0.483   6.772   2.013  0.0492  0.9518 -0.5150
17030TIP3    H272506   0.562   6.663   1.943 -1.5240 -1.6091  1.4940
17031TIP3   OH272507   5.065   3.319   1.610  0.6465  0.4373 -0.4081
17031TIP3    H172508   5.036   3.339   1.699  0.2570  0.2138 -0.4863
17031TIP3    H272509   5.004   3.253   1.579  2.3754 -1.5491  0.1404
17032TIP3   OH272510   4.210   2.722  14.355 -0.1839 -0.0735  0.7707
17032TIP3    H172511   4.148   2.650  14.356  0.5110 -0.6838  1.0431
17032TIP3    H272512   4.288   2.687  14.400  1.2110 -0.0892 -1.5150
17033TIP3   OH272513   6.344   6.233   3.672  0.2576  0.3130  0.4771
17033TIP3    H172514   6.283   6.280   3.729 -1.2895 -0.9895 -0.0333
17033TIP3    H272515   6.403   6.187   3.732 -1.9214 -1.7967  1.1799
17034TIP3   OH272516   1.137   3.186   0.860 -0.1116 -0.6693 -0.0052
17034TIP3    H172517   1.044   3.190   0.881 -0.5373 -3.2103 -1.0295
17034TIP3    H272518   1.179   3.161   0.943 -0.7604 -2.5509 -0.2064
17035TIP3   OH272519   2.837   2.093  13.478 -0.2046 -0.5992 -0.1132
17035TIP3    H172520   2.872   2.141  13.403 -0.3066  0.1803  0.3169
17035TIP3    H272521   2.744   2.083  13.459 -0.4180  0.4200  0.3084
17036TIP3   OH272522   2.523   0.024  14.777 -0.2075  0.6656 -0.1081
17036TIP3    H172523   2.460  -0.023  14.723  1.2707 -0.4461 -0.9427
17036TIP3    H272524   2.522  -0.023  14.861  0.7032 -0.4230 -0.6822
17037TIP3   OH272525   5.555   5.943   5.555 -0.0315  0.1681 -0.4773
17037TIP3    H172526   5.644   5.918   5.582  0.7197  1.3385 -1.7915
17037TIP3    H272527   5.512   5.970   5.637  1.0598  0.3174  0.0640
17038TIP3   OH272528   2.803   5.990   1.083 -0.3308 -0.1993  0.4494
17038TIP3    H172529   2.861   6.065   1.076 -0.1413 -0.4559 -1.2845
17038TIP3    H272530   2.853   5.926   1.134 -0.8530  1.1079  2.7399
17039TIP3   OH272531   2.050   1.730   1.869 -0.2108 -0.4597  0.2093
17039TIP3    H172532   2.089   1.815   1.848 -0.3889 -0.6987 -1.1983
17039TIP3    H272533   1.959   1.751   1.890 -0.7016 -0.4181 -1.7329
17040TIP3   OH272534   6.674   0.141   4.980 -0.4799 -0.5539  0.5083
17040TIP3    H172535   6.714   0.218   4.939  0.1619 -2.2443 -2.3101
17040TIP3    H272536   6.745   0.100   5.028 -0.2824 -0.4848  0.2794
17041TIP3   OH272537   0.998   6.415   2.115  0.0604  0.1135  0.9143
17041TIP3    H172538   1.068   6.416   2.050  0.7176 -2.5185  1.4358
17041TIP3    H272539   0.980   6.507   2.133  1.0849  0.8978 -1.6485
17042TIP3   OH272540   1.715   4.583   1.427 -0.2925 -0.2457  0.3911
17042TIP3    H172541   1.644   4.628   1.473  0.0581  0.6012  0.1381
17042TIP3    H272542   1.737   4.642   1.354  1.0645 -0.2066  0.8038
17043TIP3   OH272543   1.129   1.862  13.342  0.4427 -0.6959 -0.7079
17043TIP3    H172544   1.071   1.909  13.282  2.8974 -0.1353 -2.8243
17043TIP3    H272545   1.125   1.913  13.423  0.4923  1.2704 -1.8696
17044TIP3   OH272546   3.942   0.394  11.341  0.1807 -0.3160 -0.0515
17044TIP3    H172547   4.019   0.450  11.332 -0.2209  0.1159 -0.9652
17044TIP3    H272548   3.968   0.326  11.402  0.8331  0.6148  0.7338
17045TIP3   OH272549   2.658   1.840   0.686 -0.1601 -0.2801 -0.2687
17045TIP3    H172550   2.654   1.928   0.647 -0.9640 -0.0659  0.2810
17045TIP3    H272551   2.749   1.813   0.672  0.4438  1.1446  0.6463
17046TIP3   OH272552   1.402   1.862  17.131  0.3087 -0.5504 -0.4394
17046TIP3    H172553   1.367   1.939  17.085 -2.0632  0.4687  2.7203
17046TIP3    H272554   1.356   1.788  17.093 -1.3076  0.2186 -0.0701
17047TIP3   OH272555   1.713   6.391  16.271 -0.3036  0.1072  0.1863
17047TIP3    H172556   1.680   6.442  16.197 -0.9641  0.8152  0.9434
17047TIP3    H272557   1.640   6.335  16.297  0.2233 -0.8063 -0.2610
17048TIP3   OH272558   4.404   0.891  14.721  0.0513  0.6108 -0.5809
17048TIP3    H172559   4.415   0.986  14.721 -2.0094  0.9087  0.8252
17048TIP3    H272560   4.445   0.862  14.803 -0.8885  0.5292 -0.1310
17049TIP3   OH272561   5.127   5.799   1.115  0.0834  0.7724  0.0740
17049TIP3    H172562   5.103   5.714   1.152  1.6950  0.3105  0.1179
17049TIP3    H272563   5.050   5.854   1.132  0.0561  0.1139  2.5672
17050TIP3   OH272564   6.496   5.483  12.332  0.0288 -0.6014  0.7818
17050TIP3    H172565   6.497   5.532  12.415 -1.1078  1.7829 -0.5033
17050TIP3    H272566   6.409   5.444  12.329 -0.4645  0.5030  0.1169
17051TIP3   OH272567   0.251   1.632   1.129 -0.8795  0.1580  0.5529
17051TIP3    H172568   0.182   1.673   1.077  0.8200 -0.3905 -2.3878
17051TIP3    H272569   0.304   1.705   1.160  0.5022  0.4526 -2.2300
17052TIP3   OH272570   6.707   6.583  13.033  0.6009 -0.2121 -0.0031
17052TIP3    H172571   6.746   6.599  13.119 -0.2718  0.2164  0.3232
17052TIP3    H272572   6.766   6.519  12.991  0.8317 -0.7031  1.0476
17053TIP3   OH272573   6.545   6.156   0.242 -0.7164 -0.1742  0.0757
17053TIP3    H172574   6.558   6.067   0.275 -1.9584  0.3375  2.1695
17053TIP3    H272575   6.450   6.164   0.232 -0.7619  1.2997  1.2656
17054TIP3   OH272576   1.768   1.373   1.869 -0.1004 -0.3676  0.8523
17054TIP3    H172577   1.706   1.382   1.942  0.1450  0.2400  0.9987
17054TIP3    H272578   1.841   1.431   1.893 -0.6818  1.0442 -0.5664
17055TIP3   OH272579   6.044   2.448   2.055  0.3907  0.2630  0.5468
17055TIP3    H172580   6.009   2.537   2.057  1.1253  0.5518  1.0093
17055TIP3    H272581   6.139   2.459   2.063  0.5805 -0.5109 -0.4168
17056TIP3   OH272582   1.186   0.743   2.040  0.1287  0.0995 -0.1058
17056TIP3    H172583   1.126   0.689   1.989  1.6685  1.2661 -3.5088
17056TIP3    H272584   1.271   0.700   2.031  0.8359  1.4784 -0.4705
17057TIP3   OH272585   2.093   1.947  12.253 -0.2221 -0.7596  0.0581
17057TIP3    H172586   2.057   2.005  12.186  0.3989 -1.0997 -0.5812
17057TIP3    H272587   2.186   1.970  12.258 -0.4214 -0.1118  1.4617
17058TIP3   OH272588   2.580   3.038   4.728  0.1882  0.6765  0.0359
17058TIP3    H172589   2.516   2.967   4.736 -1.4355  2.0418 -0.4306
17058TIP3    H272590   2.625   3.040   4.813  0.0333 -0.6623  0.1725
17059TIP3   OH272591   1.381   4.028   1.877  0.2586 -0.0742 -0.1924
17059TIP3    H172592   1.300   4.073   1.905 -0.9165 -1.7167 -0.8375
17059TIP3    H272593   1.447   4.097   1.878 -1.0768  1.2719  0.6341
17060TIP3   OH272594   6.614   5.115   1.026  0.4556 -0.3200 -0.3408
17060TIP3    H172595   6.586   5.030   1.058 -0.4975  0.2247  0.3292
17060TIP3    H272596   6.638   5.100   0.934 -0.9952 -1.0397 -0.6237
17061TIP3   OH272597   6.320   3.571   4.186  0.7896  0.0361 -0.2660
17061TIP3    H172598   6.276   3.609   4.262  0.9016  0.5360 -0.4492
17061TIP3    H272599   6.364   3.493   4.220 -2.5303 -2.1631 -0.5685
17062TIP3   OH272600   1.986   5.003  14.533 -0.2491 -0.3317  0.3700
17062TIP3    H172601   2.042   4.933  14.568  0.6599  0.7605  1.1685
17062TIP3    H272602   1.983   4.986  14.439 -1.1346 -2.1901  0.6917
17063TIP3   OH272603   5.705   6.072   1.385  0.0056  0.4954 -0.3524
17063TIP3    H172604   5.706   6.102   1.476 -0.6041  2.1246 -0.8511
17063TIP3    H272605   5.755   6.138   1.337  1.5708 -1.0842 -1.0385
17064TIP3   OH272606   2.338   1.715   2.047 -0.2807 -0.4034 -0.0330
17064TIP3    H172607   2.270   1.747   2.106 -1.8832 -0.8461 -1.5396
17064TIP3    H272608   2.309   1.742   1.960  1.4451 -0.6870 -0.7507
17065TIP3   OH272609   5.566   3.980   0.226 -0.0592 -0.7611 -0.4998
17065TIP3    H172610   5.512   3.951   0.153 -1.6363  1.9315 -0.5564
17065TIP3    H272611   5.656   3.964   0.197 -0.7019 -1.7762 -2.0860
17066TIP3   OH272612   5.146   1.783   4.452 -0.1352 -0.2209  0.8413
17066TIP3    H172613   5.050   1.794   4.450 -0.1174  1.0259  3.3224
17066TIP3    H272614   5.176   1.827   4.372 -1.6326 -1.2679 -0.3634
17067TIP3   OH272615   3.243   0.199  17.138 -0.1278 -0.0864  0.2169
17067TIP3    H172616   3.317   0.244  17.177 -0.9339  0.9012  0.6552
17067TIP3    H272617   3.182   0.269  17.115 -0.5774 -0.8132 -0.8933
17068TIP3   OH272618   3.464   3.921   2.235  0.0453 -0.0945  0.2681
17068TIP3    H172619   3.554   3.897   2.215  0.0979  1.6317 -1.9244
17068TIP3    H272620   3.438   3.862   2.305  2.6997 -0.9723  0.5887
17069TIP3   OH272621   4.094   3.487   3.535  0.3652 -0.1103  0.2316
17069TIP3    H172622   4.100   3.418   3.469 -1.4854  0.9514 -1.1042
17069TIP3    H272623   4.001   3.499   3.549  0.6668  1.7658  0.8294
17070TIP3   OH272624   2.265   2.407  10.639 -0.5629 -0.3719  0.7662
17070TIP3    H172625   2.207   2.480  10.619 -1.1638 -0.6322  1.5222
17070TIP3    H272626   2.212   2.346  10.690  0.4602 -0.4574  1.7861
17071TIP3   OH272627   6.618   6.175   1.780  0.0068  0.2680 -0.4418
17071TIP3    H172628   6.623   6.231   1.857 -1.0663  1.2223 -1.0244
17071TIP3    H272629   6.623   6.086   1.815  1.8415  0.6825  0.4975
17072TIP3   OH272630   0.175   1.245  16.538  0.0154  1.0842  0.0224
17072TIP3    H172631   0.268   1.266  16.546  0.3348 -0.6755  1.8715
17072TIP3    H272632   0.154   1.259  16.445  2.0550  1.7234 -0.3777
17073TIP3   OH272633   3.599   4.364   2.560  0.2792  0.6323 -0.1235
17073TIP3    H172634   3.621   4.448   2.599 -2.4762  1.4193 -0.0717
17073TIP3    H272635   3.613   4.377   2.466  2.6398  0.1442  0.0940
17074TIP3   OH272636   0.861   5.619   4.140 -0.1107 -0.0283 -0.2233
17074TIP3    H172637   0.797   5.689   4.124 -0.5993 -0.0854  1.3184
17074TIP3    H272638   0.927   5.659   4.195  1.1913 -0.0045 -1.7283
17075TIP3   OH272639   1.141   5.659   4.128 -0.4643 -0.0561  0.1090
17075TIP3    H172640   1.186   5.577   4.149  0.0085 -0.3405 -1.8488
17075TIP3    H272641   1.136   5.661   4.033 -2.8818  0.9142  0.1609
17076TIP3   OH272642   6.354   1.664   0.543  0.0246  0.2285  0.3783
17076TIP3    H172643   6.311   1.663   0.457  0.1162  0.9014  0.3208
17076TIP3    H272644   6.393   1.576   0.550  0.3015  0.2728 -0.4207
17077TIP3   OH272645   0.785   2.479  15.008 -0.2083 -0.3275  0.1798
17077TIP3    H172646   0.702   2.489  14.961 -1.8266 -0.6300  2.7405
17077TIP3    H272647   0.784   2.549  15.073  1.7875 -0.0821 -0.0117
17078TIP3   OH272648   6.305   3.054  13.976  0.2418 -0.1396  0.5408
17078TIP3    H172649   6.367   3.118  13.940 -1.2713  0.8030 -0.4838
17078TIP3    H272650   6.359   2.977  13.996  1.4798 -0.0326 -2.0246
17079TIP3   OH272651   6.651   1.239  11.283 -0.6789  0.7495 -0.0356
17079TIP3    H172652   6.595   1.180  11.332 -0.0333  0.0567 -0.1050
17079TIP3    H272653   6.613   1.326  11.297 -1.6541  0.3191  0.0458
17080TIP3   OH272654   1.651   3.524   0.451 -0.1699  0.1298  0.1663
17080TIP3    H172655   1.671   3.566   0.534  0.5735 -0.8751  0.5237
17080TIP3    H272656   1.669   3.431   0.466  0.8210  0.0346 -1.3576
17081TIP3   OH272657   1.913   6.760   3.059  0.1194  0.7855  0.1019
17081TIP3    H172658   1.864   6.840   3.037  2.2343  2.1749  0.1586
17081TIP3    H272659   1.985   6.758   2.996  1.5087  0.3107  1.6321
17082TIP3   OH272660   0.373   1.540   3.931  0.3203 -0.0321  0.2677
17082TIP3    H172661   0.384   1.478   4.002  1.9989  0.6433  0.6522
17082TIP3    H272662   0.303   1.599   3.960  0.1999 -0.4607  0.8447
17083TIP3   OH272663   0.568   5.680  10.891  0.8561  0.5832  0.2949
17083TIP3    H172664   0.480   5.643  10.897  0.7055  0.6903 -0.9327
17083TIP3    H272665   0.576   5.708  10.800  2.4639 -0.2154  0.1519
17084TIP3   OH272666   4.892   4.365  12.363  0.1728 -0.4640  0.1351
17084TIP3    H172667   4.874   4.389  12.272 -0.3429  0.0754  0.3743
17084TIP3    H272668   4.873   4.444  12.413  0.9229 -0.6067  0.6670
17085TIP3   OH272669   1.049   2.286   6.438  0.7065  0.6074  0.4843
17085TIP3    H172670   0.974   2.311   6.492 -0.3053  1.7513 -1.3474
17085TIP3    H272671   1.090   2.369   6.414  1.0351  0.1342 -0.6311
17086TIP3   OH272672   6.461   0.321  11.334 -0.1832  0.0203  0.9257
17086TIP3    H172673   6.394   0.366  11.385 -0.9026 -0.7247  0.6651
17086TIP3    H272674   6.411   0.271  11.269  0.6230 -0.5870  0.7606
17087TIP3   OH272675   4.475   3.483   0.573 -0.3238  0.1913  0.0343
17087TIP3    H172676   4.443   3.496   0.662 -1.5711  2.2698 -0.6369
17087TIP3    H272677   4.397   3.461   0.522  0.7503 -3.8668 -0.1673
17088TIP3   OH272678   1.946   4.022   3.910  0.3762 -0.4261 -0.4409
17088TIP3    H172679   1.907   4.084   3.972  1.6642 -1.2623  1.2684
17088TIP3    H272680   1.974   4.077   3.837 -0.0856  0.7597  0.2354
17089TIP3   OH272681   3.177   3.712   0.150  0.2067 -0.1418  0.3623
17089TIP3    H172682   3.237   3.639   0.134  0.1673 -0.1138  0.0856
17089TIP3    H272683   3.090   3.677   0.133  0.2715  0.2779 -0.9044
17090TIP3   OH272684   3.909   1.939  15.220 -0.0179  0.6567 -0.0067
17090TIP3    H172685   3.832   1.895  15.254  0.5380 -1.3767 -1.2313
17090TIP3    H272686   3.980   1.876  15.231  0.9127  1.4085 -1.4029
17091TIP3   OH272687   2.690   3.274   2.631 -1.0703 -0.0487  0.0796
17091TIP3    H172688   2.617   3.298   2.688 -1.1146 -0.4313  0.1917
17091TIP3    H272689   2.747   3.350   2.630 -0.9370 -0.1350  0.8505
17092TIP3   OH272690   0.966   2.039   3.773 -0.8245  0.2682 -0.0630
17092TIP3    H172691   1.010   2.058   3.690 -0.2840 -1.5283 -0.2300
17092TIP3    H272692   0.922   1.955   3.758 -0.0421 -0.5032  1.7085
17093TIP3   OH272693   4.480   3.916   0.977 -0.0213  0.2162  0.0974
17093TIP3    H172694   4.436   3.903   0.893 -0.2309 -0.0374  0.2492
17093TIP3    H272695   4.573   3.919   0.954 -0.0073 -0.8769 -0.0217
17094TIP3   OH272696   0.990   4.906  15.909  0.2382 -0.3525 -0.8618
17094TIP3    H172697   1.036   4.989  15.921  2.7118 -1.5207 -1.4974
17094TIP3    H272698   1.011   4.855  15.988 -1.8017 -0.1974 -0.1618
17095TIP3   OH272699   1.909   0.088   5.676 -0.0167  0.1456  0.1702
17095TIP3    H172700   1.946   0.128   5.755  0.5729  1.0938 -0.5744
17095TIP3    H272701   1.817   0.073   5.698  0.1104  0.5177  0.9897
17096TIP3   OH272702   4.364   2.819  12.768 -0.4716  0.0857  0.1501
17096TIP3    H172703   4.408   2.904  12.761 -0.7031  0.2816  0.9425
17096TIP3    H272704   4.340   2.812  12.861 -0.6400 -0.7545  0.0526
17097TIP3   OH272705   4.505   1.963   4.580 -0.3157  0.0521  0.1897
17097TIP3    H172706   4.575   1.971   4.516 -0.4968 -0.2799 -0.0555
17097TIP3    H272707   4.538   2.007   4.658  0.0188  0.2128 -0.0415
17098TIP3   OH272708   5.629   0.771  11.439  0.0553 -0.1549 -0.2840
17098TIP3    H172709   5.709   0.822  11.450  0.6517 -1.3886  1.6185
17098TIP3    H272710   5.640   0.726  11.356  1.1098  0.0819 -0.2801
17099TIP3   OH272711   6.780   5.180  12.440 -0.1652 -0.7714  0.2496
17099TIP3    H172712   6.869   5.215  12.437  0.0042 -1.2717 -0.9690
17099TIP3    H272713   6.793   5.085  12.444 -0.6202 -0.9688 -1.8494
17100TIP3   OH272714   0.968   2.219  13.479 -0.0133 -0.5376 -0.6047
17100TIP3    H172715   0.922   2.287  13.528  1.2394  0.4047 -0.6931
17100TIP3    H272716   0.899   2.171  13.434 -0.9862  0.1515  0.1178
17101TIP3   OH272717   0.422   6.101  15.728  0.5479  0.1358 -0.3557
17101TIP3    H172718   0.475   6.021  15.726 -0.0712 -0.3225  0.6470
17101TIP3    H272719   0.467   6.158  15.791 -0.1908 -0.3033  0.5909
17102TIP3   OH272720   4.619   3.221   4.491 -0.0911 -0.4375 -0.3372
17102TIP3    H172721   4.612   3.300   4.544 -2.2992  0.7666 -2.2606
17102TIP3    H272722   4.540   3.220   4.438  1.2281 -2.4033 -2.4775
17103TIP3   OH272723   2.149   6.636  15.995 -0.2212  0.7500  0.0681
17103TIP3    H172724   2.237   6.655  15.962  0.5963 -1.7766  0.5350
17103TIP3    H272725   2.163   6.602  16.083 -1.4810 -1.0435 -0.3595
17104TIP3   OH272726   5.218   6.699   3.781 -0.3299 -0.1263  0.1783
17104TIP3    H172727   5.276   6.622   3.780 -1.3407 -0.8941 -0.5466
17104TIP3    H272728   5.277   6.772   3.799  0.3922 -1.2624  2.8199
17105TIP3   OH272729   2.368   5.185   5.351 -0.5748 -0.2633 -0.1214
17105TIP3    H172730   2.462   5.169   5.356 -0.4177  0.3892 -0.7510
17105TIP3    H272731   2.328   5.099   5.361 -0.0446 -0.2506  2.8959
17106TIP3   OH272732   0.694   6.790  12.063 -0.3555  0.1933  0.2243
17106TIP3    H172733   0.641   6.862  12.028 -1.7799 -1.1564 -0.4875
17106TIP3    H272734   0.773   6.791  12.009 -0.3060  1.2538  0.2833
17107TIP3   OH272735   2.211   2.508   2.242  0.5352  0.2189  0.2729
17107TIP3    H172736   2.233   2.425   2.202 -0.7010 -0.1006  0.1983
17107TIP3    H272737   2.138   2.541   2.190 -0.0424  0.5683  1.2698
17108TIP3   OH272738   1.769   6.305  11.173 -0.3030 -0.4757 -0.0637
17108TIP3    H172739   1.730   6.240  11.230 -1.3132  0.6799  0.6002
17108TIP3    H272740   1.839   6.345  11.225 -2.0491  1.4697  0.9137
17109TIP3   OH272741   6.220   3.215   1.370 -0.4131  0.4250  0.1566
17109TIP3    H172742   6.149   3.230   1.308  1.1757 -1.5500 -2.3386
17109TIP3    H272743   6.198   3.134   1.415  0.3765 -0.4210 -0.9242
17110TIP3   OH272744   1.627   0.580  15.950 -0.4093  0.0381 -0.5356
17110TIP3    H172745   1.572   0.505  15.971 -0.8568  0.6215  0.4672
17110TIP3    H272746   1.599   0.648  16.012  0.0842  0.9817 -1.3173
17111TIP3   OH272747   3.940   1.266  15.746 -0.2982  0.2436  0.0539
17111TIP3    H172748   3.990   1.327  15.800 -0.3535  0.6736 -0.3677
17111TIP3    H272749   3.902   1.321  15.677 -2.8153  0.2468  1.3454
17112TIP3   OH272750   5.454   2.319   4.910 -0.0015  0.4538 -0.3105
17112TIP3    H172751   5.488   2.245   4.859 -0.0139  0.7959 -0.8267
17112TIP3    H272752   5.494   2.396   4.869 -0.3378  0.7656 -0.0573
17113TIP3   OH272753   1.265   1.944  15.784  0.3852  0.3230 -0.3475
17113TIP3    H172754   1.170   1.941  15.791  0.4029 -0.6739 -0.4613
17113TIP3    H272755   1.293   1.852  15.786  1.4257  0.6320  0.8090
17114TIP3   OH272756   4.923   3.761   3.487 -0.4523  0.3331 -0.1676
17114TIP3    H172757   4.873   3.817   3.546 -0.9162  0.0151 -0.2509
17114TIP3    H272758   4.892   3.672   3.506  0.9676 -0.0347  0.6665
17115TIP3   OH272759   5.207   0.966   1.626  0.1319 -0.0521  0.5357
17115TIP3    H172760   5.184   0.971   1.533 -0.1167  3.5548  0.6602
17115TIP3    H272761   5.272   0.896   1.630 -2.3946 -2.8022 -1.6779
17116TIP3   OH272762   3.621   0.071  11.687  0.0737  0.3300 -0.7371
17116TIP3    H172763   3.655   0.151  11.648  0.3115 -0.7487 -2.9306
17116TIP3    H272764   3.526   0.085  11.693  0.3119  1.4590  0.6850
17117TIP3   OH272765   3.915   6.284   0.957 -0.3641  0.3586 -0.0146
17117TIP3    H172766   3.918   6.379   0.967  2.1496  0.5269 -1.4364
17117TIP3    H272767   3.823   6.261   0.973 -0.7608  2.7883  1.8788
17118TIP3   OH272768   2.476   2.489  13.971 -0.1355  0.0291  0.0971
17118TIP3    H172769   2.399   2.546  13.971  0.9228  1.5644 -0.7468
17118TIP3    H272770   2.475   2.447  14.057  0.0319  2.8456  1.5959
17119TIP3   OH272771   3.937   5.674   6.627  0.7563 -0.5198 -0.2053
17119TIP3    H172772   3.928   5.580   6.609 -0.7519 -0.9142  2.1709
17119TIP3    H272773   3.997   5.678   6.701  1.8501  0.5225 -1.1222
17120TIP3   OH272774   5.660   0.128   4.081 -0.1026 -0.0508 -0.0772
17120TIP3    H172775   5.579   0.178   4.078 -0.1439 -0.1165 -0.0469
17120TIP3    H272776   5.719   0.180   4.136 -0.9259 -1.1912  1.9680
17121TIP3   OH272777   2.682   2.605  16.689 -0.2380 -0.3561  0.3574
17121TIP3    H172778   2.749   2.591  16.622 -0.7326 -2.5462  0.2437
17121TIP3    H272779   2.720   2.572  16.769 -0.2668  0.7437  0.8423
17122TIP3   OH272780   4.177   1.078  14.815 -0.0506 -0.7476  0.0367
17122TIP3    H172781   4.207   1.136  14.745 -0.2154  0.7325  1.1639
17122TIP3    H272782   4.217   1.113  14.895 -1.2429 -1.3759  0.9441
17123TIP3   OH272783   6.272   2.708  10.380 -0.3428 -0.1611  0.4312
17123TIP3    H172784   6.244   2.689  10.291  0.2368  1.6964 -0.1781
17123TIP3    H272785   6.293   2.622  10.417  0.6325 -0.8610 -1.6145
17124TIP3   OH272786   1.521   2.646   1.792  0.1768  0.2352 -0.0754
17124TIP3    H172787   1.611   2.666   1.814  0.8256 -1.0934 -1.3045
17124TIP3    H272788   1.473   2.654   1.874  1.8108 -1.1285  1.0685
17125TIP3   OH272789   0.013   1.465  14.141 -0.2177 -0.1446 -0.4407
17125TIP3    H172790   0.073   1.476  14.215 -1.3676  0.6379  0.4059
17125TIP3    H272791  -0.051   1.535  14.152 -0.5766 -0.1903 -2.0320
17126TIP3   OH272792   0.231   4.569  13.881  0.1768  0.1770  0.0571
17126TIP3    H172793   0.169   4.497  13.876 -0.7129  0.9469 -0.2086
17126TIP3    H272794   0.197   4.626  13.951 -0.1141  1.2220 -0.9031
17127TIP3   OH272795   0.211   5.031  10.583 -0.1150  0.3305 -0.2507
17127TIP3    H172796   0.277   4.999  10.521 -1.6340  0.1057 -1.8300
17127TIP3    H272797   0.218   4.971  10.658  0.3706 -0.6878 -1.0876
17128TIP3   OH272798   0.498   1.349  10.397 -0.0135 -0.2126 -0.3711
17128TIP3    H172799   0.470   1.346  10.306  1.4151 -0.2301 -0.8486
17128TIP3    H272800   0.541   1.434  10.406 -1.5466  0.4789  0.7538
17129TIP3   OH272801   3.862   5.199  16.159 -0.3266  0.2119  0.0242
17129TIP3    H172802   3.915   5.207  16.238 -1.5657 -0.1122  0.9161
17129TIP3    H272803   3.772   5.204  16.190 -0.8352  1.0212 -1.4794
17130TIP3   OH272804   3.587   5.389   1.375  0.3928  0.4619  0.5282
17130TIP3    H172805   3.502   5.345   1.372  1.0800 -0.8749 -1.3203
17130TIP3    H272806   3.648   5.325   1.340  2.1965  1.3932  1.8175
17131TIP3   OH272807   4.234   3.264  12.375  0.4522  0.5682 -0.2902
17131TIP3    H172808   4.271   3.256  12.463 -1.1599  0.6126  0.4228
17131TIP3    H272809   4.308   3.243  12.317  1.5583  0.5515  1.0474
17132TIP3   OH272810   3.829   0.893  16.493 -0.5885 -0.3203  0.2113
17132TIP3    H172811   3.836   0.955  16.420  0.3451  0.0241  0.5673
17132TIP3    H272812   3.740   0.858  16.487 -0.6526 -0.0128 -0.8536
17133TIP3   OH272813   0.483   4.378   1.703 -0.1185  0.6166  0.1428
17133TIP3    H172814   0.496   4.472   1.709 -0.7222  0.7016  0.1942
17133TIP3    H272815   0.419   4.358   1.772 -1.3757  0.4498 -1.0302
17134TIP3   OH272816   5.934   3.111  10.667 -0.2791  0.6242 -0.0255
17134TIP3    H172817   5.839   3.100  10.659 -0.4423  2.8416 -1.9674
17134TIP3    H272818   5.954   3.077  10.755 -2.7533 -0.3866  0.2341
17135TIP3   OH272819   1.385   2.358   1.922  0.2156  0.8984  0.0570
17135TIP3    H172820   1.417   2.433   1.971 -0.1032  1.4391 -0.5496
17135TIP3    H272821   1.461   2.301   1.913  0.6432  1.4886 -0.1056
17136TIP3   OH272822   4.297   4.458  16.753  0.5220 -0.0988  0.6589
17136TIP3    H172823   4.335   4.414  16.677  1.1589  0.6010  0.5591
17136TIP3    H272824   4.313   4.551  16.737 -2.6654  0.4490 -0.2146
17137TIP3   OH272825   0.116   4.180  15.865  0.2630  0.1163 -0.0746
17137TIP3    H172826   0.040   4.230  15.836  1.6753  2.7747  0.4621
17137TIP3    H272827   0.080   4.111  15.921 -1.7013  2.6461  2.0369
17138TIP3   OH272828   6.099   4.390   2.079  0.1089  0.0566 -0.5774
17138TIP3    H172829   6.041   4.455   2.119  0.4402  0.0963 -0.1472
17138TIP3    H272830   6.177   4.391   2.135 -0.0828 -1.0620 -0.2611
17139TIP3   OH272831   5.384   6.484  14.035 -0.3796 -0.1803 -0.0061
17139TIP3    H172832   5.405   6.393  14.013 -1.1055 -0.3779  0.0874
17139TIP3    H272833   5.298   6.479  14.076 -0.3376  0.5308  0.1727
17140TIP3   OH272834   1.042   6.008  16.762  0.1782  0.3516  0.1696
17140TIP3    H172835   1.131   6.003  16.727 -0.3444  0.0047 -1.1754
17140TIP3    H272836   1.042   5.949  16.837  1.6842  2.0887  1.6239
17141TIP3   OH272837   4.585   1.052  15.249  0.1482  0.2391 -0.0331
17141TIP3    H172838   4.593   1.030  15.157 -0.7409  0.0879 -0.0818
17141TIP3    H272839   4.645   0.991  15.293  0.3295  0.0910 -0.4778
17142TIP3   OH272840   2.483   6.297   0.869 -0.2573  0.2158 -0.4348
17142TIP3    H172841   2.539   6.346   0.808 -0.4836 -0.1781 -0.9649
17142TIP3    H272842   2.394   6.323   0.847 -0.3155  0.4660  0.0804
17143TIP3   OH272843   2.250   2.761  12.030 -0.0804 -0.0758 -0.4074
17143TIP3    H172844   2.228   2.853  12.015 -0.3891 -0.3294 -1.5724
17143TIP3    H272845   2.288   2.731  11.947 -0.2354 -1.0755 -0.1321
17144TIP3   OH272846   0.753   6.763  12.647  0.1394 -0.3905  0.1333
17144TIP3    H172847   0.782   6.846  12.608  0.6915 -0.7552 -0.2396
17144TIP3    H272848   0.810   6.697  12.609 -1.4642 -1.1973 -0.9710
17145TIP3   OH272849   0.128   0.300  15.628  0.6743  0.5051  0.0568
17145TIP3    H172850   0.142   0.380  15.679 -0.4144  0.1903  0.8820
17145TIP3    H272851   0.164   0.230  15.682 -0.2071  0.2026  0.2596
17146TIP3   OH272852   1.712   1.506  16.096 -0.1083  0.5826  0.5205
17146TIP3    H172853   1.730   1.508  16.002 -1.6639  0.4622  0.1837
17146TIP3    H272854   1.632   1.453  16.103 -0.7249  1.6458  1.7757
17147TIP3   OH272855   0.797   4.043  15.248  0.3651 -0.1383  0.0422
17147TIP3    H172856   0.755   4.121  15.212  1.9903  0.5079 -0.5326
17147TIP3    H272857   0.786   3.977  15.179 -1.7060 -0.7292  0.8435
17148TIP3   OH272858   2.280   4.516   1.137 -0.0299  0.3195  0.1189
17148TIP3    H172859   2.305   4.567   1.214 -0.0224  1.0894 -0.3906
17148TIP3    H272860   2.198   4.473   1.162 -0.5425  1.3380  0.2113
17149TIP3   OH272861   5.090   0.289   2.389  0.1860  0.3453 -0.1196
17149TIP3    H172862   5.072   0.282   2.295 -1.3080 -2.2471  0.2626
17149TIP3    H272863   5.184   0.302   2.395  0.1827  1.5709 -1.9746
17150TIP3   OH272864   6.600   0.629  15.418 -0.8858 -0.3986 -0.3196
17150TIP3    H172865   6.523   0.683  15.399  0.8677  1.4224 -2.8272
17150TIP3    H272866   6.647   0.678  15.486 -1.2620 -0.8795  0.3049
17151TIP3   OH272867   0.407   2.824  11.133 -0.2523 -0.5727 -0.5125
17151TIP3    H172868   0.497   2.847  11.109 -0.4754  0.2386 -0.5735
17151TIP3    H272869   0.358   2.830  11.052 -0.9992  2.1434  0.0690
17152TIP3   OH272870   2.347   5.103  12.623 -0.0698 -0.5213  0.0603
17152TIP3    H172871   2.368   5.188  12.663 -0.7391 -0.8849  1.2270
17152TIP3    H272872   2.341   5.043  12.697 -1.4749 -1.1999 -0.5689
17153TIP3   OH272873   2.032   5.233  13.703  0.4681  0.1601  0.2154
17153TIP3    H172874   2.058   5.150  13.743  0.0211 -0.0966 -0.0319
17153TIP3    H272875   2.107   5.257  13.648  0.4338 -0.2761 -0.0248
17154TIP3   OH272876   2.595   1.656   1.285 -0.2634  0.6404  0.0952
17154TIP3    H172877   2.643   1.576   1.306  0.7833  1.3464  0.4389
17154TIP3    H272878   2.521   1.626   1.231 -0.7174 -0.7197  1.4126
17155TIP3   OH272879   4.014   2.439  14.970  0.1892  0.4170  0.3086
17155TIP3    H172880   3.993   2.364  15.026 -1.0415 -0.6565 -1.5075
17155TIP3    H272881   4.040   2.508  15.032  2.7582 -1.8480  1.9975
17156TIP3   OH272882   5.752   5.651   5.454 -0.9957  0.2918  0.4348
17156TIP3    H172883   5.715   5.628   5.539 -0.3606 -0.9213  0.4146
17156TIP3    H272884   5.833   5.599   5.449 -0.9243  0.4927 -0.8201
17157TIP3   OH272885   6.107   3.700  16.849 -0.6324 -0.1705  0.5131
17157TIP3    H172886   6.089   3.743  16.766 -1.4428 -0.9677  0.2643
17157TIP3    H272887   6.156   3.765  16.900 -1.0182  0.6913 -0.1962
17158TIP3   OH272888   2.835   0.332   0.658 -0.2809 -0.7329 -0.1719
17158TIP3    H172889   2.818   0.302   0.568  0.6975 -1.5908 -0.0894
17158TIP3    H272890   2.815   0.425   0.656 -0.0171 -0.6804 -1.3610
17159TIP3   OH272891   3.585   5.765  11.531 -0.4220  0.4839  0.4565
17159TIP3    H172892   3.662   5.821  11.541 -0.7189  1.2820 -1.3110
17159TIP3    H272893   3.534   5.807  11.461  0.0266 -2.6987 -2.0072
17160TIP3   OH272894   3.917   4.930   3.906  0.4011 -0.2942  0.1889
17160TIP3    H172895   3.929   5.020   3.939  0.4280 -0.7491  1.4633
17160TIP3    H272896   3.977   4.925   3.831 -0.8584  1.2787 -1.0264
17161TIP3   OH272897   3.005   4.458  13.492  0.1470 -0.7773 -0.1597
17161TIP3    H172898   2.925   4.412  13.467  0.0488 -0.6110 -0.1523
17161TIP3    H272899   3.025   4.427  13.580 -1.4695  1.2397  1.0129
17162TIP3   OH272900   5.751   5.954  12.360  0.0897 -0.4472  0.3722
17162TIP3    H172901   5.766   5.866  12.326 -0.5222 -0.4170  0.0024
17162TIP3    H272902   5.809   6.009  12.309  2.0877 -0.8823  2.0602
17163TIP3   OH272903   5.548   1.033   5.493 -0.0566 -0.3729  0.1862
17163TIP3    H172904   5.583   1.114   5.455 -1.1254 -1.1003 -2.5931
17163TIP3    H272905   5.487   1.062   5.560  2.3725  0.9907  1.9597
17164TIP3   OH272906   5.455   2.259  11.141  0.3018 -0.2518  0.2149
17164TIP3    H172907   5.397   2.302  11.078 -0.7150  1.4163  2.1645
17164TIP3    H272908   5.411   2.176  11.160 -0.9649  0.5315  0.8798
17165TIP3   OH272909   6.063   0.799  16.026 -0.0355 -0.1038  0.1016
17165TIP3    H172910   6.113   0.750  15.961  0.9057 -0.3408  0.9617
17165TIP3    H272911   6.121   0.871  16.051 -1.7798  2.1395 -1.8804
17166TIP3   OH272912   4.290   0.591  14.839  0.0582  0.4856 -0.8606
17166TIP3    H172913   4.211   0.546  14.870 -0.4171  0.5350 -1.9406
17166TIP3    H272914   4.258   0.652  14.773  1.1726 -0.7883 -2.6727
17167TIP3   OH272915   1.007   5.215   5.068  0.1268  0.5104  0.7078
17167TIP3    H172916   1.007   5.125   5.102 -1.7894  0.1542 -0.0817
17167TIP3    H272917   0.935   5.258   5.113 -1.8200  0.3238 -2.0020
17168TIP3   OH272918   2.568   0.511   6.633  0.2648 -0.2164 -0.0475
17168TIP3    H172919   2.605   0.568   6.566  0.7944  0.2932  0.6624
17168TIP3    H272920   2.638   0.448   6.652  1.1614  1.2338  1.8713
17169TIP3   OH272921   5.062   4.156   4.269  0.3979 -0.1589 -0.1149
17169TIP3    H172922   4.982   4.125   4.311  0.4431 -0.0867  0.0270
17169TIP3    H272923   5.049   4.251   4.260  0.2620 -0.2171 -0.5415
17170TIP3   OH272924   2.116   2.726   1.549 -0.3759  0.0943  0.4153
17170TIP3    H172925   2.184   2.684   1.601  0.0054 -1.3548 -1.1613
17170TIP3    H272926   2.139   2.819   1.549 -1.0297  0.3904  3.6950
17171TIP3   OH272927   2.841   1.425   0.857 -0.1288 -0.1394  0.0719
17171TIP3    H172928   2.770   1.485   0.883 -1.1754 -1.4189  0.2766
17171TIP3    H272929   2.865   1.380   0.938  1.0401  0.3911  0.0279
17172TIP3   OH272930   4.411   5.199   0.627  0.0236  0.5588 -0.3232
17172TIP3    H172931   4.418   5.289   0.594  0.2914  0.4366 -0.6057
17172TIP3    H272932   4.319   5.191   0.655 -0.1745  0.7122 -0.9093
17173TIP3   OH272933   2.913   0.203  14.981  0.1324  0.3024  0.4657
17173TIP3    H172934   2.972   0.277  14.994  0.2899  0.0095  1.4978
17173TIP3    H272935   2.967   0.137  14.936  0.4013  0.2882  0.8059
17174TIP3   OH272936   6.758   4.705  16.912  0.2629  0.4501 -0.3249
17174TIP3    H172937   6.800   4.766  16.852  1.7128  1.4580  1.5868
17174TIP3    H272938   6.708   4.646  16.856  2.2815  0.7238 -2.5678
17175TIP3   OH272939   0.727   0.051   0.788 -0.2652 -0.3567 -0.2248
17175TIP3    H172940   0.637   0.055   0.821  0.1466 -1.2071  1.0732
17175TIP3    H272941   0.752   0.142   0.775 -1.2850 -0.1071 -0.5388
17176TIP3   OH272942   3.459   5.173  11.125  0.4668  0.1565 -0.8236
17176TIP3    H172943   3.386   5.128  11.083  1.0842 -1.6385 -0.0945
17176TIP3    H272944   3.488   5.112  11.193  1.7145  1.4592 -0.1362
17177TIP3   OH272945   0.802   2.388   2.522  0.6836  1.1420 -1.1128
17177TIP3    H172946   0.755   2.380   2.605 -0.2580 -1.7455 -1.8078
17177TIP3    H272947   0.894   2.371   2.544  0.7757  2.4376 -0.4062
17178TIP3   OH272948   4.648   2.825  13.581 -0.8061 -0.0760 -0.2412
17178TIP3    H172949   4.581   2.775  13.627  0.1242 -1.5018 -0.3813
17178TIP3    H272950   4.730   2.797  13.619 -0.2235  1.2647 -0.4301
17179TIP3   OH272951   1.160   1.453   3.044  0.2849 -0.2691 -0.5401
17179TIP3    H172952   1.086   1.468   3.103  0.4767 -0.3263 -0.2775
17179TIP3    H272953   1.224   1.405   3.099  0.8332  0.4497 -0.5330
17180TIP3   OH272954   6.590   5.593   2.337 -0.0722  0.6281  0.0074
17180TIP3    H172955   6.609   5.679   2.300 -1.2146  1.3873  1.1112
17180TIP3    H272956   6.647   5.587   2.414 -0.3063  0.5737  0.1757
17181TIP3   OH272957   2.055   0.686  15.422 -0.0055  0.5012 -0.3422
17181TIP3    H172958   2.139   0.679  15.466 -0.1617  1.1005  0.0563
17181TIP3    H272959   2.015   0.599  15.432  0.4470  0.2989 -0.2995
17182TIP3   OH272960   1.559   6.133   1.525  0.0550  0.0407 -0.4926
17182TIP3    H172961   1.575   6.204   1.587 -1.6814 -0.3291  0.4590
17182TIP3    H272962   1.640   6.081   1.526  0.5551  0.8105  0.4355
17183TIP3   OH272963   3.387   1.472   1.825  0.5912 -0.2593 -0.7004
17183TIP3    H172964   3.371   1.501   1.735  1.7206  0.7365 -0.6031
17183TIP3    H272965   3.465   1.416   1.818  1.7629  1.2493 -0.1217
17184TIP3   OH272966   2.587   3.028   1.433  0.0924 -0.3739 -0.3868
17184TIP3    H172967   2.662   2.970   1.423  0.9568  0.8178 -1.0686
17184TIP3    H272968   2.583   3.077   1.350 -0.0153  1.2149  0.5077
17185TIP3   OH272969   1.969   6.179   4.885  0.3803 -0.2008 -0.1173
17185TIP3    H172970   1.964   6.087   4.857  2.0101 -0.6875  1.0304
17185TIP3    H272971   2.049   6.211   4.845  0.5064  0.3356  0.5642
17186TIP3   OH272972   3.001   6.575  12.145 -0.5777  0.0764 -0.3160
17186TIP3    H172973   2.962   6.587  12.058 -2.4121 -0.4479  0.3789
17186TIP3    H272974   3.074   6.515  12.131  0.0567  1.1057 -1.6869
17187TIP3   OH272975   1.794   1.206  14.683 -0.3738 -0.1556  0.3465
17187TIP3    H172976   1.738   1.142  14.639 -1.0040 -0.1012  1.0626
17187TIP3    H272977   1.734   1.272  14.718  0.2537  0.7355 -0.2083
17188TIP3   OH272978   5.596   3.555  14.543  0.1455  0.0897  0.2404
17188TIP3    H172979   5.683   3.564  14.583 -0.0719  0.0109  0.7268
17188TIP3    H272980   5.543   3.513  14.610 -0.4670  0.7922  0.2031
17189TIP3   OH272981   0.719   4.293  15.184  0.0974 -0.2731  0.3008
17189TIP3    H172982   0.651   4.356  15.159  0.7846 -0.1316 -1.3174
17189TIP3    H272983   0.780   4.292  15.110  1.6422 -0.7192  1.5121
17190TIP3   OH272984   5.315   3.668   5.015  0.4453 -0.1068 -0.0221
17190TIP3    H172985   5.338   3.650   5.106  1.1392 -0.6146 -0.2911
17190TIP3    H272986   5.383   3.625   4.963 -0.5835 -0.8308 -0.8184
17191TIP3   OH272987   2.670   6.484  12.912 -0.3889 -0.1998  0.0013
17191TIP3    H172988   2.751   6.531  12.891  0.8820 -0.9655  2.6463
17191TIP3    H272989   2.600   6.538  12.875  1.2168  1.6650 -0.4813
17192TIP3   OH272990   2.182   3.322   3.938 -0.1215  0.1026  0.5510
17192TIP3    H172991   2.170   3.241   3.987  2.3405 -0.2355  0.7221
17192TIP3    H272992   2.198   3.389   4.004  2.3345 -0.1939  0.3716
17193TIP3   OH272993   3.273   5.513  13.513  0.0305  0.6322 -0.0926
17193TIP3    H172994   3.310   5.429  13.487 -1.4656  0.0614 -0.4552
17193TIP3    H272995   3.248   5.555  13.431  0.9206  1.5178  0.0744
17194TIP3   OH272996   2.412   4.604   1.393 -0.2840 -0.0089  0.1282
17194TIP3    H172997   2.459   4.653   1.325  0.0459 -0.2282  0.1943
17194TIP3    H272998   2.371   4.671   1.447  1.0516  0.2542  0.8616
17195TIP3   OH272999   4.119   1.262   2.811  0.4884 -0.2970  0.0041
17195TIP3    H173000   4.183   1.309   2.866  1.7734 -1.5798 -0.3300
17195TIP3    H273001   4.051   1.233   2.872 -0.3823  1.9892  0.2159
17196TIP3   OH273002   4.835   5.834  16.364 -0.1232  0.8660  0.0049
17196TIP3    H173003   4.843   5.758  16.421  0.4259 -0.0589 -1.2440
17196TIP3    H273004   4.775   5.893  16.410  1.6578  0.9896  2.3389
17197TIP3   OH273005   3.154   0.628  14.290  0.2401  0.3382 -0.1763
17197TIP3    H173006   3.069   0.671  14.286 -0.7543 -1.4237  0.8813
17197TIP3    H273007   3.177   0.627  14.383  1.1457  0.2978 -0.3883
17198TIP3   OH273008   2.246   5.750   0.312 -0.3636  0.5211 -0.5912
17198TIP3    H173009   2.218   5.671   0.265  0.6084 -0.3877  0.2899
17198TIP3    H273010   2.205   5.822   0.264 -2.2531 -0.5696 -0.7167
17199TIP3   OH273011   6.616   6.734  11.950  0.0019 -0.4288 -0.4738
17199TIP3    H173012   6.689   6.731  12.012  1.2924  0.1682 -1.8864
17199TIP3    H273013   6.656   6.713  11.865 -1.6205 -0.8058 -1.1881
17200TIP3   OH273014   0.275   6.341   1.200  0.4270 -0.2923  0.3232
17200TIP3    H173015   0.188   6.327   1.238  0.2268  0.2953  0.0900
17200TIP3    H273016   0.277   6.284   1.123 -0.3089  0.7513 -0.5028
17201TIP3   OH273017   1.400   3.124  14.959 -0.7647  0.0320 -0.0921
17201TIP3    H173018   1.448   3.122  15.042 -0.5584  0.7234 -0.1829
17201TIP3    H273019   1.410   3.215  14.928  0.0484 -0.4722 -1.3867
17202TIP3   OH273020   4.522   5.712  16.330 -0.5085 -0.4955 -0.9492
17202TIP3    H173021   4.572   5.677  16.403 -0.7436  0.7408 -0.1611
17202TIP3    H273022   4.555   5.665  16.253  0.4814 -1.0668 -0.1933
17203TIP3   OH273023   4.676   3.559   1.863  0.2598 -0.2217 -0.7194
17203TIP3    H173024   4.638   3.485   1.815 -1.2340  0.7956 -1.1989
17203TIP3    H273025   4.618   3.632   1.842  0.0625  0.4689  1.9641
17204TIP3   OH273026   6.182   2.208   4.284 -0.2974  0.2936  0.4676
17204TIP3    H173027   6.251   2.201   4.350  0.6782 -3.1096 -0.7214
17204TIP3    H273028   6.129   2.129   4.297 -1.1763  0.4755 -1.6220
17205TIP3   OH273029   2.674   6.154   5.237 -0.3268 -0.5928 -0.0217
17205TIP3    H173030   2.722   6.237   5.243 -1.5237  0.0258  1.8707
17205TIP3    H273031   2.728   6.091   5.285 -1.3085  0.0969  2.0886
17206TIP3   OH273032   0.119   2.116  10.884  0.6780  0.8005  0.4144
17206TIP3    H173033   0.113   2.093  10.976  0.9433  0.6647  0.3999
17206TIP3    H273034   0.029   2.134  10.857 -0.7836 -6.0576 -1.1294
17207TIP3   OH273035   3.642   6.250   5.427 -0.5007 -0.4721  0.0455
17207TIP3    H173036   3.571   6.205   5.380 -0.6390 -1.2406  0.9526
17207TIP3    H273037   3.629   6.226   5.519  0.3744  0.1573  0.3481
17208TIP3   OH273038   5.995   1.311   0.278  0.7510  0.2131 -0.3552
17208TIP3    H173039   5.987   1.386   0.336  1.0278 -0.0043 -0.0267
17208TIP3    H273040   6.062   1.256   0.320  1.5808  0.4577 -1.3135
17209TIP3   OH273041   5.692   0.905   0.756  0.3004  0.5674 -0.2858
17209TIP3    H173042   5.688   0.944   0.843 -1.0545 -2.6298  1.2690
17209TIP3    H273043   5.605   0.920   0.719 -0.1701 -0.7565  0.2503
17210TIP3   OH273044   0.667   3.484   4.877 -0.1213  0.1919 -0.3346
17210TIP3    H173045   0.694   3.392   4.879 -3.2371 -0.9072  3.0489
17210TIP3    H273046   0.740   3.532   4.916  0.8070 -1.1177 -0.3982
17211TIP3   OH273047   6.471   3.333   4.282 -0.4079  0.3221 -0.0363
17211TIP3    H173048   6.474   3.366   4.371 -0.8993  0.2344  0.0137
17211TIP3    H273049   6.532   3.389   4.233 -1.0488  1.1419  0.0974
17212TIP3   OH273050   6.211   2.415   6.227 -0.3471  0.3789 -0.3378
17212TIP3    H173051   6.172   2.502   6.220 -2.4232 -0.5158 -0.7764
17212TIP3    H273052   6.182   2.383   6.312  1.7704  0.6886  0.5556
17213TIP3   OH273053   5.251   5.090  15.737 -0.6546 -0.2930  0.2016
17213TIP3    H173054   5.215   5.085  15.826 -2.0812 -1.7728 -0.4063
17213TIP3    H273055   5.331   5.038  15.741  1.9929  3.4404  1.6953
17214TIP3   OH273056   5.123   1.348  16.440 -0.5847  0.0151 -0.0699
17214TIP3    H173057   5.132   1.440  16.466  0.1190  0.2640 -1.1048
17214TIP3    H273058   5.103   1.302  16.521 -2.0333  1.2118  0.3153
17215TIP3   OH273059   1.452   2.423   2.246 -0.4853  0.3574 -0.3766
17215TIP3    H173060   1.376   2.411   2.189 -1.6490 -0.4392  1.2471
17215TIP3    H273061   1.418   2.406   2.334  1.2966  1.2721  0.5334
17216TIP3   OH273062   0.636   4.367  11.776 -0.5088  0.0248 -0.5340
17216TIP3    H173063   0.563   4.306  11.767 -1.4468  0.9791  0.2683
17216TIP3    H273064   0.594   4.451  11.794  0.7879  0.2403  1.9116
17217TIP3   OH273065   2.848   5.156  15.891  0.0720 -0.4447  0.5407
17217TIP3    H173066   2.870   5.084  15.832 -0.6534 -0.3960  0.1964
17217TIP3    H273067   2.796   5.115  15.960  0.2399 -0.3635  0.7167
17218TIP3   OH273068   1.814   4.218  13.054 -0.3615 -0.2223 -0.1419
17218TIP3    H173069   1.820   4.307  13.018  1.5610 -0.8023 -1.3839
17218TIP3    H273070   1.722   4.210  13.081 -1.3499  1.1364 -2.7307
17219TIP3   OH273071   2.779   4.009   4.526 -0.1834 -0.1508 -0.4546
17219TIP3    H173072   2.752   4.026   4.616 -1.1771 -1.8098 -0.4200
17219TIP3    H273073   2.725   3.937   4.496  1.1133 -0.5940 -1.9198
17220TIP3   OH273074   0.573   0.590   4.088  0.0523  0.4013  0.5176
17220TIP3    H173075   0.647   0.575   4.030  0.9237 -0.7161  1.8610
17220TIP3    H273076   0.500   0.609   4.029  1.3346  1.3052 -0.8410
17221TIP3   OH273077   2.197   1.771   0.662  0.0319 -0.8060 -0.1592
17221TIP3    H173078   2.183   1.679   0.641  0.4343 -0.9309  0.1116
17221TIP3    H273079   2.224   1.772   0.754  1.0531 -0.5165 -0.4510
17222TIP3   OH273080   0.573   3.627   2.321  0.3673  0.4217 -0.2636
17222TIP3    H173081   0.502   3.612   2.384 -1.9082  4.0553 -1.6317
17222TIP3    H273082   0.641   3.672   2.371  0.7215 -0.9762  0.5559
17223TIP3   OH273083   6.279   3.508   2.515 -0.3439 -0.3323  0.5280
17223TIP3    H173084   6.273   3.562   2.437  0.1737  0.1132  0.7871
17223TIP3    H273085   6.189   3.485   2.537 -0.4004 -2.7933 -1.7980
17224TIP3   OH273086   2.752   4.451  12.395 -0.3928 -0.0068 -0.0556
17224TIP3    H173087   2.666   4.430  12.358 -0.4643  0.2358 -0.0281
17224TIP3    H273088   2.797   4.367  12.400 -0.6914 -0.1586  0.0912
17225TIP3   OH273089   1.762   5.789  12.500  0.2147  0.0208 -0.0788
17225TIP3    H173090   1.680   5.827  12.532 -0.7721 -0.6383 -1.7301
17225TIP3    H273091   1.823   5.799  12.573 -1.8238 -1.1158  1.9028
17226TIP3   OH273092   4.845   0.664   2.697  0.0368  0.0924  0.0483
17226TIP3    H173093   4.783   0.664   2.770  0.1226  0.4615  0.1216
17226TIP3    H273094   4.852   0.756   2.671  0.4996  0.0442 -0.0048
17227TIP3   OH273095   2.883   0.446   3.129  0.0510  0.3396  0.6830
17227TIP3    H173096   2.809   0.507   3.121  0.5884  0.7785 -1.9231
17227TIP3    H273097   2.853   0.380   3.191 -2.3475  0.7751  0.0739
17228TIP3   OH273098   0.424   3.255  14.396  0.2414 -0.0796  0.0415
17228TIP3    H173099   0.464   3.169  14.413  0.3519 -0.6716 -2.6881
17228TIP3    H273100   0.386   3.247  14.308 -0.1861  2.5205 -0.0985
17229TIP3   OH273101   0.290   0.689   0.937  0.2185  0.7787 -0.3940
17229TIP3    H173102   0.339   0.709   0.857 -1.0418 -1.2483 -1.7586
17229TIP3    H273103   0.217   0.750   0.937 -1.1695 -0.7775 -2.1894
17230TIP3   OH273104   1.974   2.774  14.006 -0.2854  0.0436 -0.2339
17230TIP3    H173105   2.045   2.775  14.070  0.7097 -1.3957 -1.2454
17230TIP3    H273106   1.909   2.714  14.042 -1.6782  2.2963  1.2943
17231TIP3   OH273107   2.195   3.064   1.799  0.1884  0.6707 -0.0281
17231TIP3    H173108   2.102   3.072   1.822  0.1901  0.5068  0.0383
17231TIP3    H273109   2.207   2.971   1.780  0.1110  0.8460 -1.0132
17232TIP3   OH273110   4.161   5.759   2.769  0.7126 -0.4294  0.2360
17232TIP3    H173111   4.084   5.776   2.714  2.0393 -1.8869 -2.2355
17232TIP3    H273112   4.133   5.689   2.829  0.0579 -0.8171 -0.5154
17233TIP3   OH273113   5.217   3.652  14.739  0.4015  0.1203  0.7853
17233TIP3    H173114   5.296   3.663  14.792  0.5236  1.1741  0.4074
17233TIP3    H273115   5.193   3.741  14.713  0.4969 -0.3629 -1.1387
17234TIP3   OH273116   0.590   0.835   2.749 -0.0414  0.0671 -0.2691
17234TIP3    H173117   0.616   0.809   2.661  0.5008 -0.9012  0.1681
17234TIP3    H273118   0.496   0.819   2.752  0.0110 -0.2900 -0.5309
17235TIP3   OH273119   1.897   1.907  13.647  0.2153  0.3984 -0.3328
17235TIP3    H173120   1.991   1.903  13.632  0.1372 -0.2781 -0.6449
17235TIP3    H273121   1.864   1.963  13.577  0.5460  1.8359  0.5966
17236TIP3   OH273122   0.963   0.705   5.527 -0.3630 -0.1605 -0.1662
17236TIP3    H173123   1.030   0.711   5.595 -2.0323  0.0615  1.5507
17236TIP3    H273124   0.988   0.628   5.476 -0.3853 -1.9044  2.2823
17237TIP3   OH273125   1.647   1.882   1.278 -0.5569  0.5037  0.1819
17237TIP3    H173126   1.663   1.803   1.330  1.0763  0.4085 -0.3839
17237TIP3    H273127   1.607   1.944   1.339  0.7330  0.1806  1.4094
17238TIP3   OH273128   0.299   0.591   3.243 -0.0989 -0.5194 -0.1667
17238TIP3    H173129   0.314   0.499   3.265 -0.3889 -0.3081  0.9883
17238TIP3    H273130   0.351   0.640   3.308 -1.7090  0.1459  0.6739
17239TIP3   OH273131   3.110   2.037  15.862  0.7247 -0.5512 -0.1669
17239TIP3    H173132   3.132   2.001  15.947 -4.1132 -0.2575  1.4992
17239TIP3    H273133   3.190   2.081  15.833  2.7622 -1.1046  3.9292
17240TIP3   OH273134   0.196   2.129   0.164 -0.2309  0.6580 -0.2965
17240TIP3    H173135   0.247   2.181   0.102  2.1235 -1.9102 -0.7418
17240TIP3    H273136   0.193   2.042   0.124 -0.3993 -0.5683  2.2294
17241TIP3   OH273137   6.719   4.015  13.889 -0.7410  0.0679 -0.2889
17241TIP3    H173138   6.703   3.922  13.905 -0.6436 -0.0431 -0.8059
17241TIP3    H273139   6.740   4.051  13.975 -0.6886 -0.4088 -0.0978
17242TIP3   OH273140   2.506   2.360   0.915 -0.7502  0.4206 -0.4190
17242TIP3    H173141   2.441   2.394   0.854  0.4041  0.0089 -1.9460
17242TIP3    H273142   2.558   2.436   0.939  0.1781  0.2381 -1.7463
17243TIP3   OH273143   5.237   1.131   2.814  0.3253 -0.4246  0.4429
17243TIP3    H173144   5.322   1.171   2.800  0.1505 -0.5873 -1.2404
17243TIP3    H273145   5.197   1.126   2.727 -1.0241 -1.2002  1.0604
17244TIP3   OH273146   0.970   4.874   1.093  0.1783  0.4521  0.4390
17244TIP3    H173147   1.063   4.848   1.091 -0.1738 -1.0023  1.4918
17244TIP3    H273148   0.955   4.904   1.182 -0.7707 -1.0478  0.8247
17245TIP3   OH273149   1.166   3.938  15.898 -0.0594  0.0766  0.1017
17245TIP3    H173150   1.100   3.956  15.966 -1.1031  0.6696 -1.0248
17245TIP3    H273151   1.125   3.968  15.817  0.9672 -1.0416 -0.8682
17246TIP3   OH273152   3.930   6.095  12.829  0.5129  0.2893 -0.1330
17246TIP3    H173153   4.018   6.093  12.793  0.8530  1.0618  0.6389
17246TIP3    H273154   3.926   6.176  12.879 -1.6176  1.8695 -2.5959
17247TIP3   OH273155   6.000   4.688   3.612 -0.1286 -0.2168  0.1376
17247TIP3    H173156   6.082   4.706   3.660 -0.3706 -1.0101  0.8705
17247TIP3    H273157   6.015   4.725   3.525  0.5838  0.6608  0.6114
17248TIP3   OH273158   5.705   0.775   5.045 -0.2254  0.0262  0.0281
17248TIP3    H173159   5.699   0.808   5.134  0.2639 -0.4654  0.2466
17248TIP3    H273160   5.776   0.825   5.005 -0.6950  0.5162 -0.2130
17249TIP3   OH273161   4.119   6.640  15.132 -0.0591 -0.1070  0.4818
17249TIP3    H173162   4.069   6.653  15.052  0.3578  1.8405  0.4895
17249TIP3    H273163   4.210   6.656  15.107  0.0455  0.8204  1.3633
17250TIP3   OH273164   4.736   4.461   2.414  0.1277  0.5035  0.3014
17250TIP3    H173165   4.819   4.434   2.376  0.5143  1.3537  0.5057
17250TIP3    H273166   4.670   4.410   2.367  0.8760 -1.6918  1.5385
17251TIP3   OH273167   2.392   3.018   5.313 -0.4157 -0.1719  0.3799
17251TIP3    H173168   2.409   3.031   5.220  0.2803 -0.5897  0.4355
17251TIP3    H273169   2.417   3.100   5.355 -1.3228  0.2394  0.1399
17252TIP3   OH273170   2.366   0.288  12.541  0.1139  0.0276 -0.3199
17252TIP3    H173171   2.307   0.296  12.466 -0.8835  1.0486  0.5349
17252TIP3    H273172   2.403   0.375  12.551  0.3455 -0.1388  0.2956
17253TIP3   OH273173   4.480   5.849  11.348 -0.6437  0.2426 -0.4519
17253TIP3    H173174   4.390   5.838  11.378  0.1694 -2.2951  1.3474
17253TIP3    H273175   4.528   5.879  11.425  0.7465 -2.5245 -0.1164
17254TIP3   OH273176   0.643   2.245   6.249 -0.4607 -0.0497  0.3558
17254TIP3    H173177   0.627   2.268   6.341 -0.4656 -1.0128  0.6117
17254TIP3    H273178   0.564   2.199   6.223 -0.3764  0.0545 -0.0799
17255TIP3   OH273179   3.114   2.065   3.252 -0.1170 -0.5318 -0.0837
17255TIP3    H173180   3.048   2.127   3.283 -0.5220 -1.1762  0.3580
17255TIP3    H273181   3.070   2.015   3.184  0.5195  0.3290 -1.1606
17256TIP3   OH273182   0.369   4.202  15.781 -0.1751 -0.4106 -0.3316
17256TIP3    H173183   0.285   4.169  15.813  0.3118 -3.1130 -1.5552
17256TIP3    H273184   0.350   4.234  15.693  0.0182 -0.7769 -0.5074
17257TIP3   OH273185   5.969   2.574   3.066 -0.2972 -0.2151  0.1303
17257TIP3    H173186   6.006   2.658   3.094 -1.4323 -0.2648  1.9180
17257TIP3    H273187   6.044   2.526   3.030  0.5324  1.2311 -0.1578
17258TIP3   OH273188   5.575   3.164  13.762 -0.3642 -0.0278 -0.0557
17258TIP3    H173189   5.647   3.226  13.750 -0.5204  0.2234  0.2709
17258TIP3    H273190   5.496   3.219  13.760 -0.5310 -0.2701 -0.1776
17259TIP3   OH273191   1.539   6.619   2.041 -0.0852 -0.4308  0.1802
17259TIP3    H173192   1.625   6.576   2.031 -0.7153 -2.2355  1.8422
17259TIP3    H273193   1.559   6.707   2.071  1.1956 -0.9189  0.8272
17260TIP3   OH273194   3.115   2.087  16.161  0.0032  0.2464  0.7506
17260TIP3    H173195   3.021   2.095  16.145  0.0141  0.0179  0.5649
17260TIP3    H273196   3.134   2.152  16.229 -0.5310 -0.5960  1.7382
17261TIP3   OH273197   4.031   1.546  10.698 -0.6075 -0.5682  0.3887
17261TIP3    H173198   3.956   1.570  10.753 -0.2629  2.2743 -0.2325
17261TIP3    H273199   3.998   1.476  10.642 -3.5930  1.9529 -1.3220
17262TIP3   OH273200   6.560   3.209   3.259  0.1990 -0.0255 -0.3061
17262TIP3    H173201   6.573   3.303   3.271 -1.2210  0.1581  0.0128
17262TIP3    H273202   6.474   3.192   3.298  0.2913 -1.4000 -0.6561
17263TIP3   OH273203   4.127   5.097   3.401  0.0858 -0.2259 -0.3573
17263TIP3    H173204   4.075   5.026   3.440 -1.5226  0.8400 -0.4690
17263TIP3    H273205   4.189   5.052   3.343  1.1902 -1.7276  1.8120
17264TIP3   OH273206   3.655   1.400  12.049  0.5473  0.0139 -0.1710
17264TIP3    H173207   3.681   1.448  12.127 -1.0675  1.2136 -0.3085
17264TIP3    H273208   3.706   1.320  12.051  0.2268 -0.1933  2.3489
17265TIP3   OH273209   5.392   2.307  14.646 -0.2360 -0.4466  0.7325
17265TIP3    H173210   5.344   2.369  14.591  0.5462 -1.0077 -0.6470
17265TIP3    H273211   5.471   2.355  14.672  0.3272 -0.7901 -0.2632
17266TIP3   OH273212   4.316   5.586   1.227 -0.5506  0.1900  0.5392
17266TIP3    H173213   4.240   5.578   1.285 -0.6842  1.8867  0.6451
17266TIP3    H273214   4.280   5.620   1.145  0.1546  1.7643  0.8429
17267TIP3   OH273215   2.114   6.644  14.248  0.8737 -0.1175 -0.1294
17267TIP3    H173216   2.141   6.680  14.332 -0.7045 -0.8292  0.7073
17267TIP3    H273217   2.166   6.564  14.239  0.4612 -0.4689  0.5561
17268TIP3   OH273218   5.073   0.830  13.408  0.1598  0.3401  0.5047
17268TIP3    H173219   5.062   0.780  13.488 -0.5305  1.1040  0.8966
17268TIP3    H273220   5.104   0.916  13.437 -1.5486  1.1308  0.1012
17269TIP3   OH273221   2.761   5.709   1.977 -0.3005 -0.5397 -0.4573
17269TIP3    H173222   2.815   5.650   2.030 -0.2179  0.2411  0.3577
17269TIP3    H273223   2.699   5.651   1.932 -2.1358 -1.1250  2.5260
17270TIP3   OH273224   3.144   1.509   1.188 -0.2011  1.0369 -0.2976
17270TIP3    H173225   3.085   1.477   1.257  1.2300 -0.7317  0.2021
17270TIP3    H273226   3.221   1.540   1.235  0.9076 -0.4462 -1.0446
17271TIP3   OH273227   2.300   5.927  12.325 -0.6103  0.1102  0.1597
17271TIP3    H173228   2.333   5.882  12.403 -0.5309  2.2211  1.4086
17271TIP3    H273229   2.211   5.893  12.315  0.1103 -1.8090 -0.1938
17272TIP3   OH273230   0.877   4.219  14.598 -0.5072 -0.0159 -0.2610
17272TIP3    H173231   0.958   4.190  14.640 -2.1107 -1.5672  1.9737
17272TIP3    H273232   0.866   4.309  14.628  0.2147  0.1102 -0.3446
17273TIP3   OH273233   5.912   0.247   0.371 -0.3419 -0.2222 -0.1355
17273TIP3    H173234   5.869   0.170   0.335  1.2412 -1.0925 -0.2381
17273TIP3    H273235   5.930   0.226   0.462  2.1431 -0.9590 -0.7237
17274TIP3   OH273236   4.289   3.649  11.900 -0.0504  0.4913  0.4991
17274TIP3    H173237   4.354   3.713  11.928 -0.4818  1.1891 -0.0510
17274TIP3    H273238   4.320   3.619  11.814 -0.6647  1.1480  0.0375
17275TIP3   OH273239   0.424   1.685   1.800  0.0546  0.4464  0.3173
17275TIP3    H173240   0.420   1.777   1.773  0.2010  0.0623 -1.0926
17275TIP3    H273241   0.508   1.654   1.768 -0.0212 -0.2012  0.7324
17276TIP3   OH273242   0.665   6.188  14.384 -0.4802 -0.0349  0.0865
17276TIP3    H173243   0.650   6.277  14.417 -0.8619 -0.2802  0.5953
17276TIP3    H273244   0.760   6.184  14.369 -0.5514  0.6959 -0.6705
17277TIP3   OH273245   4.919   4.040  14.822 -0.1942  0.0455  0.2265
17277TIP3    H173246   4.925   3.976  14.751  1.0474 -1.0974  1.3030
17277TIP3    H273247   4.923   4.125  14.778  1.5458 -0.6214 -1.0406
17278TIP3   OH273248   3.101   6.231   1.544 -0.0146  0.4001 -0.2958
17278TIP3    H173249   3.024   6.271   1.584 -1.4043 -3.0656  0.9349
17278TIP3    H273250   3.159   6.212   1.619  1.0472  0.9737 -0.9492
17279TIP3   OH273251   1.854   4.529   6.628 -0.1254 -0.1306  0.3818
17279TIP3    H173252   1.935   4.554   6.584 -0.0336 -1.0080  0.0216
17279TIP3    H273253   1.881   4.463   6.692 -0.6801 -1.2930 -0.5316
17280TIP3   OH273254   3.775   3.290  12.374  0.3729  0.0848  0.5004
17280TIP3    H173255   3.858   3.320  12.410  1.0803 -0.7991 -0.3493
17280TIP3    H273256   3.775   3.195  12.389 -0.0671 -0.0522 -0.3158
17281TIP3   OH273257   2.916   5.507  13.082 -0.3615 -0.2398 -0.7160
17281TIP3    H173258   2.999   5.476  13.118 -1.0204 -1.7448 -0.4306
17281TIP3    H273259   2.929   5.509  12.987 -0.1981 -1.0994 -0.7131
17282TIP3   OH273260   1.121   6.240   2.765  0.0496  0.3067  0.1723
17282TIP3    H173261   1.132   6.237   2.860  0.6793  0.0931  0.0991
17282TIP3    H273262   1.080   6.156   2.744 -1.9918  1.1797  0.4672
17283TIP3   OH273263   6.586   4.135  13.357  0.1424  0.1862 -0.6093
17283TIP3    H173264   6.673   4.159  13.326  0.7314  0.3560  1.0702
17283TIP3    H273265   6.588   4.152  13.451 -1.3337 -0.9021 -0.3345
17284TIP3   OH273266   0.184   4.237   1.899  0.4946 -0.1446  0.6733
17284TIP3    H173267   0.214   4.151   1.871 -0.2481 -0.2033 -0.0010
17284TIP3    H273268   0.260   4.278   1.939  0.8499 -1.1148  1.0147
17285TIP3   OH273269   0.980   5.752  15.557  0.3242  0.4077 -0.0698
17285TIP3    H173270   1.057   5.805  15.535 -1.5320  3.4046  0.0394
17285TIP3    H273271   0.970   5.764  15.651 -0.1254 -0.2200 -0.0329
17286TIP3   OH273272   1.739   2.001  14.065  0.2288 -0.3534 -0.6275
17286TIP3    H173273   1.806   2.054  14.021  0.2002 -1.2472 -1.8052
17286TIP3    H273274   1.675   1.982  13.997 -1.2650  0.5048  0.4967
17287TIP3   OH273275   5.766   0.124  15.543  0.3625 -0.1773 -0.2728
17287TIP3    H173276   5.751   0.032  15.563 -1.9920  0.2466  0.1873
17287TIP3    H273277   5.710   0.143  15.468  1.3329  0.7431 -0.8050
17288TIP3   OH273278   2.839   3.591  13.954  0.0102 -0.5437  0.2335
17288TIP3    H173279   2.820   3.636  14.037  0.0123 -0.8956  0.4281
17288TIP3    H273280   2.887   3.655  13.902  0.1270 -0.3649  0.5605
17289TIP3   OH273281   5.310   5.455   4.253  0.1691 -0.2367  0.1782
17289TIP3    H173282   5.341   5.477   4.341 -0.2552 -0.3902  0.3718
17289TIP3    H273283   5.294   5.360   4.257  1.3162 -0.4771 -0.4353
17290TIP3   OH273284   4.072   0.203   0.205  0.2138  0.0454  0.1846
17290TIP3    H173285   4.085   0.168   0.117 -0.3860  0.0881  0.0725
17290TIP3    H273286   4.101   0.132   0.263  0.6354  0.0276 -0.0450
17291TIP3   OH273287   6.620   0.293   1.109  0.2392  0.5397  0.1812
17291TIP3    H173288   6.599   0.383   1.137 -1.5337  0.7889 -1.6478
17291TIP3    H273289   6.546   0.241   1.140  0.8310 -0.1321  0.4740
17292TIP3   OH273290   2.500   1.293   5.981  0.0798 -0.3576  0.4971
17292TIP3    H173291   2.542   1.275   6.065  3.9399  1.6603 -0.7744
17292TIP3    H273292   2.542   1.233   5.919  0.9759  1.4812 -0.7807
17293TIP3   OH273293   2.069   1.170  12.170  0.5627  0.3002  0.4847
17293TIP3    H173294   2.102   1.252  12.134  0.2050 -0.1591 -0.9592
17293TIP3    H273295   1.978   1.167  12.144  0.3373 -0.1615  1.2821
17294TIP3   OH273296   0.035   5.434  12.831 -0.1499  1.0862  0.2851
17294TIP3    H173297   0.058   5.373  12.902  0.8804  0.1341 -0.8267
17294TIP3    H273298   0.000   5.511  12.877  0.3999  0.4699  1.8284
17295TIP3   OH273299   3.664   4.162   5.848  0.6314 -0.0990 -0.3866
17295TIP3    H173300   3.720   4.119   5.912  2.1255  2.9852  0.5642
17295TIP3    H273301   3.724   4.200   5.784 -0.4664  1.5776 -0.4911
17296TIP3   OH273302   2.038   1.916  12.862  0.2501  0.2901 -0.2158
17296TIP3    H173303   1.997   1.958  12.937  1.0467  0.7617 -0.0331
17296TIP3    H273304   1.988   1.835  12.850  0.2068  0.1339  0.9103
17297TIP3   OH273305   3.253   4.286   5.694 -0.4793  0.0595 -0.0913
17297TIP3    H173306   3.326   4.340   5.724  0.0760 -1.3317  1.1740
17297TIP3    H273307   3.272   4.269   5.602  0.8290 -0.3035  0.2303
17298TIP3   OH273308   0.144   1.714  12.883 -0.2472  0.0518  0.2214
17298TIP3    H173309   0.179   1.785  12.830  1.1600  1.5518  2.9031
17298TIP3    H273310   0.085   1.757  12.945 -1.6708 -1.5688  0.0638
17299TIP3   OH273311   2.940   6.381   0.505  0.4698  0.4198  0.2719
17299TIP3    H173312   2.878   6.415   0.570  0.0995 -0.2311  0.2673
17299TIP3    H273313   2.906   6.294   0.483  2.2134 -0.6021  1.4140
17300TIP3   OH273314   6.018   3.799   2.192  0.4703  0.0803 -0.0214
17300TIP3    H173315   6.019   3.735   2.121 -1.7238 -1.3760  1.1641
17300TIP3    H273316   5.947   3.859   2.171  2.7621  2.5691 -1.3430
17301TIP3   OH273317   3.200   0.963  12.899 -0.0001  0.7736  0.5611
17301TIP3    H173318   3.113   0.972  12.936 -1.1029  0.3699 -1.7830
17301TIP3    H273319   3.211   0.869  12.884  0.1859  0.9540 -0.5494
17302TIP3   OH273320   6.659   5.283   6.100  0.0745 -0.4142  0.6337
17302TIP3    H173321   6.581   5.319   6.057  0.3054 -0.0744  0.5008
17302TIP3    H273322   6.661   5.328   6.185  0.7273  0.3741  0.2107
17303TIP3   OH273323   4.950   4.318  15.597 -0.0394 -0.0196  0.3696
17303TIP3    H173324   4.901   4.361  15.527  0.2958 -1.2449 -0.6420
17303TIP3    H273325   5.022   4.273  15.553 -0.0005 -1.0858  1.4582
17304TIP3   OH273326   4.555   1.894  12.111  0.0931 -0.3337  0.4793
17304TIP3    H173327   4.476   1.908  12.058 -0.1737  0.2096  1.0158
17304TIP3    H273328   4.621   1.949  12.071 -0.4081  0.9562  1.3583
17305TIP3   OH273329   5.019   4.788   4.274  0.4541 -0.1134  0.4426
17305TIP3    H173330   5.020   4.879   4.305 -0.9369 -0.2552  0.9900
17305TIP3    H273331   4.997   4.795   4.182  1.2123  0.1407  0.2737
17306TIP3   OH273332   0.417   4.052  16.998 -0.1416  0.4264  0.2734
17306TIP3    H173333   0.351   3.987  16.975 -0.2401 -0.9363  3.8755
17306TIP3    H273334   0.478   4.051  16.924 -3.4435  1.0054 -2.7195
17307TIP3   OH273335   1.229   0.350   1.958 -0.4802 -0.3230  0.1436
17307TIP3    H173336   1.248   0.343   2.051  0.4474  0.6275  0.0451
17307TIP3    H273337   1.292   0.291   1.916 -0.0551  0.1924  0.0454
17308TIP3   OH273338   2.939   0.473  13.590 -0.0574  0.2154 -0.5310
17308TIP3    H173339   2.978   0.414  13.655 -2.6698  0.0752  1.0416
17308TIP3    H273340   2.897   0.415  13.527 -0.9284  0.3762 -0.1013
17309TIP3   OH273341   2.523   6.014   1.194  0.0370  0.1909  0.4294
17309TIP3    H173342   2.612   5.991   1.168 -0.8445 -3.2532 -0.1435
17309TIP3    H273343   2.509   6.102   1.159  1.9353 -0.7109 -3.0085
17310TIP3   OH273344   6.081   5.117   5.456  0.0182 -0.3990 -0.4544
17310TIP3    H173345   5.990   5.114   5.427 -0.6302  1.5264  1.1444
17310TIP3    H273346   6.113   5.027   5.446 -2.2634 -1.2694 -0.4072
17311TIP3   OH273347   3.084   4.947  13.067  0.1226 -0.2162 -0.3799
17311TIP3    H173348   3.074   4.863  13.023  0.5442 -0.4395 -0.0599
17311TIP3    H273349   2.995   4.972  13.091 -0.0044 -0.5728 -0.4736
17312TIP3   OH273350   6.655   0.386   1.450  0.4750 -0.1241 -0.2548
17312TIP3    H173351   6.597   0.396   1.374  0.9116  1.6749 -0.3887
17312TIP3    H273352   6.597   0.358   1.521  0.0515 -1.7960 -1.1989
17313TIP3   OH273353   2.698   6.468  12.192 -0.2778 -0.2135 -0.7314
17313TIP3    H173354   2.623   6.408  12.195 -0.1639 -0.3252  0.5589
17313TIP3    H273355   2.758   6.429  12.128  0.5142 -2.3922  1.2120
17314TIP3   OH273356   4.972   3.009   0.693 -0.1350 -0.1189 -0.3750
17314TIP3    H173357   5.009   3.086   0.737 -0.1801  0.2842 -1.0141
17314TIP3    H273358   5.048   2.966   0.653 -0.1106 -0.4042 -0.0200
17315TIP3   OH273359   6.244   1.113  13.205 -0.0328 -0.3886 -0.4623
17315TIP3    H173360   6.241   1.039  13.266 -0.8445 -0.3290 -0.4202
17315TIP3    H273361   6.159   1.111  13.161 -0.2914  0.8859 -0.0316
17316TIP3   OH273362   5.282   0.169  13.810  0.0238 -0.3647  0.6753
17316TIP3    H173363   5.329   0.251  13.792 -1.8400  0.6176 -0.0557
17316TIP3    H273364   5.290   0.157  13.905  2.0527 -0.4762  0.5182
17317TIP3   OH273365   4.963   2.941  13.505  0.1741  0.2233  0.2105
17317TIP3    H173366   5.012   2.938  13.587 -1.4118 -4.0867  1.2965
17317TIP3    H273367   5.028   2.921  13.437  0.7054 -1.4167  1.1437
17318TIP3   OH273368   4.764   4.089  11.258 -0.0554  0.2307  0.5701
17318TIP3    H173369   4.739   4.053  11.174 -0.7210 -1.0380  1.2810
17318TIP3    H273370   4.858   4.105  11.251 -0.2913  1.1674 -0.7484
17319TIP3   OH273371   6.069   6.666  14.581 -0.0744  0.3142 -0.2061
17319TIP3    H173372   6.085   6.642  14.672  0.8130  2.6119  0.3301
17319TIP3    H273373   6.155   6.668  14.541 -0.3886  0.0079 -0.9131
17320TIP3   OH273374   0.557   0.169  10.942  0.4690 -0.1981  0.4066
17320TIP3    H173375   0.481   0.151  10.997 -0.5354  0.9650 -0.5156
17320TIP3    H273376   0.519   0.184  10.855  1.9328 -1.3220 -0.4676
17321TIP3   OH273377   1.567   3.815  17.199  0.5179 -0.3264 -0.0664
17321TIP3    H173378   1.542   3.764  17.122  3.3672 -0.7248 -0.8270
17321TIP3    H273379   1.580   3.751  17.268 -3.4350  0.1296  1.3381
17322TIP3   OH273380   0.358   3.634   1.358 -0.3568  0.5474  0.0032
17322TIP3    H173381   0.324   3.677   1.279 -1.2732  2.9391  1.5803
17322TIP3    H273382   0.451   3.656   1.360 -0.5259  1.2631  0.0621
17323TIP3   OH273383   6.648   4.696  13.564  0.7025  0.3905 -0.0279
17323TIP3    H173384   6.725   4.688  13.620  0.6617  0.9302  0.1197
17323TIP3    H273385   6.582   4.735  13.621  0.5105  0.4954 -0.3209
17324TIP3   OH273386   1.525   5.977  15.156 -1.4515  0.2386 -0.2312
17324TIP3    H173387   1.619   5.986  15.174 -1.4639 -1.4567  0.9877
17324TIP3    H273388   1.521   5.935  15.070 -1.1583  1.6315 -0.9458
17325TIP3   OH273389   0.202   6.565  12.428  0.0001  0.0010  0.0252
17325TIP3    H173390   0.249   6.581  12.346 -0.0577  1.1521  0.1992
17325TIP3    H273391   0.186   6.653  12.463 -1.5068 -0.4075  0.4045
17326TIP3   OH273392   5.575   1.773  14.977 -0.2974 -0.2502  0.0628
17326TIP3    H173393   5.658   1.797  14.936 -0.2902 -1.3327 -0.5977
17326TIP3    H273394   5.569   1.830  15.054  0.9013  0.0691 -0.0586
17327TIP3   OH273395   0.261   5.485   0.743 -0.0192  0.0677  0.1202
17327TIP3    H173396   0.295   5.553   0.684  0.5059 -0.0499  0.2877
17327TIP3    H273397   0.317   5.490   0.820  0.8698 -1.4468 -0.3913
17328TIP3   OH273398   5.497   3.017  10.670  0.2210  0.3029  0.0308
17328TIP3    H173399   5.419   3.066  10.698  0.2847  0.2441  0.3130
17328TIP3    H273400   5.560   3.084  10.645 -0.8697  0.3698 -2.9074
17329TIP3   OH273401   5.653   1.812   2.509  0.3680 -0.1254  0.5865
17329TIP3    H173402   5.676   1.733   2.558  1.1253 -0.2651  0.0218
17329TIP3    H273403   5.573   1.788   2.461  1.1277 -0.8999 -0.3526
17330TIP3   OH273404   4.310   3.275   5.872  0.4460  0.0419 -0.3211
17330TIP3    H173405   4.385   3.307   5.923  0.3374 -0.2139  0.0066
17330TIP3    H273406   4.298   3.340   5.803  0.9597  0.0944 -0.3652
17331TIP3   OH273407   5.135   0.216   2.849  0.3351  0.2107 -0.3146
17331TIP3    H173408   5.214   0.269   2.848 -0.7003  2.1326  3.1269
17331TIP3    H273409   5.068   0.271   2.809 -0.0511  0.2498  0.3547
17332TIP3   OH273410   5.665   2.652  13.602 -0.1195  0.0374  0.0935
17332TIP3    H173411   5.570   2.654  13.611 -0.2231 -0.7430 -0.6806
17332TIP3    H273412   5.685   2.560  13.582  0.4622  0.7528 -3.0909
17333TIP3   OH273413   2.248   0.593  15.972  0.9790  0.3445 -0.2003
17333TIP3    H173414   2.157   0.592  15.941  0.8367  3.5820 -0.1487
17333TIP3    H273415   2.296   0.542  15.906 -0.7476 -1.1077 -0.4262
17334TIP3   OH273416   3.294   1.428   2.163  0.9558  0.5242  0.0502
17334TIP3    H173417   3.389   1.434   2.167  0.8604  1.1611  2.6967
17334TIP3    H273418   3.270   1.488   2.092  2.5085  0.0408 -0.9401
17335TIP3   OH273419   1.205   4.200   1.992 -0.2068  0.1370 -0.4287
17335TIP3    H173420   1.207   4.155   2.076  0.0689 -0.0327 -0.5259
17335TIP3    H273421   1.114   4.230   1.983 -0.1604  0.4455  0.0796
17336TIP3   OH273422   1.699   4.620  10.370  0.2413  0.1124 -0.2957
17336TIP3    H173423   1.654   4.704  10.379 -0.7884 -0.5991  1.8830
17336TIP3    H273424   1.684   4.576  10.454  2.3184 -1.4965 -0.6986
17337TIP3   OH273425   3.701   3.949   3.830 -0.1935  0.1518 -0.4794
17337TIP3    H173426   3.635   4.012   3.802 -0.3971 -0.1158 -0.6018
17337TIP3    H273427   3.678   3.868   3.785  0.1904  0.0440 -0.4840
17338TIP3   OH273428   4.222   0.931  17.028  0.3578  0.0290 -0.2069
17338TIP3    H173429   4.233   0.887  16.945  2.3026  1.3060 -0.6918
17338TIP3    H273430   4.243   0.865  17.094 -1.8504 -1.1846 -0.6285
17339TIP3   OH273431   4.919   3.815  12.824 -0.0057  0.2780  0.2731
17339TIP3    H173432   4.905   3.842  12.733  0.2582  2.2779  0.7709
17339TIP3    H273433   4.977   3.738  12.817  2.6389  2.2150 -1.2213
17340TIP3   OH273434   6.320   6.367  13.226 -0.1413 -0.4997  0.0116
17340TIP3    H173435   6.348   6.457  13.242 -2.3451  0.6121 -1.7997
17340TIP3    H273436   6.283   6.338  13.310  1.2041 -0.0090  0.8065
17341TIP3   OH273437   0.487   5.398  16.028  0.1583  0.1557  0.0247
17341TIP3    H173438   0.453   5.397  16.117  2.2653 -0.9360  0.8704
17341TIP3    H273439   0.451   5.478  15.989 -1.4554  0.2216  1.5599
17342TIP3   OH273440   1.322   2.674   4.134 -0.4799  0.5182 -0.1555
17342TIP3    H173441   1.322   2.622   4.053 -0.0276 -0.5870  0.5401
17342TIP3    H273442   1.410   2.663   4.169 -1.1482 -0.3900  1.3442
17343TIP3   OH273443   0.363   4.151   5.930 -0.1371 -0.1695  0.1594
17343TIP3    H173444   0.450   4.155   5.890  0.0513  0.6448  0.6328
17343TIP3    H273445   0.380   4.153   6.024 -0.6784  0.1336  0.2523
17344TIP3   OH273446   4.776   4.569   3.689  0.1175 -0.0667  0.1151
17344TIP3    H173447   4.723   4.629   3.636 -0.8186 -0.0707  1.0371
17344TIP3    H273448   4.714   4.526   3.748  1.1346 -0.1156  1.1865
17345TIP3   OH273449   5.752   3.610   5.636  0.6173 -0.2072 -0.4737
17345TIP3    H173450   5.817   3.676   5.662  0.4038 -0.5547  1.0486
17345TIP3    H273451   5.680   3.660   5.598  0.9554  0.3349 -0.4058
17346TIP3   OH273452   4.786   6.784  15.359 -0.2569 -0.1869 -0.4525
17346TIP3    H173453   4.876   6.814  15.347 -0.3623  0.2449 -0.1793
17346TIP3    H273454   4.788   6.691  15.335  0.1303 -0.0296 -1.0520
17347TIP3   OH273455   2.576   6.340  13.109 -0.4981  0.5770 -0.0177
17347TIP3    H173456   2.613   6.252  13.108 -0.2209  0.6877  0.3540
17347TIP3    H273457   2.607   6.379  13.027 -1.4062  0.0198 -0.6512
17348TIP3   OH273458   1.340   0.932  12.277 -0.4651 -0.1863  0.0841
17348TIP3    H173459   1.393   0.933  12.357  0.6120 -0.1061 -0.6205
17348TIP3    H273460   1.343   0.841  12.248 -1.6023 -0.4132  0.5925
17349TIP3   OH273461   2.669   1.622   4.084  0.1812  0.6027  0.1961
17349TIP3    H173462   2.684   1.597   4.175  0.3756  3.2336  0.9720
17349TIP3    H273463   2.590   1.676   4.087  1.0902  2.0599 -0.9272
17350TIP3   OH273464   6.738   3.059   0.191  0.6655  0.3711 -0.1098
17350TIP3    H173465   6.695   3.144   0.204 -0.8163 -0.1347 -1.4583
17350TIP3    H273466   6.770   3.063   0.101  0.5386 -0.5144 -0.1953
17351TIP3   OH273467   3.368   5.878  13.329  0.0292 -0.3892 -0.3895
17351TIP3    H173468   3.454   5.838  13.319  1.5472  2.5386  0.0801
17351TIP3    H273469   3.376   5.934  13.406 -1.2101  2.4606 -2.1840
17352TIP3   OH273470   6.339   5.058  16.481  0.4454 -0.0236  0.1716
17352TIP3    H173471   6.392   5.053  16.401  1.3997 -0.8229  0.8340
17352TIP3    H273472   6.321   4.967  16.503  0.0066  0.2006  0.7495
17353TIP3   OH273473   6.484   1.476   2.727 -0.0580 -0.0985 -0.2240
17353TIP3    H173474   6.534   1.453   2.804 -1.1283  0.1560  0.5687
17353TIP3    H273475   6.393   1.456   2.750 -0.5537  1.2224 -0.9122
17354TIP3   OH273476   3.554   0.071   3.541 -1.2697 -0.0250 -0.2916
17354TIP3    H173477   3.525   0.038   3.456 -0.8249  0.4637 -0.6345
17354TIP3    H273478   3.579   0.162   3.525  4.4043 -1.3829 -0.9989
17355TIP3   OH273479   1.699   0.083  12.184  0.3760  1.0816  0.1958
17355TIP3    H173480   1.627   0.112  12.128  0.2382 -1.1379 -0.8820
17355TIP3    H273481   1.741   0.014  12.134  1.5023  0.3865  2.0315
17356TIP3   OH273482   4.727   1.302  16.685  0.1620 -0.7502 -0.2781
17356TIP3    H173483   4.746   1.357  16.609 -0.0315 -0.9267 -0.4549
17356TIP3    H273484   4.725   1.363  16.759 -1.6160 -0.2736 -0.6866
17357TIP3   OH273485   2.383   5.044   1.970  0.8735 -0.0978 -0.7824
17357TIP3    H173486   2.336   5.102   2.030 -1.7663 -1.4665 -1.3766
17357TIP3    H273487   2.427   4.980   2.027  1.7113  0.9422 -0.2314
17358TIP3   OH273488   3.282   6.786  15.488 -0.2348 -0.3791 -0.7095
17358TIP3    H173489   3.294   6.755  15.398  0.1557 -0.5355 -0.6069
17358TIP3    H273490   3.274   6.881  15.480  2.0000 -0.1535 -0.7196
17359TIP3   OH273491   4.636   5.530  13.335  0.2542 -0.1212 -0.1963
17359TIP3    H173492   4.583   5.502  13.260 -0.0903  1.8066 -0.7399
17359TIP3    H273493   4.662   5.619  13.313  3.7960 -0.9506  0.0418
17360TIP3   OH273494   2.887   4.726   1.639 -0.2646  0.9583 -0.3325
17360TIP3    H173495   2.821   4.720   1.707 -0.8573  1.6713 -0.8232
17360TIP3    H273496   2.931   4.641   1.639  0.6471  1.3567  1.8198
17361TIP3   OH273497   1.704   5.186   2.378 -0.5329  0.3379 -0.5035
17361TIP3    H173498   1.748   5.172   2.295  0.2385  1.6032 -0.3236
17361TIP3    H273499   1.669   5.275   2.373 -2.1711 -0.2449 -0.2173
17362TIP3   OH273500   1.448   4.179  14.365 -0.5621  0.4293  0.3437
17362TIP3    H173501   1.399   4.134  14.296 -1.0789  1.1820  0.2121
17362TIP3    H273502   1.398   4.160  14.445 -2.1409  2.6544 -0.0275
17363TIP3   OH273503   0.174   4.219  16.678  0.6018 -0.2960 -0.1973
17363TIP3    H173504   0.222   4.243  16.757 -0.1173 -0.3198  0.2623
17363TIP3    H273505   0.083   4.242  16.698  0.5800  0.8711 -1.4827
17364TIP3   OH273506   6.709   6.303  13.578 -0.0371 -0.2148  0.2531
17364TIP3    H173507   6.682   6.212  13.565  0.3826 -0.0993 -1.6156
17364TIP3    H273508   6.799   6.297  13.611  0.9805 -0.4971 -2.3791
17365TIP3   OH273509   6.056   4.246   4.095 -0.7384  0.0638  0.0864
17365TIP3    H173510   6.016   4.212   4.175 -0.1424  2.2718  1.4000
17365TIP3    H273511   6.149   4.249   4.114 -0.2824 -1.5464 -1.6029
17366TIP3   OH273512   4.437   2.547   5.905  0.6698 -0.0814  0.3467
17366TIP3    H173513   4.367   2.606   5.880  2.2456  1.4649 -0.6848
17366TIP3    H273514   4.418   2.466   5.859 -0.6652  0.1423  0.4712
17367TIP3   OH273515   5.099   3.985  16.194  0.1789 -0.6238 -0.0127
17367TIP3    H173516   5.027   3.941  16.150  1.2862 -1.8286 -0.6742
17367TIP3    H273517   5.111   3.935  16.275  0.4595 -0.6015 -0.0410
17368TIP3   OH273518   0.121   1.120   0.924  0.2869  0.0524  0.0264
17368TIP3    H173519   0.134   1.213   0.908 -0.4793 -0.0707 -1.5413
17368TIP3    H273520   0.174   1.101   1.002  0.2631  1.8288  0.5191
17369TIP3   OH273521   3.507   0.181   1.605  0.5515  0.0865 -0.3784
17369TIP3    H173522   3.547   0.240   1.669 -1.0481  3.1753 -1.9428
17369TIP3    H273523   3.429   0.147   1.649  0.6516  0.3975  0.0450
17370TIP3   OH273524   4.345   0.004   4.642  0.4344 -0.5566 -0.5509
17370TIP3    H173525   4.300   0.088   4.647  0.7772 -0.3450 -0.9510
17370TIP3    H273526   4.331  -0.036   4.728  0.4716  0.0124 -0.2757
17371TIP3   OH273527   1.484   1.820   4.742  0.3223 -0.2729 -0.1413
17371TIP3    H173528   1.501   1.739   4.695  2.0691  0.2292 -0.4546
17371TIP3    H273529   1.475   1.793   4.834  0.9405 -0.8301 -0.2376
17372TIP3   OH273530   1.558   6.716   1.403  0.1594 -0.0114  0.8721
17372TIP3    H173531   1.564   6.627   1.369  0.6403  0.1534  0.5131
17372TIP3    H273532   1.464   6.732   1.415  0.0582 -0.4673  0.6850
17373TIP3   OH273533   3.420   2.593   1.273 -0.2138 -0.3028 -0.3846
17373TIP3    H173534   3.406   2.515   1.219  0.5521 -1.4667  1.0200
17373TIP3    H273535   3.512   2.614   1.263 -0.5861  0.9737 -1.4114
17374TIP3   OH273536   0.945   2.113  11.484 -0.1465  0.0419 -0.0339
17374TIP3    H173537   0.990   2.029  11.486 -0.7763 -0.3129  1.7623
17374TIP3    H273538   0.990   2.166  11.549 -0.7607  0.5218  0.0124
17375TIP3   OH273539   6.392   6.155  13.939 -0.4076  0.0763  0.4737
17375TIP3    H173540   6.477   6.199  13.945 -0.2792 -0.1558  0.3415
17375TIP3    H273541   6.365   6.145  14.031 -0.2341  0.0361  0.5217
17376TIP3   OH273542   4.571   6.146  11.280  0.0628 -0.1580 -0.3384
17376TIP3    H173543   4.576   6.155  11.185  0.4125  0.8125 -0.2378
17376TIP3    H273544   4.662   6.143  11.309  0.0093 -2.7130 -0.1940
17377TIP3   OH273545   2.887   1.063   2.065 -0.2414  0.2244 -0.2404
17377TIP3    H173546   2.898   1.007   1.989  0.9356  1.1509 -0.7767
17377TIP3    H273547   2.920   1.149   2.038 -1.6161  1.0971  0.6850
17378TIP3   OH273548   0.666   1.406  16.843  0.0047  0.0253  0.2945
17378TIP3    H173549   0.656   1.497  16.814 -0.7465  0.1833  0.9989
17378TIP3    H273550   0.681   1.357  16.763  0.7918  0.8185 -0.0596
17379TIP3   OH273551   1.879   3.672   0.365 -0.4546 -0.2211  0.0024
17379TIP3    H173552   1.861   3.648   0.274  0.3342  1.2469 -0.5744
17379TIP3    H273553   1.830   3.608   0.416 -1.4084 -0.7213 -1.4484
17380TIP3   OH273554   2.358   6.467  16.944  0.0967  0.0672 -1.1157
17380TIP3    H173555   2.327   6.539  16.889  1.3931  0.5866 -1.2163
17380TIP3    H273556   2.454   6.475  16.942  0.2129  0.1679  1.2786
17381TIP3   OH273557   5.854   3.017  13.037  0.4229 -0.4969  0.1619
17381TIP3    H173558   5.857   2.924  13.061 -0.4411 -0.5513  0.0950
17381TIP3    H273559   5.765   3.045  13.061  0.7446  0.3655  0.3778
17382TIP3   OH273560   4.372   1.450  15.394 -0.0942  0.7814 -0.5805
17382TIP3    H173561   4.291   1.466  15.442 -0.5193 -0.3142 -0.9203
17382TIP3    H273562   4.367   1.359  15.366  2.1751  0.0220  1.1475
17383TIP3   OH273563   3.932   4.352  13.982 -0.1957  0.4141 -0.5262
17383TIP3    H173564   3.875   4.290  14.028  1.9315 -1.2106  0.0509
17383TIP3    H273565   3.985   4.297  13.925  0.5998  1.9129 -1.2705
17384TIP3   OH273566   2.699   2.462  15.878 -0.9166  0.2527 -0.0325
17384TIP3    H173567   2.638   2.490  15.947 -0.3331 -1.1423  1.1155
17384TIP3    H273568   2.680   2.369  15.866  1.2268 -0.3399  0.6809
17385TIP3   OH273569   5.321   1.568  11.317  0.4459 -0.3239 -0.5836
17385TIP3    H173570   5.405   1.549  11.360  0.6535 -2.0302 -1.6620
17385TIP3    H273571   5.337   1.647  11.265  1.0658 -0.0379  0.0304
17386TIP3   OH273572   4.436   3.392   3.261  0.5800  0.0034 -0.1407
17386TIP3    H173573   4.411   3.484   3.250  1.2224  0.0981 -0.8554
17386TIP3    H273574   4.356   3.349   3.292  0.1758  0.7340 -0.1505
17387TIP3   OH273575   6.719   2.293   5.144 -0.3212  0.0159 -0.0634
17387TIP3    H173576   6.806   2.260   5.121 -0.0848  1.1741 -0.9058
17387TIP3    H273577   6.673   2.302   5.061 -1.6585 -1.6013  0.4433
17388TIP3   OH273578   2.952   4.513   4.527  0.4282 -0.1329  0.4186
17388TIP3    H173579   2.941   4.462   4.607  1.1367  1.2929  1.4717
17388TIP3    H273580   3.022   4.467   4.479  0.1444 -0.8779  0.7058
17389TIP3   OH273581   2.841   1.560  11.961 -0.5972  0.3617 -0.3814
17389TIP3    H173582   2.747   1.565  11.981 -1.4978 -2.7060 -2.9239
17389TIP3    H273583   2.845   1.512  11.878  3.2855 -0.6047  0.1631
17390TIP3   OH273584   5.241   0.929  12.273 -0.4236  0.5482  1.0568
17390TIP3    H173585   5.168   0.990  12.264  0.3689  1.6486  1.9079
17390TIP3    H273586   5.240   0.880  12.190 -2.0120  0.6348  0.9806
17391TIP3   OH273587   5.710   1.373  13.298 -0.1187  0.3434  0.2840
17391TIP3    H173588   5.714   1.283  13.331 -0.0050  0.5495  0.8358
17391TIP3    H273589   5.706   1.428  13.377  0.7403  0.8739 -0.0333
17392TIP3   OH273590   3.090   0.644   3.787 -0.0699 -0.3312  0.2340
17392TIP3    H173591   3.166   0.677   3.740 -0.3782  1.4790  0.9485
17392TIP3    H273592   3.020   0.706   3.767 -1.2505 -1.6618  0.0221
17393TIP3   OH273593   2.842   1.159   2.523 -0.0767 -0.2651 -0.1603
17393TIP3    H173594   2.817   1.194   2.437 -0.0847  0.8066  0.2591
17393TIP3    H273595   2.816   1.067   2.520 -1.6002  0.1576 -0.7096
17394TIP3   OH273596   6.469   2.536  13.439 -0.0535 -0.5106  0.9634
17394TIP3    H173597   6.375   2.523  13.428 -0.0880 -0.7346  1.4711
17394TIP3    H273598   6.485   2.625  13.407 -0.4183 -0.5204  0.7574
17395TIP3   OH273599   1.862   3.892  16.563 -0.0718  0.2915  0.0637
17395TIP3    H173600   1.886   3.802  16.587 -0.1332  0.7685  2.1139
17395TIP3    H273601   1.945   3.939  16.560 -0.1364  0.4125  0.1548
17396TIP3   OH273602   0.831   4.103   3.351  0.4283  0.3864  0.2295
17396TIP3    H173603   0.824   4.102   3.446 -0.5299  0.0331  0.1708
17396TIP3    H273604   0.859   4.192   3.329  1.3399  0.2705  0.8730
17397TIP3   OH273605   5.141   4.408   2.457 -0.2174  0.6248  0.2171
17397TIP3    H173606   5.170   4.440   2.371 -0.9697  1.6973  0.3411
17397TIP3    H273607   5.062   4.458   2.476 -0.2269  0.1923  1.4214
17398TIP3   OH273608   4.117   1.087   0.666  0.1098  0.5995 -0.3349
17398TIP3    H173609   4.105   1.050   0.579  0.0113  1.4653 -0.7045
17398TIP3    H273610   4.028   1.109   0.695 -0.6267 -4.2965  2.1790
17399TIP3   OH273611   5.231   3.281  16.412 -0.2838  0.2573  0.0512
17399TIP3    H173612   5.148   3.282  16.460 -0.3515  1.4252 -0.0493
17399TIP3    H273613   5.279   3.206  16.447 -0.0653  1.4087  2.3872
17400TIP3   OH273614   4.645   3.725   0.077 -0.0639 -0.1271  0.3215
17400TIP3    H173615   4.646   3.656   0.144 -0.8565 -1.6219 -1.1262
17400TIP3    H273616   4.573   3.782   0.102  0.5194  0.1402  1.4767
17401TIP3   OH273617   5.210   4.667   3.279 -0.0686  0.0741 -0.1233
17401TIP3    H173618   5.288   4.703   3.321  0.1518  1.7017 -1.8169
17401TIP3    H273619   5.236   4.651   3.189 -1.2833 -0.7864 -0.3496
17402TIP3   OH273620   2.983   5.532  16.688  0.5484  0.1277 -0.3516
17402TIP3    H173621   2.960   5.447  16.650 -0.4863  0.6627 -0.9466
17402TIP3    H273622   3.002   5.587  16.613 -2.8919  1.6172 -0.3240
17403TIP3   OH273623   0.673   4.106  16.127  0.2361  0.0692 -0.1391
17403TIP3    H173624   0.759   4.147  16.118  0.7285 -1.1460 -1.2478
17403TIP3    H273625   0.655   4.068  16.041 -1.2239 -0.0614  0.1989
17404TIP3   OH273626   0.034   6.618   2.897 -0.0460  0.4086 -0.1381
17404TIP3    H173627   0.090   6.662   2.961 -0.2429 -1.3203  1.2831
17404TIP3    H273628  -0.055   6.637   2.926 -0.1336 -0.8278  0.4644
17405TIP3   OH273629   0.124   2.481  15.511  0.0605  0.0238 -0.0042
17405TIP3    H173630   0.219   2.494  15.506  0.2771  0.2520  2.8570
17405TIP3    H273631   0.089   2.570  15.523 -0.0930 -0.2875  2.4681
17406TIP3   OH273632   0.497   5.732   2.644 -0.3263 -0.4244 -0.0849
17406TIP3    H173633   0.556   5.798   2.680  0.1513 -1.0368  0.2798
17406TIP3    H273634   0.536   5.707   2.560  0.5541 -1.6188  0.6519
17407TIP3   OH273635   2.927   6.390  13.636  0.5602  0.2580  0.1180
17407TIP3    H173636   2.932   6.435  13.720 -0.4386  0.9462 -0.1725
17407TIP3    H273637   2.833   6.387  13.615  0.7515 -0.3466 -0.7319
17408TIP3   OH273638   1.053   1.104   4.079  0.0293 -0.7297  0.3566
17408TIP3    H173639   1.122   1.043   4.105 -0.7089 -1.3437  0.9312
17408TIP3    H273640   1.020   1.140   4.162 -2.6335 -3.0194  0.4864
17409TIP3   OH273641   6.112   5.238  11.787  0.6829 -0.6840  0.0485
17409TIP3    H173642   6.096   5.293  11.711 -2.7449 -0.0201  1.1112
17409TIP3    H273643   6.078   5.151  11.763 -0.5556 -0.4336  0.8084
17410TIP3   OH273644   2.273   2.491  14.495 -0.4665 -0.4603  0.0500
17410TIP3    H173645   2.262   2.447  14.411  0.3326  0.2435 -0.4422
17410TIP3    H273646   2.355   2.454  14.530 -0.8315 -0.8004  0.5517
17411TIP3   OH273647   0.434   5.990  16.527 -0.2043  0.1079 -0.1882
17411TIP3    H173648   0.397   6.076  16.508 -0.7791 -0.2590 -0.7776
17411TIP3    H273649   0.507   6.008  16.587 -1.5206  0.8056  1.2714
17412TIP3   OH273650   6.748   1.183   5.366 -0.3987  0.2136 -0.1026
17412TIP3    H173651   6.687   1.232   5.422  0.4866  2.1360 -0.7226
17412TIP3    H273652   6.798   1.251   5.321  0.7890 -1.3066 -1.1624
17413TIP3   OH273653   4.221   5.975  11.747 -0.1581  0.0358  0.3188
17413TIP3    H173654   4.183   6.043  11.803 -1.0596  0.4201 -0.7174
17413TIP3    H273655   4.301   6.015  11.712 -0.4341  0.3968  0.0909
17414TIP3   OH273656   0.940   5.601  15.051  0.1303 -0.7295 -0.1617
17414TIP3    H173657   0.861   5.571  15.007  0.8599 -0.8616 -1.4472
17414TIP3    H273658   0.992   5.522  15.064  1.3343 -0.3447 -2.0685
17415TIP3   OH273659   3.015   4.448   3.193 -0.0829  0.2792 -0.5553
17415TIP3    H173660   3.072   4.420   3.122 -1.0866 -0.6817 -1.0044
17415TIP3    H273661   3.062   4.425   3.273  0.6076  0.4564 -0.9042
17416TIP3   OH273662   0.943   4.686   6.386 -0.1541 -0.0598 -0.1695
17416TIP3    H173663   0.889   4.765   6.393  0.6667  0.5580 -0.6513
17416TIP3    H273664   1.026   4.717   6.349  0.4690 -1.0191  0.3915
17417TIP3   OH273665   1.299   0.290   0.316  0.1827 -0.0863 -0.0831
17417TIP3    H173666   1.203   0.291   0.319  0.2068 -0.0426  1.5562
17417TIP3    H273667   1.325   0.230   0.385  1.3513 -1.1776 -1.4095
17418TIP3   OH273668   6.139   3.644   4.398  0.4200  0.0279  0.3973
17418TIP3    H173669   6.061   3.694   4.373  0.1042 -0.1997  0.8998
17418TIP3    H273670   6.104   3.562   4.435  0.8804  0.1350  1.0921
17419TIP3   OH273671   0.301   2.929   3.596  0.7010  0.0871  0.0402
17419TIP3    H173672   0.385   2.970   3.616  0.6259  0.7837 -0.9559
17419TIP3    H273673   0.257   2.920   3.680  0.9270  1.6320  0.3461
17420TIP3   OH273674   1.878   1.528  12.082 -0.1459 -0.4910  0.1779
17420TIP3    H173675   1.901   1.600  12.023  1.9088  0.8043  2.4087
17420TIP3    H273676   1.793   1.498  12.050 -0.0541  1.4386 -2.1940
17421TIP3   OH273677   4.472   3.931   1.282  0.6052  0.3331 -0.1219
17421TIP3    H173678   4.509   3.849   1.315  1.0661  0.4975 -0.2334
17421TIP3    H273679   4.546   3.978   1.244  0.1601  0.3220 -1.0362
17422TIP3   OH273680   3.458   4.406  13.818  0.6940 -0.1275 -0.0002
17422TIP3    H173681   3.524   4.341  13.794  0.7021  0.5099 -1.8355
17422TIP3    H273682   3.508   4.475  13.861  0.6314 -1.4472  2.3695
17423TIP3   OH273683   3.926   4.900   3.200  0.0229  0.0672 -0.4977
17423TIP3    H173684   3.925   4.805   3.211 -0.6631 -0.0942 -1.6689
17423TIP3    H273685   4.017   4.926   3.212 -0.0197 -0.5098  1.3919
17424TIP3   OH273686   5.263   4.954   0.196  0.1107 -0.2113  0.0025
17424TIP3    H173687   5.255   5.024   0.260 -1.4281  0.0042 -0.3889
17424TIP3    H273688   5.175   4.917   0.190  0.8257 -1.9987 -0.0168
17425TIP3   OH273689   3.865   1.287   5.579  0.1957 -0.2103 -0.1721
17425TIP3    H173690   3.896   1.243   5.658 -0.7365  0.4701  0.6077
17425TIP3    H273691   3.790   1.235   5.549 -0.9062  0.7586  0.7493
17426TIP3   OH273692   2.406   4.675   4.691 -0.4687  0.9507 -0.5248
17426TIP3    H173693   2.418   4.768   4.673 -0.5136  0.5756 -2.7774
17426TIP3    H273694   2.477   4.631   4.644 -0.0119 -0.1604  1.0847
17427TIP3   OH273695   0.844   2.956  11.975 -0.0349  0.0919 -0.3787
17427TIP3    H173696   0.764   2.905  11.963 -0.1361 -0.0756  0.9291
17427TIP3    H273697   0.879   2.966  11.886 -0.9110 -0.7924 -0.8437
17428TIP3   OH273698   1.958   5.210   5.961  0.2671  0.4225  0.2977
17428TIP3    H173699   1.945   5.135   6.019  1.5537 -1.1135 -1.2935
17428TIP3    H273700   2.053   5.219   5.955  0.1899  0.2394 -1.8722
17429TIP3   OH273701   5.656   6.740   2.709  0.0989 -0.8301 -0.3080
17429TIP3    H173702   5.663   6.825   2.752 -0.2796 -0.9344 -0.0409
17429TIP3    H273703   5.666   6.759   2.616 -0.1011 -0.4782 -0.2577
17430TIP3   OH273704   0.570   3.089  12.083 -0.5048  0.0433  0.1923
17430TIP3    H173705   0.531   3.143  12.014 -2.0628  0.2556  1.1968
17430TIP3    H273706   0.643   3.142  12.116 -1.3646  1.0964  0.4490
17431TIP3   OH273707   4.743   1.192   4.096 -0.0979  0.1030  0.2120
17431TIP3    H173708   4.726   1.171   4.188  0.8427  0.8004  0.5602
17431TIP3    H273709   4.704   1.279   4.083 -2.1061 -0.8556 -0.6529
17432TIP3   OH273710   6.377   4.344   4.759 -0.1160 -0.2398 -0.4127
17432TIP3    H173711   6.310   4.412   4.768  1.9554  2.0506 -1.1325
17432TIP3    H273712   6.411   4.355   4.670  1.5763 -0.9480  0.1051
17433TIP3   OH273713   5.222   5.124   6.498  0.1949  0.1336  0.0987
17433TIP3    H173714   5.151   5.181   6.528 -0.3816 -0.1004 -0.7886
17433TIP3    H273715   5.265   5.095   6.579 -0.7065  0.2951  0.6477
17434TIP3   OH273716   4.049   3.439   1.833 -0.0538 -0.2878  0.1778
17434TIP3    H173717   3.982   3.450   1.901  1.2699  0.4721  1.4166
17434TIP3    H273718   4.091   3.356   1.854  0.5932  0.1178  0.5266
17435TIP3   OH273719   6.587   2.299  16.037  0.5573  0.0558 -0.0755
17435TIP3    H173720   6.516   2.363  16.025  0.9660  0.6766  0.6617
17435TIP3    H273721   6.646   2.341  16.100  0.5858 -1.2716  0.8175
17436TIP3   OH273722   1.819   1.107   0.758 -0.5302 -0.3195 -0.0282
17436TIP3    H173723   1.733   1.128   0.795  0.5861  2.8543  1.0800
17436TIP3    H273724   1.880   1.118   0.831  1.1151  0.2446 -1.4281
17437TIP3   OH273725   4.119   0.191   0.779  0.2913  0.7314 -0.0728
17437TIP3    H173726   4.050   0.187   0.713  2.2372  2.6423 -2.3765
17437TIP3    H273727   4.183   0.253   0.744  3.5974 -1.4620  1.5248
17438TIP3   OH273728   4.779   0.065  11.249  0.1157 -0.0509  0.3374
17438TIP3    H173729   4.769  -0.009  11.310 -1.5356 -0.5540 -0.4712
17438TIP3    H273730   4.726   0.040  11.173 -1.0044  2.2301  0.3027
17439TIP3   OH273731   6.046   0.149   4.117  0.0090 -0.4285  0.1287
17439TIP3    H173732   5.956   0.172   4.139 -0.3221 -0.7300 -0.8250
17439TIP3    H273733   6.064   0.071   4.169 -1.1452 -1.7981 -1.4032
17440TIP3   OH273734   2.141   6.360  12.778  0.0304 -0.0218 -0.0300
17440TIP3    H173735   2.178   6.443  12.807  0.2533 -0.4400  0.9294
17440TIP3    H273736   2.059   6.352  12.826  1.3189 -1.6318  2.0791
17441TIP3   OH273737   0.454   5.324  10.988  0.2306  0.8858 -0.0711
17441TIP3    H173738   0.400   5.272  11.047  0.7911  1.4936  1.0078
17441TIP3    H273739   0.398   5.398  10.963 -0.0296  0.5918 -0.3793
17442TIP3   OH273740   2.072   5.950   1.731  0.7375  0.5130 -0.2116
17442TIP3    H173741   2.132   5.877   1.744 -0.9074 -0.6983  1.0249
17442TIP3    H273742   2.075   5.997   1.815 -1.8746 -1.0711  0.8904
17443TIP3   OH273743   5.382   6.714   1.506 -0.8255 -0.8160 -0.1026
17443TIP3    H173744   5.329   6.750   1.577 -1.6823 -0.4791 -0.8900
17443TIP3    H273745   5.430   6.642   1.546  1.1677  1.2875  1.6068
17444TIP3   OH273746   4.999   6.765   2.229  0.0763 -0.1135 -0.2268
17444TIP3    H173747   5.020   6.672   2.225 -0.3244 -0.3891  2.3446
17444TIP3    H273748   5.035   6.794   2.312  0.9554  2.2825 -1.3705
17445TIP3   OH273749   1.636   3.840   1.516 -0.2307  0.0043 -0.2477
17445TIP3    H173750   1.663   3.893   1.591  1.3194 -0.6367 -0.3169
17445TIP3    H273751   1.575   3.776   1.552 -2.6764  2.1690 -0.2721
17446TIP3   OH273752   1.852   6.400  13.655 -0.2434 -0.1562 -0.1141
17446TIP3    H173753   1.808   6.360  13.729  0.9607 -0.1821  0.6180
17446TIP3    H273754   1.916   6.335  13.626 -0.7025 -0.1491 -1.1851
17447TIP3   OH273755   4.758   5.354  12.026  0.0156 -0.4610  0.1595
17447TIP3    H173756   4.776   5.260  12.029 -0.0948 -0.7960 -4.0960
17447TIP3    H273757   4.824   5.389  11.967 -2.7909  1.2156 -2.2041
17448TIP3   OH273758   6.015   3.562   5.899  0.2150  0.2836 -0.0847
17448TIP3    H173759   5.962   3.641   5.904 -0.3219 -0.0288 -0.6956
17448TIP3    H273760   6.083   3.574   5.966 -0.4180  0.8403  0.4718
17449TIP3   OH273761   6.520   2.866  10.446  0.2182 -0.4764 -0.2169
17449TIP3    H173762   6.529   2.960  10.463  2.1042 -0.4606 -1.0500
17449TIP3    H273763   6.466   2.861  10.367 -2.3428 -0.2759  1.3887
17450TIP3   OH273764   5.461   3.448   5.562  0.5320  0.8641 -0.1834
17450TIP3    H173765   5.373   3.427   5.593  1.2592 -0.5665  1.0116
17450TIP3    H273766   5.473   3.392   5.485  0.3616  1.1683 -0.4361
17451TIP3   OH273767   5.328   0.556   4.310 -0.1589  0.2566 -0.6290
17451TIP3    H173768   5.242   0.554   4.352 -0.0399  1.2254 -0.3325
17451TIP3    H273769   5.337   0.644   4.276  0.8157  0.2386 -0.4515
17452TIP3   OH273770   2.081   1.138  15.134 -0.1990 -0.2414  0.1877
17452TIP3    H173771   2.004   1.140  15.077  0.9963  0.5431 -1.4964
17452TIP3    H273772   2.108   1.046  15.135  0.7984 -0.0502 -2.0891
17453TIP3   OH273773   1.944   1.019   5.523 -0.4227  0.3474 -0.6870
17453TIP3    H173774   1.950   1.039   5.616 -1.4594  3.6589 -1.1842
17453TIP3    H273775   2.034   1.027   5.491 -0.1774 -0.0420 -0.1068
17454TIP3   OH273776   5.315   2.897   3.454  0.6182  0.5655  0.1401
17454TIP3    H173777   5.281   2.896   3.544  0.1722 -0.8686 -0.0186
17454TIP3    H273778   5.389   2.958   3.457  0.2347  1.0106  1.3276
17455TIP3   OH273779   3.686   4.844  10.789 -0.4505  0.2579 -0.1846
17455TIP3    H173780   3.726   4.818  10.706 -0.6911  0.8801 -0.5053
17455TIP3    H273781   3.665   4.762  10.833 -1.2320 -0.0950 -1.1768
17456TIP3   OH273782   4.960   3.280   1.070  1.0601  0.4189  0.4648
17456TIP3    H173783   4.979   3.192   1.036  0.8951  1.2429 -1.9767
17456TIP3    H273784   5.028   3.336   1.032 -1.1360  1.9793 -1.5007
17457TIP3   OH273785   0.584   4.787   5.815 -0.0188 -0.1362 -0.0022
17457TIP3    H173786   0.566   4.705   5.769  1.2635 -0.6345  0.3339
17457TIP3    H273787   0.530   4.784   5.893  1.8638 -1.8982  1.3371
17458TIP3   OH273788   4.239   0.342  11.316  0.4272  0.2470  0.0377
17458TIP3    H173789   4.299   0.416  11.329  0.9275  0.0722 -1.1456
17458TIP3    H273790   4.197   0.360  11.231  1.5762 -1.4871 -0.9586
17459TIP3   OH273791   6.700   4.665   2.704  0.2330 -0.3959  0.2294
17459TIP3    H173792   6.615   4.642   2.741  0.7230 -2.3995  0.2466
17459TIP3    H273793   6.763   4.624   2.763  1.2944  1.9683  0.8404
17460TIP3   OH273794   1.048   4.066  13.174 -0.3865  0.0371 -0.3643
17460TIP3    H173795   1.002   4.090  13.254 -0.0122  2.1588 -0.7396
17460TIP3    H273796   1.005   4.117  13.105 -0.8095 -1.8552 -1.5868
17461TIP3   OH273797   1.223   4.915  12.456 -0.3439 -0.0341  0.0094
17461TIP3    H173798   1.289   4.933  12.389  0.7616 -0.3661  0.9812
17461TIP3    H273799   1.210   4.820  12.453 -0.0544 -0.0934  0.4614
17462TIP3   OH273800   5.025   6.383  15.792 -0.3486 -0.4260  0.2812
17462TIP3    H173801   5.044   6.414  15.880  0.3811 -1.1133  0.3776
17462TIP3    H273802   5.035   6.460  15.736  0.9494 -0.3749  0.5726
17463TIP3   OH273803   1.394   0.159  10.542  0.8191  0.5158 -0.1600
17463TIP3    H173804   1.462   0.223  10.520  0.9840  0.7486  0.9969
17463TIP3    H273805   1.318   0.211  10.566  1.2455  0.3345  1.7414
17464TIP3   OH273806   0.078   1.729   3.039 -0.2735  0.3662 -0.3535
17464TIP3    H173807   0.162   1.709   2.997 -0.4165  0.8074 -0.8579
17464TIP3    H273808   0.102   1.759   3.127  0.0096 -0.8974  0.0170
17465TIP3   OH273809   6.044   1.074   1.921  0.1600 -0.1579 -0.0229
17465TIP3    H173810   6.137   1.066   1.940  0.8291 -0.0059 -2.7944
17465TIP3    H273811   6.032   1.166   1.898 -0.6626 -0.1869  0.2574
17466TIP3   OH273812   0.060   2.082  14.752  0.1413 -0.6669 -0.1670
17466TIP3    H173813   0.028   2.023  14.821  0.3377 -0.0667  0.4534
17466TIP3    H273814   0.123   2.138  14.797  0.3287 -0.3159 -0.8635
17467TIP3   OH273815   5.508   2.693   2.061 -0.2170  0.6632 -0.3446
17467TIP3    H173816   5.461   2.660   2.138 -1.0780 -0.1007 -1.1765
17467TIP3    H273817   5.575   2.627   2.044 -0.8439  0.1755 -0.9891
17468TIP3   OH273818   3.216   4.695   5.619 -0.3106 -0.2749  0.2808
17468TIP3    H173819   3.220   4.762   5.551  1.4307 -0.6239  0.0005
17468TIP3    H273820   3.294   4.710   5.672 -0.2182 -1.6990  0.5914
17469TIP3   OH273821   2.681   2.144  11.543  0.4520  0.1479 -1.1804
17469TIP3    H173822   2.743   2.135  11.471  2.6305  0.8723  0.4907
17469TIP3    H273823   2.692   2.064  11.594  0.9702  0.8111 -0.2098
17470TIP3   OH273824   0.596   3.037   3.598  0.2007 -0.3546  0.2220
17470TIP3    H173825   0.682   3.080   3.592 -0.2198  0.6574  1.0448
17470TIP3    H273826   0.611   2.962   3.655  0.7038 -0.6450 -0.2847
17471TIP3   OH273827   6.091   5.217  14.021 -0.0660 -0.2600  0.1658
17471TIP3    H173828   6.151   5.155  14.063  1.3259  0.8965 -0.0404
17471TIP3    H273829   6.115   5.302  14.058  0.5927  0.6688 -2.2231
17472TIP3   OH273830   0.347   5.892  13.314  0.2454 -0.4351  0.0427
17472TIP3    H173831   0.344   5.976  13.360  2.1464  0.0793 -0.6846
17472TIP3    H273832   0.374   5.915  13.225 -0.4495 -1.7078 -0.5276
17473TIP3   OH273833   0.179   6.032  15.438  0.3679  0.3004  0.2257
17473TIP3    H173834   0.200   5.990  15.354 -1.0476  0.4036 -0.2145
17473TIP3    H273835   0.232   6.112  15.439  1.5884 -0.4797  0.1687
17474TIP3   OH273836   4.293   6.543  16.458  0.3673  0.1691 -0.2203
17474TIP3    H173837   4.259   6.453  16.460 -2.8860  1.2485  0.9264
17474TIP3    H273838   4.267   6.579  16.543  0.6544  2.4822 -1.0592
17475TIP3   OH273839   2.231   2.932  16.165  0.0499  0.1280 -0.1056
17475TIP3    H173840   2.155   2.905  16.217  2.0014 -1.7604  2.0092
17475TIP3    H273841   2.253   2.855  16.113  2.9488 -1.0443  2.5507
17476TIP3   OH273842   3.107   1.534   6.276 -0.4054 -0.1540  0.2971
17476TIP3    H173843   3.132   1.451   6.316  0.9134  0.3291  0.5291
17476TIP3    H273844   3.020   1.553   6.312 -0.0644 -0.6723  1.4404
17477TIP3   OH273845   0.240   4.777   3.157  0.0861  0.1585 -0.0590
17477TIP3    H173846   0.192   4.701   3.125 -0.0554  0.0192  0.4733
17477TIP3    H273847   0.323   4.776   3.109  0.7848 -1.2651  1.0908
17478TIP3   OH273848   2.251   4.787  13.890 -0.7089  0.4542 -0.3531
17478TIP3    H173849   2.231   4.833  13.972  0.5297 -1.3985  1.0713
17478TIP3    H273850   2.187   4.717  13.885 -0.0906 -0.1235 -0.3628
17479TIP3   OH273851   5.068   5.177  17.167 -0.1290  0.1394 -0.3122
17479TIP3    H173852   5.137   5.202  17.106 -0.2905 -0.7698 -0.8891
17479TIP3    H273853   5.088   5.226  17.247  0.0572  1.3933 -1.0953
17480TIP3   OH273854   4.668   4.209  13.758 -0.3725 -0.2248 -0.2733
17480TIP3    H173855   4.655   4.265  13.834  3.3299  0.5666  0.0112
17480TIP3    H273856   4.580   4.187  13.728 -2.1114 -1.4430  4.7397
17481TIP3   OH273857   2.083   5.879   4.565 -0.2690  0.3962  0.0953
17481TIP3    H173858   2.171   5.910   4.588  1.0540 -1.7750 -1.6261
17481TIP3    H273859   2.041   5.861   4.649  1.3181  0.4593  0.9428
17482TIP3   OH273860   3.839   2.343   2.374 -0.3064 -0.4928 -0.3425
17482TIP3    H173861   3.902   2.305   2.312 -1.9900 -1.5944 -1.4490
17482TIP3    H273862   3.893   2.367   2.450  1.6479 -0.1181 -1.7582
17483TIP3   OH273863   5.587   1.368  14.588  0.3832 -0.1442  0.3385
17483TIP3    H173864   5.623   1.292  14.542  1.0459 -0.2414  1.0189
17483TIP3    H273865   5.529   1.331  14.654 -0.5584 -0.0015 -0.3720
17484TIP3   OH273866   2.871   1.084   1.313 -0.3004  0.4560 -0.0658
17484TIP3    H173867   2.797   1.023   1.316 -1.7688  2.1809  0.1757
17484TIP3    H273868   2.855   1.145   1.385 -0.0723  2.4406 -1.6199
17485TIP3   OH273869   4.358   5.334   6.253  0.0927 -0.5167  0.2384
17485TIP3    H173870   4.418   5.392   6.207  0.5282  0.7019  2.2396
17485TIP3    H273871   4.272   5.376   6.242 -0.1598 -1.3137 -1.1068
17486TIP3   OH273872   4.064   6.126  15.117  0.3833 -0.0530 -0.0281
17486TIP3    H173873   4.016   6.068  15.176 -1.1409 -0.2619 -1.3802
17486TIP3    H273874   4.075   6.207  15.167  0.5755 -0.7551  1.0933
17487TIP3   OH273875   1.289   1.778  11.831  0.2728  0.3710  0.0800
17487TIP3    H173876   1.216   1.716  11.828  0.1848  0.4659  0.2464
17487TIP3    H273877   1.249   1.863  11.810 -0.1261  0.8442  2.4233
17488TIP3   OH273878   5.221   3.438  15.113 -0.5631  0.6459 -0.8770
17488TIP3    H173879   5.130   3.438  15.142 -0.5217  0.7100 -0.7478
17488TIP3    H273880   5.249   3.529  15.121 -0.1878  0.4597  0.0343
17489TIP3   OH273881   0.217   4.426  14.452  0.2615 -0.1489 -0.0954
17489TIP3    H173882   0.274   4.380  14.390 -1.2326 -2.0999 -0.1177
17489TIP3    H273883   0.129   4.411  14.420 -0.5870 -1.2733  2.4645
17490TIP3   OH273884   3.388   1.213   2.830 -0.1715 -0.1217  0.3030
17490TIP3    H173885   3.384   1.117   2.837 -0.6452 -0.2070 -0.9069
17490TIP3    H273886   3.372   1.231   2.737 -1.2718  1.1880  0.7070
17491TIP3   OH273887   2.428   5.163   5.705  0.1433 -0.3299 -0.8881
17491TIP3    H173888   2.345   5.195   5.740  0.7302 -1.5036  1.7658
17491TIP3    H273889   2.476   5.242   5.680 -0.3137  0.5914  1.0209
17492TIP3   OH273890   3.511   1.465  14.634 -0.1574 -0.8783  0.2448
17492TIP3    H173891   3.512   1.497  14.724 -0.1538 -1.3203  0.4008
17492TIP3    H273892   3.527   1.543  14.581  2.6006 -1.0022  0.7471
17493TIP3   OH273893   0.173   6.541   0.636  0.4602 -0.1706  0.0322
17493TIP3    H173894   0.175   6.558   0.731  0.8902 -1.8596  0.3555
17493TIP3    H273895   0.140   6.622   0.598  3.0872  1.6410  1.3441
17494TIP3   OH273896   2.280   5.373  11.942  0.1467  0.0026 -0.5171
17494TIP3    H173897   2.309   5.288  11.974 -0.5865  0.6090  2.0574
17494TIP3    H273898   2.353   5.432  11.959 -0.5846  0.5157  1.0730
17495TIP3   OH273899   4.201   3.355  14.849 -0.3876  0.3153 -0.3380
17495TIP3    H173900   4.213   3.388  14.759 -0.9948 -0.5297 -0.7451
17495TIP3    H273901   4.106   3.357  14.862 -0.3200  0.1633  0.1865
17496TIP3   OH273902   4.533   5.129   0.135 -0.4180  0.2314  0.0002
17496TIP3    H173903   4.574   5.141   0.220 -0.4684  0.0340  0.0520
17496TIP3    H273904   4.509   5.217   0.107  0.8353  0.4592 -0.4240
17497TIP3   OH273905   2.780   0.608   1.081  0.6148 -0.7415  0.5903
17497TIP3    H173906   2.772   0.538   1.017 -0.9190 -0.6720  0.6747
17497TIP3    H273907   2.873   0.610   1.103  0.9300 -1.7064 -0.5660
17498TIP3   OH273908   5.094   2.604  13.504  0.1283  0.2690 -0.0721
17498TIP3    H173909   5.019   2.570  13.455  0.1295 -2.6877  1.7854
17498TIP3    H273910   5.169   2.584  13.448 -0.1649  0.2518 -0.4702
17499TIP3   OH273911   5.436   3.152  10.923 -0.2082 -0.0787 -0.2855
17499TIP3    H173912   5.348   3.184  10.943  0.0575 -0.1163  1.0001
17499TIP3    H273913   5.480   3.226  10.881 -0.4621  0.3611  0.2097
17500TIP3   OH273914   0.298   5.680  16.206 -0.0301 -0.1145 -0.6802
17500TIP3    H173915   0.279   5.612  16.271  1.0061 -0.3246 -0.5720
17500TIP3    H273916   0.257   5.759  16.240 -0.9327 -0.5962 -0.6170
17501TIP3   OH273917   2.549   0.501   2.323  0.5086  0.0998  0.6356
17501TIP3    H173918   2.622   0.440   2.317 -1.1966 -1.9877  0.0080
17501TIP3    H273919   2.545   0.543   2.237  0.2535 -0.6747  0.2636
17502TIP3   OH273920   5.114   5.796   2.925  0.6539  0.0331  0.2416
17502TIP3    H173921   5.036   5.851   2.917 -0.3980 -1.4576 -0.2121
17502TIP3    H273922   5.123   5.781   3.019  1.0402  1.0723  0.3832
17503TIP3   OH273923   2.147   3.046   1.521 -0.0921 -0.6344 -0.1300
17503TIP3    H173924   2.197   3.087   1.592 -0.5069 -0.7099  0.2073
17503TIP3    H273925   2.214   3.016   1.459  0.3715 -1.9074  0.9326
17504TIP3   OH273926   0.358   0.349  11.148  0.0677  0.2668  0.3369
17504TIP3    H173927   0.365   0.255  11.164 -2.1878  0.2554  1.6326
17504TIP3    H273928   0.344   0.356  11.054  2.1634 -0.5138 -0.0814
17505TIP3   OH273929   1.731   1.485  11.671 -0.5631 -0.8248 -0.2586
17505TIP3    H173930   1.674   1.476  11.747  2.0425 -1.5382  1.7543
17505TIP3    H273931   1.817   1.505  11.707  0.2234  2.0786 -3.1941
17506TIP3   OH273932   5.696   6.689   0.844 -0.2684 -0.1632  0.1728
17506TIP3    H173933   5.644   6.692   0.924  0.2306 -0.1658  0.5012
17506TIP3    H273934   5.656   6.619   0.792 -1.6396  0.9399 -0.3265
17507TIP3   OH273935   3.534   6.164  12.026 -0.8047 -0.0045 -0.0216
17507TIP3    H173936   3.617   6.131  12.061 -0.6191  0.9253  0.4590
17507TIP3    H273937   3.559   6.227  11.960 -1.1402 -0.0711 -0.2144
17508TIP3   OH273938   5.169   1.342  15.091  0.5032  0.7654  0.6688
17508TIP3    H173939   5.142   1.314  15.178 -0.1299 -0.2833  0.1686
17508TIP3    H273940   5.177   1.260  15.041  0.8003  1.3414 -0.2661
17509TIP3   OH273941   4.187   5.666  14.979  0.2919 -0.2313  0.1939
17509TIP3    H173942   4.257   5.668  15.044  0.0652  0.7449  0.4228
17509TIP3    H273943   4.106   5.664  15.031  0.1347 -0.5702 -0.0624
17510TIP3   OH273944   0.765   2.470   1.841 -0.0479  1.0218 -0.9613
17510TIP3    H173945   0.788   2.427   1.759  0.8931 -0.3325 -0.0183
17510TIP3    H273946   0.777   2.403   1.908  1.0770  2.6067  0.5150
17511TIP3   OH273947   0.295   4.367  12.925  0.0958 -0.1316  0.1713
17511TIP3    H173948   0.297   4.437  12.860 -0.1640 -0.1774  0.1108
17511TIP3    H273949   0.300   4.412  13.009  0.8934 -0.1006  0.1077
17512TIP3   OH273950   6.050   6.404   0.494 -0.7031  0.0681 -0.4075
17512TIP3    H173951   6.090   6.491   0.492 -1.1777  0.3025  0.1710
17512TIP3    H273952   6.029   6.385   0.402 -2.0691  1.2549 -0.3745
17513TIP3   OH273953   2.651   0.395   1.655 -0.1176  0.0618  0.2778
17513TIP3    H173954   2.564   0.424   1.627 -0.8899 -0.3955  2.1156
17513TIP3    H273955   2.705   0.475   1.651 -0.9367  0.6329  0.3857
17514TIP3   OH273956   0.934   2.260  12.773 -0.7165  0.3776  0.4119
17514TIP3    H173957   1.017   2.292  12.739 -0.9361  0.3202 -0.1935
17514TIP3    H273958   0.917   2.314  12.850  0.0305  0.1779  0.7271
17515TIP3   OH273959   2.246   4.408  11.837  0.4508 -0.4233  0.0458
17515TIP3    H173960   2.300   4.345  11.788 -1.4470 -1.7796 -0.4304
17515TIP3    H273961   2.225   4.476  11.773  1.8252  0.3152  0.3344
17516TIP3   OH273962   0.786   6.221  11.473  0.3600  0.4658 -0.2448
17516TIP3    H173963   0.811   6.221  11.566 -1.5588 -0.3845  0.3223
17516TIP3    H273964   0.722   6.292  11.465 -1.1317 -0.8409 -0.3828
17517TIP3   OH273965   1.595   2.436  17.037  0.2988  0.1120 -0.4143
17517TIP3    H173966   1.644   2.355  17.053 -0.6658 -0.2511  0.8947
17517TIP3    H273967   1.537   2.415  16.965 -0.6895 -0.7432  0.5869
17518TIP3   OH273968   0.750   2.773   3.631 -0.4567  0.3595 -0.5098
17518TIP3    H173969   0.707   2.821   3.702  0.7405  2.5767 -1.2013
17518TIP3    H273970   0.766   2.686   3.668 -0.4282  1.2552  1.7421
17519TIP3   OH273971   2.196   5.514   0.196  0.4369 -0.3896  0.3236
17519TIP3    H173972   2.230   5.425   0.196  0.0626 -0.5336  0.2428
17519TIP3    H273973   2.218   5.548   0.109 -1.5967 -1.2518 -0.5994
17520TIP3   OH273974   2.336   1.247   3.057 -0.1117  0.4258  0.2154
17520TIP3    H173975   2.323   1.331   3.100 -1.1328  0.8560 -0.8768
17520TIP3    H273976   2.411   1.261   2.999 -0.0205  0.4476  0.3367
17521TIP3   OH273977   4.279   6.630   2.925  0.0112 -0.7299 -0.4110
17521TIP3    H173978   4.252   6.645   2.835  0.2367 -1.2243 -0.5606
17521TIP3    H273979   4.336   6.554   2.921  0.0298 -0.7487  0.1482
17522TIP3   OH273980   6.329   3.309  16.100  0.0210  0.1910  0.3821
17522TIP3    H173981   6.284   3.378  16.149 -0.8943 -1.0540  1.3406
17522TIP3    H273982   6.306   3.228  16.145  0.3562 -0.8566 -1.2412
17523TIP3   OH273983   6.020   3.055  11.341 -0.3409  0.3623 -0.0805
17523TIP3    H173984   5.975   2.999  11.278  0.1870  0.2185 -0.3328
17523TIP3    H273985   6.079   3.108  11.288  0.2618  0.0925  0.3138
17524TIP3   OH273986   4.378   2.464   5.231  0.5763 -0.1637  0.0013
17524TIP3    H173987   4.309   2.417   5.184  1.0126 -2.2294  1.3055
17524TIP3    H273988   4.334   2.502   5.307  0.0115  2.5858 -1.5758
17525TIP3   OH273989   2.940   5.285   5.533 -0.4883 -0.1539 -0.6047
17525TIP3    H173990   3.013   5.299   5.593  0.2107 -0.4824 -1.3564
17525TIP3    H273991   2.943   5.191   5.513 -0.1001  0.1113 -1.8967
17526TIP3   OH273992   2.197   0.307  11.983 -0.2502 -0.1955 -0.0832
17526TIP3    H173993   2.167   0.394  12.009 -0.9544 -0.7974  1.2188
17526TIP3    H273994   2.285   0.299  12.019 -0.0065  0.1292 -0.5906
17527TIP3   OH273995   3.908   0.225   5.586  0.0659 -0.4301  0.5652
17527TIP3    H173996   3.895   0.248   5.678 -2.2289 -0.0701  0.1983
17527TIP3    H273997   3.839   0.162   5.566  0.9913 -1.0888 -0.7233
17528TIP3   OH273998   5.017   0.012   1.634  0.0643 -0.1886 -0.7682
17528TIP3    H173999   4.993   0.103   1.648  0.3087  0.0164 -1.6559
17528TIP3    H274000   5.109   0.007   1.661 -0.0680 -0.2758 -0.3189
17529TIP3   OH274001   5.176   1.073  14.880  0.2208 -0.5055 -0.1302
17529TIP3    H174002   5.140   1.125  14.808  1.4515  0.8364  0.1761
17529TIP3    H274003   5.252   1.029  14.843  0.2949 -0.5796  0.1044
17530TIP3   OH274004   5.523   2.668   2.947  0.1070 -0.2352  0.0097
17530TIP3    H174005   5.460   2.738   2.959 -0.2840 -0.6036  0.1473
17530TIP3    H274006   5.577   2.670   3.026 -0.5010 -0.6848  0.4430
17531TIP3   OH274007   4.525   2.658  15.293 -0.0362  0.1622  0.2803
17531TIP3    H174008   4.582   2.620  15.226 -0.4921 -1.8345  0.9433
17531TIP3    H274009   4.557   2.621  15.376 -0.6773  1.0628  0.9536
17532TIP3   OH274010   3.613   0.356  16.444  0.1007 -0.2298  0.5109
17532TIP3    H174011   3.701   0.392  16.457 -0.1226  0.7572 -0.5387
17532TIP3    H274012   3.554   0.427  16.466 -0.3529  0.1511 -1.6472
17533TIP3   OH274013   1.514   2.242   3.831  0.2530 -0.0912  0.6325
17533TIP3    H174014   1.557   2.165   3.867  0.5869  0.6966  1.9623
17533TIP3    H274015   1.446   2.264   3.894 -2.0310 -1.1461 -1.2804
17534TIP3   OH274016   5.296   1.065  15.629 -0.4644  0.7891 -0.5426
17534TIP3    H174017   5.284   1.143  15.684  1.7214 -0.7006  2.3269
17534TIP3    H274018   5.383   1.076  15.591 -0.0480 -0.3143  0.0579
17535TIP3   OH274019   2.693   3.040   5.318 -0.6155  0.2091 -0.5841
17535TIP3    H174020   2.746   3.067   5.393  0.3250 -2.1642 -0.3363
17535TIP3    H274021   2.673   3.122   5.273  0.0817  1.5432  1.3949
17536TIP3   OH274022   6.779   4.992   2.410  0.0462 -0.1807 -0.1043
17536TIP3    H174023   6.724   5.045   2.468  0.2033  1.0079 -0.9880
17536TIP3    H274024   6.868   5.004   2.444 -0.0253 -0.6025  0.2292
17537TIP3   OH274025   6.148   5.791   2.576  0.6143  0.1059  0.0408
17537TIP3    H174026   6.242   5.788   2.560  0.5952  1.3255 -0.4574
17537TIP3    H274027   6.119   5.700   2.567  1.9112 -0.5012  1.4509
17538TIP3   OH274028   1.690   0.628   1.157 -0.2053 -0.4469 -0.2935
17538TIP3    H174029   1.750   0.584   1.218  0.4425  0.9830  0.1547
17538TIP3    H274030   1.739   0.632   1.075 -0.7885 -1.7155 -0.7214
17539TIP3   OH274031   0.270   3.967   4.217  0.2849  0.2169  0.2231
17539TIP3    H174032   0.319   3.980   4.298  2.5536  0.8101 -1.1527
17539TIP3    H274033   0.184   3.936   4.246  1.2368 -0.3024  2.8010
17540TIP3   OH274034   6.170   3.602   3.660 -0.5912 -0.3935 -0.1592
17540TIP3    H174035   6.236   3.549   3.616 -0.5976 -0.1194 -0.5048
17540TIP3    H274036   6.087   3.567   3.627 -0.6666 -1.3705  0.9913
17541TIP3   OH274037   1.103   2.235  15.776 -0.1469 -0.1926  0.0285
17541TIP3    H174038   1.012   2.249  15.801 -0.4819 -1.5007 -0.3859
17541TIP3    H274039   1.107   2.258  15.683  0.2169  0.9484  0.3139
17542TIP3   OH274040   1.696   1.015   6.129 -0.0159 -0.3790  0.4558
17542TIP3    H174041   1.753   1.064   6.189  1.4018 -1.6719  0.2324
17542TIP3    H274042   1.608   1.025   6.165  0.4037  1.2490  1.1162
17543TIP3   OH274043   6.378   6.291  11.035 -0.4454 -0.0112  0.2235
17543TIP3    H174044   6.332   6.225  10.982  1.1842 -1.1425  0.1300
17543TIP3    H274045   6.461   6.303  10.990 -0.6128  2.0152  0.3651
17544TIP3   OH274046   0.855   1.112  11.273  0.1138  0.1167  0.4335
17544TIP3    H174047   0.924   1.081  11.215 -0.0122 -1.8216  1.2373
17544TIP3    H274048   0.779   1.125  11.216  0.7421  0.9697 -0.2387
17545TIP3   OH274049   5.294   6.415   0.285  0.2589  0.5400  0.1040
17545TIP3    H174050   5.233   6.361   0.235 -0.9995  2.2889 -0.3483
17545TIP3    H274051   5.298   6.498   0.237  4.6244 -0.1004 -1.0837
17546TIP3   OH274052   2.828   5.388   4.205 -0.4400 -0.3711  0.0097
17546TIP3    H174053   2.903   5.414   4.258 -0.1637  0.0056 -0.5542
17546TIP3    H274054   2.755   5.383   4.267  0.2502 -1.7273  0.7412
17547TIP3   OH274055   0.155   5.639   2.636  0.3687  0.2146 -0.0711
17547TIP3    H174056   0.251   5.638   2.641  0.4527  0.8572 -1.1211
17547TIP3    H274057   0.129   5.706   2.699  0.6086  0.0294  0.2284
17548TIP3   OH274058   0.473   0.709   5.843 -0.1193  0.8478  0.1112
17548TIP3    H174059   0.494   0.744   5.756 -0.8097  1.2260  0.0948
17548TIP3    H274060   0.532   0.634   5.853 -0.3810  0.4873 -0.9001
17549TIP3   OH274061   3.108   2.953  15.405  0.0025 -0.0805 -0.1704
17549TIP3    H174062   3.076   2.898  15.333 -0.4989  1.4897 -1.1824
17549TIP3    H274063   3.087   3.042  15.379 -0.4578  0.5330  2.0695
17550TIP3   OH274064   4.990   4.833  16.034 -0.1906  0.0803  0.4962
17550TIP3    H174065   4.948   4.754  16.067 -2.5256  0.5627 -1.1218
17550TIP3    H274066   4.969   4.900  16.098 -1.2307  0.1351  0.1102
17551TIP3   OH274067   0.869   2.802   1.529 -0.5980  0.0894  0.1948
17551TIP3    H174068   0.941   2.771   1.584  0.0732 -1.2793 -1.3737
17551TIP3    H274069   0.910   2.862   1.467 -0.6175 -1.2224 -1.1546
17552TIP3   OH274070   6.321   5.957  15.582 -0.5501  0.3046 -0.3771
17552TIP3    H174071   6.295   6.041  15.620 -1.2723 -0.4881  0.9666
17552TIP3    H274072   6.270   5.950  15.502 -0.4865  1.1411 -0.4969
17553TIP3   OH274073   2.919   3.525  13.458  0.2257 -0.4387  0.0363
17553TIP3    H174074   2.905   3.602  13.403  0.4983 -0.3624  0.0717
17553TIP3    H274075   2.911   3.558  13.548 -1.1155 -0.7349  0.0423
17554TIP3   OH274076   1.291   4.669  13.219 -0.1438 -0.0844  0.2062
17554TIP3    H174077   1.345   4.605  13.171  2.6288  2.0127  0.2840
17554TIP3    H274078   1.319   4.659  13.310  1.4188  2.0770  0.0451
17555TIP3   OH274079   4.633   1.935   0.362 -0.4082  0.5519 -0.4324
17555TIP3    H174080   4.629   1.919   0.457 -1.7230  1.3514 -0.3329
17555TIP3    H274081   4.722   1.968   0.347 -0.0887  0.1314  0.4728
17556TIP3   OH274082   6.672   6.606  15.499  0.1988 -0.6589 -0.1043
17556TIP3    H174083   6.652   6.536  15.562  0.4259 -1.0170 -0.4244
17556TIP3    H274084   6.766   6.598  15.483  1.2423  2.4745  3.1535
17557TIP3   OH274085   5.886   1.521  16.636 -0.1987  0.0357 -0.2241
17557TIP3    H174086   5.809   1.563  16.675  0.1119  0.6823 -0.3004
17557TIP3    H274087   5.915   1.582  16.569 -0.2536 -0.7014 -0.9402
17558TIP3   OH274088   1.277   0.415  16.683 -0.0843 -0.1932 -0.0613
17558TIP3    H174089   1.183   0.398  16.677 -0.0856 -0.0614 -0.4087
17558TIP3    H274090   1.285   0.487  16.747 -0.3063  0.5556 -0.8628
17559TIP3   OH274091   3.416   3.448   2.113 -0.1046  0.0521 -0.0441
17559TIP3    H174092   3.420   3.352   2.109 -0.1209  0.0316  0.4673
17559TIP3    H274093   3.493   3.474   2.163 -1.0004  0.1971  1.3196
17560TIP3   OH274094   2.448   2.359   5.317 -0.4265  0.3107  0.2722
17560TIP3    H174095   2.411   2.385   5.401 -0.5521  1.8654 -0.2266
17560TIP3    H274096   2.542   2.376   5.326 -0.5096  0.9687 -0.0618
17561TIP3   OH274097   3.459   4.703  14.570  0.6887  0.5126  0.3716
17561TIP3    H174098   3.493   4.631  14.623  3.3373  0.6735 -0.9356
17561TIP3    H274099   3.530   4.767  14.567  0.2752  0.9906 -2.3980
17562TIP3   OH274100   1.138   1.596   4.767  0.0485  0.6618 -0.0617
17562TIP3    H174101   1.219   1.576   4.814  1.3658  1.0173 -2.0850
17562TIP3    H274102   1.074   1.534   4.803  2.2110 -2.4184 -1.1001
17563TIP3   OH274103   1.041   2.410   2.773  0.1461 -0.5402  0.2902
17563TIP3    H174104   1.027   2.503   2.788  2.9751 -0.0169  0.2022
17563TIP3    H274105   1.032   2.370   2.859 -0.3353 -0.0853  0.4531
17564TIP3   OH274106   3.366   4.203  13.333  0.1045 -0.7059  0.4529
17564TIP3    H174107   3.402   4.227  13.419 -2.6299  1.7245  1.0748
17564TIP3    H274108   3.386   4.278  13.277 -0.6659 -0.9511 -0.1690
17565TIP3   OH274109   0.461   0.305  12.129 -0.2838  0.1270  0.0411
17565TIP3    H174110   0.442   0.231  12.071  1.0506 -1.5997  1.6396
17565TIP3    H274111   0.552   0.328  12.109 -0.7262  1.4518 -0.5170
17566TIP3   OH274112   6.088   5.870   5.545 -0.5339 -0.4245 -0.0233
17566TIP3    H174113   6.016   5.850   5.486 -0.8402 -1.1247  0.5865
17566TIP3    H274114   6.165   5.872   5.488 -0.7221 -1.7719 -0.3543
17567TIP3   OH274115   5.789   5.961   0.144 -0.1391  0.1775  0.0733
17567TIP3    H174116   5.744   5.949   0.228  1.3755  0.0614  0.9111
17567TIP3    H274117   5.826   5.875   0.124  3.0699  1.0809  1.4937
17568TIP3   OH274118   1.438   2.950  11.256 -0.4467  0.5294 -0.0804
17568TIP3    H174119   1.449   3.044  11.240  1.4526  0.4945  0.7905
17568TIP3    H274120   1.496   2.930  11.329 -1.8088 -1.1041  0.6357
17569TIP3   OH274121   5.065   6.147   1.501 -0.0307 -0.1165  0.5924
17569TIP3    H174122   5.026   6.234   1.515 -1.7833 -0.8019  0.2716
17569TIP3    H274123   5.079   6.143   1.407 -0.5003 -0.3894  0.5315
17570TIP3   OH274124   5.038   3.210   6.141  0.4602  0.5879 -0.4662
17570TIP3    H174125   5.110   3.202   6.078  0.7333 -0.7288 -0.0181
17570TIP3    H274126   5.066   3.280   6.200  1.2105  0.3438 -0.5132
17571TIP3   OH274127   2.435   1.737   4.171  0.1897  0.0111 -0.2173
17571TIP3    H174128   2.358   1.686   4.146  1.2073 -1.5866 -0.2244
17571TIP3    H274129   2.401   1.805   4.230 -1.2186 -0.6816 -0.1966
17572TIP3   OH274130   2.392   4.363   5.685  0.1131 -0.3317  0.5493
17572TIP3    H174131   2.434   4.440   5.647 -0.6920  0.0187  0.3393
17572TIP3    H274132   2.298   4.381   5.678 -0.0972 -1.4034  0.3408
17573TIP3   OH274133   2.790   6.790  13.355 -0.3718 -0.9532 -0.2352
17573TIP3    H174134   2.799   6.702  13.318  2.0305  0.2423 -2.8406
17573TIP3    H274135   2.827   6.783  13.443 -2.4609 -2.9813  0.6020
17574TIP3   OH274136   1.656   6.143  14.741 -0.6261  0.4193 -0.7142
17574TIP3    H174137   1.583   6.192  14.703 -1.2176  1.1998  1.2990
17574TIP3    H274138   1.617   6.062  14.772 -1.3123  1.8302  2.5673
17575TIP3   OH274139   6.013   4.818   2.210  0.7164  0.1845 -0.1266
17575TIP3    H174140   5.973   4.900   2.240 -0.8309 -0.6009  0.0152
17575TIP3    H274141   6.101   4.844   2.181  0.3523  1.8465  0.1634
17576TIP3   OH274142   6.792   1.867  11.721 -0.0111  0.2838 -0.0765
17576TIP3    H174143   6.863   1.804  11.729 -1.7920 -2.1999 -1.9846
17576TIP3    H274144   6.725   1.837  11.782  0.0889  1.9738  0.9425
17577TIP3   OH274145   5.778   2.636   4.962  0.3446 -0.7820  0.0899
17577TIP3    H174146   5.826   2.578   5.021 -0.1141  0.8784  2.2511
17577TIP3    H274147   5.836   2.712   4.951 -0.5410 -0.0554  0.3373
17578TIP3   OH274148   2.090   1.333  10.741 -0.3217  0.4102  0.1844
17578TIP3    H174149   2.088   1.259  10.803  1.2478 -1.8991 -2.2738
17578TIP3    H274150   2.178   1.329  10.703 -1.4165  1.2314 -2.6641
17579TIP3   OH274151   6.188   4.948  16.868  0.1568 -0.5207 -0.5937
17579TIP3    H174152   6.248   4.874  16.874 -0.2069 -0.7019  1.1566
17579TIP3    H274153   6.142   4.949  16.951 -2.5647 -0.6126 -1.9986
17580TIP3   OH274154   0.126   1.410   0.199 -0.0631 -0.1031 -0.1320
17580TIP3    H174155   0.072   1.417   0.120  0.5243  3.7698 -0.3973
17580TIP3    H274156   0.212   1.383   0.167  0.1121  1.2214 -0.8677
17581TIP3   OH274157   3.884   3.992   0.414  0.4006 -0.3081  0.3149
17581TIP3    H174158   3.791   3.975   0.423  0.4631 -0.4104  0.7788
17581TIP3    H274159   3.907   3.955   0.329 -0.0566  0.0639  0.0262
17582TIP3   OH274160   5.881   3.587   1.056  0.1177 -0.1294  0.2694
17582TIP3    H174161   5.896   3.589   1.150 -0.0813  1.7340  0.2971
17582TIP3    H274162   5.962   3.551   1.019  2.2964  3.7125  0.8555
17583TIP3   OH274163   6.081   2.102  13.490  0.5346 -0.1683 -0.5826
17583TIP3    H174164   6.021   2.031  13.512 -0.8451  0.1721 -2.8995
17583TIP3    H274165   6.060   2.171  13.553  0.5661 -1.0980  0.4764
17584TIP3   OH274166   3.098   5.987   3.096 -0.3601 -0.6671  0.1620
17584TIP3    H174167   3.163   5.917   3.093 -0.1011 -0.4003 -1.0977
17584TIP3    H274168   3.135   6.057   3.042 -1.3393 -0.1940  0.0766
17585TIP3   OH274169   3.111   3.573  12.772 -0.0709 -0.2697 -0.1820
17585TIP3    H174170   3.126   3.647  12.831 -1.6148  0.1147 -0.2054
17585TIP3    H274171   3.016   3.560  12.774  0.1064 -1.9385 -0.5741
17586TIP3   OH274172   6.153   4.433  15.997  0.5614  0.1974 -0.1812
17586TIP3    H174173   6.192   4.506  15.949  1.4757 -0.0166  0.2270
17586TIP3    H274174   6.203   4.428  16.078 -1.7416  1.3281  1.4168
17587TIP3   OH274175   4.594   6.329  13.458  0.0131  0.1614 -0.1287
17587TIP3    H174176   4.609   6.395  13.525 -0.0715  1.7650 -1.6225
17587TIP3    H274177   4.514   6.357  13.414  1.0246  0.2103 -2.0544
17588TIP3   OH274178   2.670   4.556   5.127  0.0144  0.5170 -0.6022
17588TIP3    H174179   2.662   4.651   5.125 -0.9812  0.4384 -1.0144
17588TIP3    H274180   2.674   4.530   5.034  1.8028  0.2479 -0.4982
17589TIP3   OH274181   0.933   6.442   3.932 -0.1022  0.4796 -0.3080
17589TIP3    H174182   0.865   6.509   3.927 -2.0834 -1.3507  0.2822
17589TIP3    H274183   0.941   6.423   4.026 -0.6199 -1.0433 -0.5440
17590TIP3   OH274184   5.968   0.154   4.777 -0.1252 -0.4558 -0.4094
17590TIP3    H174185   5.937   0.219   4.839 -0.4951 -1.8831  0.9829
17590TIP3    H274186   5.959   0.195   4.691 -2.8115  0.3679  0.1886
17591TIP3   OH274187   1.598   0.018   5.330 -0.8914 -0.0109  0.3970
17591TIP3    H174188   1.681  -0.015   5.365 -0.8269  0.4137  0.6517
17591TIP3    H274189   1.566   0.079   5.397 -2.3008 -1.4910  1.1451
17592TIP3   OH274190   4.262   2.983   5.773 -0.1740 -0.2024 -0.7791
17592TIP3    H174191   4.234   3.029   5.694 -0.8210 -0.0559 -0.4732
17592TIP3    H274192   4.270   3.052   5.839 -0.9888 -0.4951 -0.3599
17593TIP3   OH274193   2.828   3.131   1.795 -0.5979 -0.0607  0.2773
17593TIP3    H174194   2.736   3.128   1.771 -0.9208 -1.7971  1.5274
17593TIP3    H274195   2.863   3.206   1.747 -2.5833  0.4811 -0.4209
17594TIP3   OH274196   3.075   1.734  11.327 -0.2357  0.1021  0.0770
17594TIP3    H174197   3.096   1.641  11.317  1.3363  0.5270 -0.7962
17594TIP3    H274198   2.997   1.734  11.383 -0.8462 -1.7773 -0.6699
17595TIP3   OH274199   5.495   1.839  15.842  0.3976 -0.3085 -0.2157
17595TIP3    H174200   5.477   1.765  15.901  1.5489 -0.2615  0.2219
17595TIP3    H274201   5.584   1.866  15.864  1.4203 -1.1556 -2.9266
17596TIP3   OH274202   4.479   3.708  10.634 -0.0580  0.0050 -0.0007
17596TIP3    H174203   4.421   3.704  10.558  1.3268  1.6244 -1.2463
17596TIP3    H274204   4.495   3.802  10.647  1.1714 -0.3267  1.1685
17597TIP3   OH274205   4.636   1.022  14.956 -0.1347  0.5658 -0.1687
17597TIP3    H174206   4.585   1.080  14.900 -1.5480  2.3538  2.6851
17597TIP3    H274207   4.653   0.945  14.902 -1.5911  1.9897 -2.8827
17598TIP3   OH274208   4.197   3.597  12.342  0.6328 -0.4851 -0.0515
17598TIP3    H174209   4.199   3.538  12.266  2.1958  1.2430 -1.4373
17598TIP3    H274210   4.276   3.575  12.391  0.8846  0.0104 -0.2302
17599TIP3   OH274211   0.417   5.562  11.196  0.0712 -0.4580 -0.7183
17599TIP3    H174212   0.390   5.554  11.105 -1.1113  1.1339 -0.5460
17599TIP3    H274213   0.490   5.500  11.205 -1.0802 -2.1146 -2.1911
17600TIP3   OH274214   0.865   6.030   3.059  0.6371  0.0256  0.1571
17600TIP3    H174215   0.794   5.971   3.086  1.7297 -2.3076 -1.6264
17600TIP3    H274216   0.913   6.049   3.140 -0.6839 -0.2421  1.0296
17601TIP3   OH274217   5.105   4.242   1.273 -0.0997  0.3225 -0.3711
17601TIP3    H174218   5.102   4.154   1.310 -1.6592 -0.0042 -1.2168
17601TIP3    H274219   5.109   4.300   1.349 -0.3849 -0.4316  0.2285
17602TIP3   OH274220   3.652   5.927  11.870  0.2467  0.0233  0.2046
17602TIP3    H174221   3.680   5.931  11.779  0.1474  2.4151  0.2412
17602TIP3    H274222   3.556   5.919  11.866  0.0691  1.8801  0.0556
17603TIP3   OH274223   1.700   5.006  16.484 -0.5606  0.5224  0.1337
17603TIP3    H174224   1.741   5.089  16.459  0.3496 -0.1804 -0.7920
17603TIP3    H274225   1.769   4.941  16.470 -1.3951 -0.4388  0.4512
17604TIP3   OH274226   4.260   4.574  13.145  0.1376  0.4828 -0.2791
17604TIP3    H174227   4.237   4.655  13.191 -0.3955 -0.2448  0.7723
17604TIP3    H274228   4.290   4.603  13.059 -2.1552  1.6567 -0.7441
17605TIP3   OH274229   4.732   2.536  14.397  0.3107 -0.1991  0.2048
17605TIP3    H174230   4.683   2.509  14.320 -2.7459 -0.1679  1.9933
17605TIP3    H274231   4.718   2.630  14.403 -0.7237 -0.4117  1.5405
17606TIP3   OH274232   4.498   2.220  11.236  0.1163 -0.1240 -0.8122
17606TIP3    H174233   4.480   2.135  11.195 -1.1197  0.1840 -0.9520
17606TIP3    H274234   4.580   2.249  11.195  0.7424 -1.3825 -0.5148
17607TIP3   OH274235   3.677   2.756  13.470  0.3521 -0.2426 -0.2449
17607TIP3    H174236   3.711   2.846  13.463  1.5458 -0.8079 -3.3647
17607TIP3    H274237   3.583   2.766  13.478  0.4873  1.3189 -0.3238
17608TIP3   OH274238   0.489   4.125   5.000 -0.1724  0.3202  0.4400
17608TIP3    H174239   0.580   4.143   5.024  0.4871 -1.6579 -0.4215
17608TIP3    H274240   0.470   4.189   4.932  1.6134 -1.0793 -1.4943
17609TIP3   OH274241   0.364   5.617  13.914  0.8635  0.0105 -0.4638
17609TIP3    H174242   0.347   5.529  13.881  1.0283 -0.1663 -0.0945
17609TIP3    H274243   0.292   5.671  13.881  1.6455  0.1041 -2.0966
17610TIP3   OH274244   4.474   5.932   6.249 -0.0820  0.1443 -0.1874
17610TIP3    H174245   4.424   5.854   6.274 -1.3379  0.8104 -0.5865
17610TIP3    H274246   4.483   5.925   6.154  0.2748  0.2226 -0.1609
17611TIP3   OH274247   6.185   1.637   4.283 -0.3326 -0.8272  0.2546
17611TIP3    H174248   6.123   1.654   4.212 -0.0234 -1.3836 -0.1585
17611TIP3    H274249   6.200   1.722   4.323 -1.1970 -0.6512  0.2204
17612TIP3   OH274250   0.019   1.639  13.346 -0.1970 -0.6030  0.3594
17612TIP3    H174251  -0.019   1.724  13.366  1.3163  0.2526 -0.2451
17612TIP3    H274252   0.097   1.634  13.401 -0.1793 -1.5319  0.2612
17613TIP3   OH274253   1.399   0.895   0.180  0.0784  0.4960 -0.2539
17613TIP3    H174254   1.312   0.934   0.177  0.3635  1.0699 -1.8216
17613TIP3    H274255   1.440   0.933   0.258 -0.6753  1.0790 -0.1321
17614TIP3   OH274256   1.660   6.560  16.588 -0.1402 -0.1923  0.3731
17614TIP3    H174257   1.576   6.524  16.619 -1.1607  0.6874 -1.1848
17614TIP3    H274258   1.681   6.629  16.650 -0.2193 -0.8551  1.1580
17615TIP3   OH274259   0.865   4.775  13.759 -0.0589  0.3175 -0.8283
17615TIP3    H174260   0.848   4.776  13.854 -1.2159 -0.5937 -1.0054
17615TIP3    H274261   0.925   4.848  13.745  1.4016 -0.5022  0.8369
17616TIP3   OH274262   5.500   4.578   0.255 -0.5224 -0.4115 -0.4501
17616TIP3    H174263   5.501   4.603   0.347 -1.3796 -1.9352  0.0124
17616TIP3    H274264   5.592   4.579   0.229 -0.4398  2.6205 -0.3892
17617TIP3   OH274265   2.629   5.982   2.353 -0.2194 -0.0435  0.3597
17617TIP3    H174266   2.653   6.025   2.435 -2.0147  1.8901 -0.0415
17617TIP3    H274267   2.711   5.977   2.304  0.4806  0.7313  1.4045
17618TIP3   OH274268   6.050   1.278   4.013  0.6073 -0.0706 -1.0370
17618TIP3    H174269   6.089   1.232   3.938  0.3017  0.3943 -1.4870
17618TIP3    H274270   6.043   1.211   4.081 -1.6297 -1.2444 -2.2995
17619TIP3   OH274271   4.694   3.082   5.974  0.0649 -0.3026 -0.5755
17619TIP3    H174272   4.756   3.064   5.903  0.5616 -0.1133 -0.2011
17619TIP3    H274273   4.634   3.008   5.973  1.1516 -1.2234 -0.0542
17620TIP3   OH274274   1.531   2.381   5.605 -0.8245 -0.0915  0.8936
17620TIP3    H174275   1.457   2.412   5.553 -0.8552 -0.4997  0.6873
17620TIP3    H274276   1.492   2.326   5.673 -0.6842 -0.7073  0.4884
17621TIP3   OH274277   4.378   4.174  13.340 -0.1485  0.4190 -1.0546
17621TIP3    H174278   4.347   4.205  13.255 -1.7509  1.5414 -0.1138
17621TIP3    H274279   4.474   4.174  13.332 -0.2019  2.1541 -2.3260
17622TIP3   OH274280   5.360   1.371  13.440  0.2410  0.0103 -0.4413
17622TIP3    H174281   5.390   1.327  13.519  0.0243 -0.1576 -0.4501
17622TIP3    H274282   5.290   1.429  13.470 -0.0635 -0.2923 -0.5522
17623TIP3   OH274283   0.686   2.946  14.794  0.0555 -0.0139 -0.3548
17623TIP3    H174284   0.697   2.953  14.699 -1.1419 -0.8374 -0.5791
17623TIP3    H274285   0.713   2.856  14.815 -0.4282 -0.0968 -0.0527
17624TIP3   OH274286   4.797   1.565  11.578 -0.3789  0.4365 -0.1614
17624TIP3    H174287   4.775   1.651  11.615 -0.1453  1.4420 -2.1834
17624TIP3    H274288   4.712   1.522  11.565 -0.6011  0.9065 -0.3098
17625TIP3   OH274289   3.900   6.554   0.954 -0.7302 -0.1682 -0.0283
17625TIP3    H174290   3.879   6.593   0.870  3.1047  0.7472 -0.7527
17625TIP3    H274291   3.848   6.603   1.018 -0.8091  1.8029 -1.5319
17626TIP3   OH274292   0.174   1.088  15.372  0.0270 -0.4669 -0.7355
17626TIP3    H174293   0.192   1.011  15.318 -0.7842 -0.7083 -0.6725
17626TIP3    H274294   0.121   1.145  15.315  0.4632 -0.0358 -0.7181
17627TIP3   OH274295   3.807   6.064  12.033 -0.3799 -0.3738  0.1930
17627TIP3    H174296   3.880   6.002  12.033  1.0995  1.2210 -2.3566
17627TIP3    H274297   3.750   6.034  11.963  0.0403  0.7625 -0.6559
17628TIP3   OH274298   4.367   5.490   4.297 -0.5280  0.3295 -0.4289
17628TIP3    H174299   4.299   5.461   4.358  0.4811 -0.6876  0.2595
17628TIP3    H274300   4.361   5.430   4.223 -0.9442  0.7900 -0.7733
17629TIP3   OH274301   2.658   1.543   2.993  0.5837 -0.3157  0.3055
17629TIP3    H174302   2.568   1.513   3.007  0.5066 -0.5360 -0.5680
17629TIP3    H274303   2.649   1.619   2.935  0.8572  0.6996  1.5483
17630TIP3   OH274304   5.269   3.354   4.804 -0.3282  0.0522  0.4552
17630TIP3    H174305   5.212   3.308   4.743  0.3070  0.8353 -0.7575
17630TIP3    H274306   5.221   3.352   4.887 -1.3753 -0.7041 -0.1418
17631TIP3   OH274307   3.191   3.297  13.429  0.1294 -0.0596  0.3670
17631TIP3    H174308   3.115   3.238  13.432  0.1213 -0.0342  0.8158
17631TIP3    H274309   3.153   3.384  13.413  0.0716 -0.0641  0.4770
17632TIP3   OH274310   5.665   0.477  13.555  0.1579 -0.2931 -0.0642
17632TIP3    H174311   5.626   0.414  13.615 -1.9034  1.1319  0.1869
17632TIP3    H274312   5.620   0.463  13.472 -0.7124  1.1318  0.1260
17633TIP3   OH274313   4.125   6.401  10.858  0.2182  0.0311  0.2878
17633TIP3    H174314   4.037   6.371  10.835  0.3129  0.1828 -0.2944
17633TIP3    H274315   4.111   6.467  10.926 -0.3063  1.8670 -1.5282
17634TIP3   OH274316   6.761   5.569  13.230 -0.2716  0.7913 -0.3232
17634TIP3    H174317   6.751   5.655  13.271 -0.0060  0.8458 -0.3677
17634TIP3    H274318   6.673   5.546  13.200 -0.1863  1.4603 -1.1444
17635TIP3   OH274319   4.433   0.181   0.487 -0.6399 -0.0650  0.4921
17635TIP3    H174320   4.514   0.196   0.438 -1.4176  0.0989 -0.7750
17635TIP3    H274321   4.456   0.113   0.551  0.5518  0.1444  0.3077
17636TIP3   OH274322   5.737   5.990   0.421 -0.0420 -0.0493 -0.0869
17636TIP3    H174323   5.796   6.065   0.432  0.1038  0.0928 -1.6256
17636TIP3    H274324   5.682   5.991   0.500  0.4432  1.2391  0.2636
17637TIP3   OH274325   6.302   2.272  11.993 -0.4468  0.0210 -0.5531
17637TIP3    H174326   6.313   2.317  12.076  1.0462 -1.6556  0.2302
17637TIP3    H274327   6.209   2.283  11.971 -1.2862 -0.8739  2.1798
17638TIP3   OH274328   0.697   3.255   1.489  0.1534  0.2007  0.2293
17638TIP3    H174329   0.704   3.272   1.583  2.7466  1.3945 -0.0833
17638TIP3    H274330   0.637   3.323   1.457  1.5085  1.6507  0.6559
17639TIP3   OH274331   6.732   3.615   2.962  0.2220  0.2819  0.2359
17639TIP3    H174332   6.645   3.575   2.955  0.1401  0.8036 -2.5287
17639TIP3    H274333   6.790   3.540   2.978 -0.3917 -0.4694 -0.9018
17640TIP3   OH274334   5.650   0.982  16.721 -0.2125 -0.0306 -0.1267
17640TIP3    H174335   5.596   1.053  16.688  0.7017  0.6232 -0.2504
17640TIP3    H274336   5.677   1.011  16.808  0.7718  0.1232 -0.4719
17641TIP3   OH274337   5.970   4.493  14.794 -0.0092  0.3269 -0.3993
17641TIP3    H174338   5.974   4.541  14.877  2.0163  0.1473 -0.3385
17641TIP3    H274339   6.002   4.405  14.816  0.0237  0.1133 -1.2752
17642TIP3   OH274340   1.037   3.520   3.545 -0.4187 -0.3169 -0.0696
17642TIP3    H174341   1.035   3.447   3.483 -1.0830 -0.2188 -0.1697
17642TIP3    H274342   0.946   3.545   3.556 -0.3451 -0.5668  1.2439
17643TIP3   OH274343   0.522   3.930  13.371 -0.2032 -0.1073 -0.3412
17643TIP3    H174344   0.520   3.966  13.460  0.1135 -1.3855  0.2093
17643TIP3    H274345   0.611   3.949  13.341 -0.4750  0.8074 -0.6157
17644TIP3   OH274346   0.234   4.489  11.671 -0.2785  0.9706 -0.0565
17644TIP3    H174347   0.145   4.494  11.705 -0.3841  1.4624 -0.3915
17644TIP3    H274348   0.269   4.578  11.679  0.4870  0.6067  0.8584
17645TIP3   OH274349   1.513   5.624   5.466  0.1889 -0.6389 -0.5898
17645TIP3    H174350   1.439   5.683   5.456 -0.1155 -0.1652  3.1069
17645TIP3    H274351   1.586   5.667   5.421 -0.6996  1.1274 -0.3901
17646TIP3   OH274352   5.970   1.492  12.272  0.1624  0.5468 -0.4309
17646TIP3    H174353   5.949   1.577  12.310  0.6776  0.5013 -0.0325
17646TIP3    H274354   5.934   1.427  12.333 -0.7440  0.4660 -1.0276
17647TIP3   OH274355   5.421   3.762  14.420 -0.0553 -0.5577 -0.1749
17647TIP3    H174356   5.483   3.835  14.417 -0.8658  0.2146  0.8560
17647TIP3    H274357   5.474   3.685  14.438  0.6122  0.0760  0.6650
17648TIP3   OH274358   4.651   5.904   0.098 -0.0420  0.2905  0.7393
17648TIP3    H174359   4.701   5.824   0.115  0.5035  0.3073 -0.6373
17648TIP3    H274360   4.702   5.950   0.031 -1.3520  0.8436  0.0854
17649TIP3   OH274361   4.527   4.835  13.938 -0.4465 -0.0147  0.5376
17649TIP3    H174362   4.514   4.917  13.892 -0.9135 -0.7510 -0.6984
17649TIP3    H274363   4.598   4.852  14.000  0.1570  1.0246 -0.4149
17650TIP3   OH274364   3.254   2.413  16.264  0.8095  0.0016 -0.3152
17650TIP3    H174365   3.322   2.438  16.326  2.6299  1.9723 -2.8938
17650TIP3    H274366   3.181   2.471  16.284 -0.0966 -1.8259  2.1805
17651TIP3   OH274367   1.817   0.700   0.123 -0.3651  0.4608  0.6647
17651TIP3    H174368   1.906   0.693   0.087 -0.5483 -0.7566  0.3837
17651TIP3    H274369   1.787   0.787   0.096  1.0833  1.2993  1.6151
17652TIP3   OH274370   5.453   5.115  14.527  0.2297  0.3517 -0.9781
17652TIP3    H174371   5.468   5.097  14.434  1.4193  0.5541 -0.8481
17652TIP3    H274372   5.526   5.172  14.552 -0.4469  0.8486 -0.0736
17653TIP3   OH274373   3.590   6.526   4.600 -0.1835  0.3555  0.1375
17653TIP3    H174374   3.519   6.468   4.573 -0.6230  1.3952 -1.0562
17653TIP3    H274375   3.567   6.611   4.562  2.1166  0.5371 -0.9950
17654TIP3   OH274376   1.455   4.717   1.252  0.3792  0.1263  0.4870
17654TIP3    H174377   1.398   4.782   1.211  0.9266 -0.2087 -0.8533
17654TIP3    H274378   1.404   4.637   1.252  0.2104  0.2316  0.8912
17655TIP3   OH274379   0.523   3.470  16.572 -0.2490 -0.2230  0.2796
17655TIP3    H174380   0.591   3.521  16.616 -1.1585  1.5949 -0.3016
17655TIP3    H274381   0.535   3.490  16.479 -0.2628 -1.5849 -0.0306
17656TIP3   OH274382   5.302   6.381   2.831 -0.4632 -0.0573  0.2625
17656TIP3    H174383   5.382   6.335   2.858  0.0024  1.5277  1.7577
17656TIP3    H274384   5.231   6.320   2.851  0.0068  0.2786  3.5513
17657TIP3   OH274385   0.708   1.337  13.143  0.1597 -0.0669 -0.1018
17657TIP3    H174386   0.803   1.345  13.132  0.0262  2.1162 -0.1729
17657TIP3    H274387   0.685   1.258  13.094  1.7636  0.1918 -1.3826
17658TIP3   OH274388   0.249   2.737  13.512 -0.5500  1.3305  0.3107
17658TIP3    H174389   0.202   2.785  13.581  0.6455  0.8775  1.4707
17658TIP3    H274390   0.341   2.753  13.530 -0.0571 -1.5690  0.9239
17659TIP3   OH274391   3.221   0.333  14.702 -0.5260 -0.1088  0.3649
17659TIP3    H174392   3.307   0.365  14.675 -0.8736  2.8011  2.3307
17659TIP3    H274393   3.234   0.300  14.791 -1.2995 -0.4440  0.3671
17660TIP3   OH274394   1.944   6.702  11.438  0.1598  0.7243 -0.0008
17660TIP3    H174395   1.951   6.693  11.343  1.1831 -3.2599  0.2670
17660TIP3    H274396   1.860   6.661  11.460  0.4064  0.6571  0.8694
17661TIP3   OH274397   1.048   3.758   3.880 -0.5922  0.2245  0.0048
17661TIP3    H174398   1.109   3.830   3.898  0.3893 -0.1810 -1.5597
17661TIP3    H274399   1.079   3.686   3.935  0.7685 -0.1723 -1.2173
17662TIP3   OH274400   5.793   0.805  12.278  0.2367  0.4164  0.4228
17662TIP3    H174401   5.707   0.840  12.255  0.6429  1.3657  0.3081
17662TIP3    H274402   5.785   0.779  12.370 -0.1461  0.5518  0.4275
17663TIP3   OH274403   3.606   2.243  11.324  0.2712  0.1280  0.1692
17663TIP3    H174404   3.598   2.160  11.277 -0.2882 -0.3647  1.1034
17663TIP3    H274405   3.523   2.287  11.308  0.4607  0.3868 -0.0999
17664TIP3   OH274406   1.075   2.324   1.449  0.3675 -0.4399 -0.2426
17664TIP3    H174407   1.161   2.362   1.433 -0.2419  0.7882 -0.7602
17664TIP3    H274408   1.087   2.230   1.435  1.3749 -0.1618 -1.4090
17665TIP3   OH274409   2.307   3.778   0.653  0.7201 -0.0367 -0.4927
17665TIP3    H174410   2.269   3.733   0.729 -0.2558 -0.2345 -1.0714
17665TIP3    H274411   2.234   3.786   0.592  1.2570  0.9841 -1.0229
17666TIP3   OH274412   3.882   4.111   3.487  0.0932 -0.2996  0.0926
17666TIP3    H174413   3.866   4.038   3.548 -3.1229  0.4975  0.4237
17666TIP3    H274414   3.889   4.069   3.401 -3.1804 -1.0952  0.0587
17667TIP3   OH274415   0.754   6.457  14.032 -0.1286 -0.2110  0.4465
17667TIP3    H174416   0.827   6.396  14.022  0.3360  0.4199 -0.0707
17667TIP3    H274417   0.691   6.410  14.088  0.9552 -0.4897  1.4623
17668TIP3   OH274418   0.442   0.268  13.464  0.2250  0.0968 -0.0936
17668TIP3    H174419   0.376   0.289  13.398  1.5529  3.6133 -0.5793
17668TIP3    H274420   0.417   0.320  13.541  1.6628  0.4901  0.1505
17669TIP3   OH274421   0.261   0.723  16.886  0.0660 -0.3448 -0.4021
17669TIP3    H174422   0.177   0.695  16.850 -0.6044  0.8325  0.1781
17669TIP3    H274423   0.246   0.725  16.981  0.8751 -0.4910 -0.2657
17670TIP3   OH274424   1.570   4.702  16.758  0.1712 -0.0170  0.1001
17670TIP3    H174425   1.512   4.696  16.833 -2.7295 -1.3473 -2.0625
17670TIP3    H274426   1.550   4.786  16.718  0.6767  0.0667  0.0103
17671TIP3   OH274427   2.450   4.995   2.359  0.0853  0.3104 -0.1381
17671TIP3    H174428   2.485   5.068   2.410  0.6221 -0.6526  0.9301
17671TIP3    H274429   2.519   4.929   2.361 -0.8849 -0.7276  0.0275
17672TIP3   OH274430   6.232   3.209   5.725 -0.1343  0.5583 -0.3936
17672TIP3    H174431   6.194   3.181   5.809 -0.2724 -0.2453 -0.7148
17672TIP3    H274432   6.295   3.277   5.749  0.4405 -0.2423  0.4544
17673TIP3   OH274433   6.042   6.657   2.489  0.2051  0.5556  0.1432
17673TIP3    H174434   6.016   6.738   2.444  0.4058  0.0631 -0.8910
17673TIP3    H274435   6.043   6.591   2.420  0.5294 -0.2285  0.8871
17674TIP3   OH274436   1.952   1.800   3.934  0.1909  0.3864  0.1923
17674TIP3    H174437   1.889   1.760   3.994  1.2278 -1.3434  0.2155
17674TIP3    H274438   1.934   1.758   3.849  0.7746  0.4759  0.0209
17675TIP3   OH274439   3.712   4.494  13.703  0.3074  0.0557 -0.2525
17675TIP3    H174440   3.739   4.510  13.794 -0.3099  0.5078 -0.1415
17675TIP3    H274441   3.794   4.479  13.656  0.6365 -0.1391  0.3712
17676TIP3   OH274442   2.593   2.091   2.635  0.0966  0.0017 -0.2450
17676TIP3    H174443   2.537   2.139   2.696  2.0435  0.9219  0.9216
17676TIP3    H274444   2.561   2.117   2.548  0.3905  2.6743  0.3407
17677TIP3   OH274445   6.638   5.008   3.749 -0.1565 -0.4897  0.2348
17677TIP3    H174446   6.667   5.089   3.706 -0.4781 -1.6459 -2.3350
17677TIP3    H274447   6.688   5.005   3.830  1.6753  1.1012 -0.7488
17678TIP3   OH274448   2.861   0.234  14.504 -0.7953 -0.5679 -1.0008
17678TIP3    H174449   2.767   0.222  14.522 -0.0306 -1.5554  3.7160
17678TIP3    H274450   2.883   0.316  14.547  0.6949 -0.9226 -1.0319
17679TIP3   OH274451   5.218   4.759   6.757  0.0327 -0.1543  0.5718
17679TIP3    H174452   5.153   4.690   6.746  0.1485 -0.0527 -1.0033
17679TIP3    H274453   5.268   4.734   6.835 -0.4581 -1.4033  0.4992
17680TIP3   OH274454   5.524   1.160   0.531  0.4990 -0.3680 -0.1490
17680TIP3    H174455   5.512   1.069   0.557  1.8420 -0.6598 -0.4923
17680TIP3    H274456   5.586   1.156   0.458  1.1820  0.8681  0.3360
17681TIP3   OH274457   3.688   0.613  15.150  0.5956 -0.9332  0.1433
17681TIP3    H174458   3.716   0.522  15.157 -0.6236 -1.3026  0.3347
17681TIP3    H274459   3.606   0.617  15.198  0.8074  0.3534  0.4428
17682TIP3   OH274460   5.764   0.837   2.300  0.3590 -0.4975 -0.1806
17682TIP3    H174461   5.783   0.847   2.207  1.7169  0.1161  0.1465
17682TIP3    H274462   5.805   0.754   2.325  0.1722 -0.5617 -0.0828
17683TIP3   OH274463   1.245   6.207  17.177 -0.1131  0.2887 -0.0272
17683TIP3    H174464   1.187   6.131  17.180  0.1480 -0.3067 -4.1702
17683TIP3    H274465   1.316   6.186  17.238 -1.7613 -1.1394  1.5113
17684TIP3   OH274466   0.909   5.036  13.436  0.0655  0.2889 -0.3568
17684TIP3    H174467   0.885   5.116  13.390  0.1803  0.9395  0.6864
17684TIP3    H274468   0.988   5.058  13.485 -0.2201 -0.2881  0.3958
17685TIP3   OH274469   3.522   5.723   3.669  0.4297  0.1150 -0.1151
17685TIP3    H174470   3.568   5.642   3.690  1.1850  0.3281 -0.9003
17685TIP3    H274471   3.455   5.696   3.606  0.7565  0.1145 -0.4659
17686TIP3   OH274472   5.023   4.054  11.198  0.1370 -0.3627 -0.0082
17686TIP3    H174473   5.105   4.011  11.223  0.6241 -0.5346 -1.7822
17686TIP3    H274474   4.971   3.985  11.157  0.3318  0.3747 -1.5508
17687TIP3   OH274475   6.234   0.424   0.192  0.6576  0.3153  0.0851
17687TIP3    H174476   6.313   0.460   0.152 -0.3000 -0.2734 -2.5484
17687TIP3    H274477   6.221   0.340   0.146 -0.9474 -0.0563  1.1603
17688TIP3   OH274478   2.297   1.082   0.547 -0.8096  0.3747 -0.4352
17688TIP3    H174479   2.309   1.126   0.631 -0.6611  1.2135 -0.8886
17688TIP3    H274480   2.380   1.035   0.532 -0.7654  0.3793 -0.2020
17689TIP3   OH274481   2.719   5.897   5.804 -0.1610  0.0263  0.4635
17689TIP3    H174482   2.733   5.803   5.812 -0.1255 -0.0492 -0.4055
17689TIP3    H274483   2.632   5.912   5.840 -0.8132 -0.5713 -0.8343
17690TIP3   OH274484   3.467   5.032   1.588 -0.4979 -0.3139  0.8319
17690TIP3    H174485   3.495   5.005   1.676  2.9197 -1.0680 -0.3475
17690TIP3    H274486   3.390   4.978   1.570 -0.6361 -0.9077  2.9280
17691TIP3   OH274487   3.505   5.672  12.538 -0.0604  0.0451 -0.0708
17691TIP3    H174488   3.487   5.608  12.469  1.1161 -0.1870 -0.1809
17691TIP3    H274489   3.533   5.751  12.492  0.1732  0.0734  0.1137
17692TIP3   OH274490   5.708   6.682   3.615 -0.5650 -0.1875  0.2022
17692TIP3    H174491   5.765   6.719   3.547  2.3776  0.4047  2.7651
17692TIP3    H274492   5.710   6.588   3.599  0.5783 -0.1097 -0.2199
17693TIP3   OH274493   3.028   5.990   2.755  0.2545 -0.3486  0.0822
17693TIP3    H174494   3.088   6.059   2.783  2.3947 -2.4510  1.0469
17693TIP3    H274495   2.944   6.013   2.796  0.7186  1.9219 -0.1207
17694TIP3   OH274496   1.563   6.624  16.919  0.5566  0.2004  0.1303
17694TIP3    H174497   1.632   6.667  16.868  1.2725 -1.7191 -0.5819
17694TIP3    H274498   1.607   6.595  16.998 -0.0068  1.0228  0.7641
17695TIP3   OH274499   5.747   1.175   0.345  0.2792  0.1453  0.3466
17695TIP3    H174500   5.835   1.192   0.312 -0.0992 -1.5877 -1.8578
17695TIP3    H274501   5.750   1.085   0.378 -0.4631  0.3530  1.0165
17696TIP3   OH274502   0.830   5.007   0.615  0.2468  0.0531  0.0357
17696TIP3    H174503   0.737   5.028   0.610  0.2277 -0.3320 -1.7750
17696TIP3    H274504   0.851   5.017   0.708 -1.8846 -1.0798  0.7195
17697TIP3   OH274505   1.734   6.153   5.343  0.9200  0.4805 -0.2395
17697TIP3    H174506   1.639   6.147   5.331  1.0034 -0.0572 -0.6790
17697TIP3    H274507   1.752   6.090   5.414  1.2362 -1.2949 -1.8107
17698TIP3   OH274508   4.878   1.351  16.233  0.4979 -0.0823 -0.3796
17698TIP3    H174509   4.858   1.411  16.161  0.2662  1.1974  0.7164
17698TIP3    H274510   4.966   1.320  16.214  0.4252  0.2016 -1.2382
17699TIP3   OH274511   1.616   5.686  12.950  0.2352  0.3101  0.6557
17699TIP3    H174512   1.583   5.693  12.860 -1.4360  1.2801  1.2934
17699TIP3    H274513   1.567   5.612  12.987 -0.0522  0.7268  1.1297
17700TIP3   OH274514   2.489   3.021  14.965  0.7780 -0.2222  0.1305
17700TIP3    H174515   2.511   3.049  14.876  0.9046 -1.5609 -0.2758
17700TIP3    H274516   2.423   3.084  14.994  1.5383  0.8942 -0.4781
17701TIP3   OH274517   2.677   0.918  15.911 -0.0758  0.5654  0.1809
17701TIP3    H174518   2.737   0.924  15.836  1.0258 -0.8363  0.9100
17701TIP3    H274519   2.628   0.838  15.896  0.8689 -0.2759  1.4334
17702TIP3   OH274520   0.317   2.231  13.608 -0.2973 -0.2151  0.2572
17702TIP3    H174521   0.317   2.207  13.700  1.1022 -1.3130  0.0027
17702TIP3    H274522   0.263   2.310  13.604  0.9390  0.8233  2.2859
17703TIP3   OH274523   0.815   6.384  12.783  0.2074 -0.0338 -0.3530
17703TIP3    H174524   0.766   6.451  12.832  1.9122  0.4046  0.8657
17703TIP3    H274525   0.856   6.432  12.711 -1.0500 -0.3914 -1.3436
17704TIP3   OH274526   4.239   3.745   1.406 -0.0327 -0.1578  0.0464
17704TIP3    H174527   4.173   3.802   1.446  1.0356 -0.1783  1.9466
17704TIP3    H274528   4.276   3.797   1.335  0.7608  1.4915  1.5973
17705TIP3   OH274529   6.062   3.816  12.975  0.0348 -0.0011 -0.1421
17705TIP3    H174530   6.002   3.834  13.047 -1.7593  1.1943 -1.8221
17705TIP3    H274531   6.043   3.726  12.950  0.1633 -0.1872  0.4218
17706TIP3   OH274532   6.389   4.053  14.956 -0.0014  0.3108  0.0697
17706TIP3    H174533   6.416   4.075  15.045 -3.5707 -0.6415  1.5688
17706TIP3    H274534   6.429   4.121  14.902 -0.1155  2.7648  2.7893
17707TIP3   OH274535   2.015   0.292   1.159 -0.0103  0.1496 -0.9426
17707TIP3    H174536   2.016   0.323   1.068 -1.9686 -1.3198 -1.5419
17707TIP3    H274537   2.021   0.197   1.151 -0.9713 -0.0459  0.4039
17708TIP3   OH274538   1.821   4.336  11.624 -0.0587  0.8121 -0.0873
17708TIP3    H174539   1.878   4.347  11.548  2.3681  0.6889  1.5697
17708TIP3    H274540   1.861   4.392  11.691 -1.7701  0.4861  1.2654
17709TIP3   OH274541   6.656   5.703  15.134 -0.3844  0.3949  0.1665
17709TIP3    H174542   6.569   5.721  15.168 -0.6534 -1.0632  0.3463
17709TIP3    H274543   6.680   5.619  15.174  0.5477  0.1268 -0.8969
17710TIP3   OH274544   1.134   5.019  13.709 -0.3550 -0.2207 -0.3482
17710TIP3    H174545   1.087   5.036  13.791  0.2842 -0.8612  0.1622
17710TIP3    H274546   1.215   4.976  13.736 -0.8528 -1.9360 -1.4233
17711TIP3   OH274547   3.005   3.057   3.863  0.1115 -0.0646 -0.0109
17711TIP3    H174548   2.913   3.074   3.884  0.3163  2.1830 -0.7149
17711TIP3    H274549   3.053   3.083   3.942  0.1759 -1.1711  0.3318
17712TIP3   OH274550   6.215   3.426  16.855 -0.0690  0.0245  0.2105
17712TIP3    H174551   6.198   3.519  16.844 -0.3373  0.4793  3.6128
17712TIP3    H274552   6.134   3.391  16.891 -0.5245 -1.9346 -2.4134
17713TIP3   OH274553   4.912   1.356  13.783  0.4071 -0.6896 -0.1444
17713TIP3    H174554   4.890   1.390  13.870  0.1438 -0.1652 -0.4127
17713TIP3    H274555   5.006   1.371  13.774  0.4453 -0.7988  0.0726
17714TIP3   OH274556   5.365   1.094   4.586 -0.2979 -0.0140  0.3644
17714TIP3    H174557   5.349   1.011   4.632 -1.4626 -0.0173 -0.0087
17714TIP3    H274558   5.350   1.074   4.494  1.1799  0.2024  0.0530
17715TIP3   OH274559   3.668   1.863  11.513  0.2378  0.3570 -0.0352
17715TIP3    H174560   3.753   1.874  11.556  0.2278  0.5617 -0.0662
17715TIP3    H274561   3.647   1.771  11.526 -0.2112  0.6135  1.2298
17716TIP3   OH274562   4.049   3.241  16.600 -0.1962 -0.2770 -0.5777
17716TIP3    H174563   3.975   3.295  16.625 -0.4455 -1.1627  0.6599
17716TIP3    H274564   4.121   3.270  16.657 -0.0198 -0.4875 -0.6909
17717TIP3   OH274565   6.373   0.778  15.404  0.1177  0.2254  0.0731
17717TIP3    H174566   6.320   0.726  15.343 -0.1172 -0.2742  0.6911
17717TIP3    H274567   6.325   0.860  15.414  0.2915  0.4207 -0.6062
17718TIP3   OH274568   5.935   0.605   6.301 -0.3196 -0.8797  0.1522
17718TIP3    H174569   5.877   0.665   6.255 -0.5630 -1.6427 -0.5718
17718TIP3    H274570   6.001   0.580   6.237  0.6410 -0.2655  0.8792
17719TIP3   OH274571   0.724   2.224   3.856 -0.1671  0.1596 -0.0004
17719TIP3    H174572   0.693   2.207   3.767 -2.1063 -1.1706  0.8843
17719TIP3    H274573   0.820   2.228   3.846 -0.1228 -2.4029 -1.8009
17720TIP3   OH274574   6.606   5.226  12.253 -0.5474 -0.2638 -0.3976
17720TIP3    H174575   6.560   5.296  12.299 -2.7024 -1.9424  0.2020
17720TIP3    H274576   6.678   5.202  12.312  1.5554  2.6754 -1.5309
17721TIP3   OH274577   2.116   6.163  15.567 -0.2760  0.0523  0.4656
17721TIP3    H174578   2.029   6.141  15.602 -0.5346  0.2601 -0.0320
17721TIP3    H274579   2.167   6.190  15.643 -0.6918  0.0619  0.7420
17722TIP3   OH274580   3.594   5.279   3.353 -0.7625  0.1598  0.1389
17722TIP3    H174581   3.520   5.256   3.409 -0.8755  1.6881  0.6677
17722TIP3    H274582   3.583   5.372   3.335 -0.0516 -0.0225 -1.4404
17723TIP3   OH274583   6.352   1.665  15.409  0.4898  0.1861 -0.0894
17723TIP3    H174584   6.414   1.726  15.450 -0.2925  0.1419  1.1917
17723TIP3    H274585   6.407   1.591  15.381  1.4618  1.4678 -1.7372
17724TIP3   OH274586   2.507   6.483   2.825  0.3970  0.2010  0.1469
17724TIP3    H174587   2.422   6.496   2.867  0.8547  1.4793  0.7327
17724TIP3    H274588   2.567   6.536   2.877  1.3749  0.0885 -0.8455
17725TIP3   OH274589   1.228   6.198   2.231 -0.1646 -0.6053  0.1934
17725TIP3    H174590   1.272   6.113   2.228  0.4244 -0.2852 -0.5657
17725TIP3    H274591   1.170   6.196   2.155  0.0382 -0.2242  0.0320
17726TIP3   OH274592   4.145   1.578  13.871  0.8410  0.0614 -0.1045
17726TIP3    H174593   4.051   1.596  13.865  0.3241 -2.2805  0.0635
17726TIP3    H274594   4.186   1.645  13.816 -0.7275  2.3660  1.3869
17727TIP3   OH274595   0.856   2.452   3.586  0.3738 -0.0174 -0.0279
17727TIP3    H174596   0.900   2.473   3.504  0.2857  0.6912  0.1011
17727TIP3    H274597   0.841   2.357   3.582  0.4406 -0.0001 -0.7855
17728TIP3   OH274598   6.415   5.141  12.564 -0.4384  0.2515  0.0097
17728TIP3    H174599   6.419   5.132  12.469 -0.3009  1.3735 -0.0994
17728TIP3    H274600   6.488   5.198  12.586 -0.5492  0.1053  0.7755
17729TIP3   OH274601   1.664   6.246  16.985  0.5750 -0.0594 -0.1752
17729TIP3    H174602   1.590   6.289  17.028  1.2625  1.1308 -0.1242
17729TIP3    H274603   1.625   6.179  16.930 -0.5956  0.9747 -0.6496
17730TIP3   OH274604   3.856   4.064  11.359 -0.2993  0.1668  0.1302
17730TIP3    H174605   3.898   3.980  11.376  1.7692  0.6351 -2.1113
17730TIP3    H274606   3.868   4.113  11.441 -0.5137 -1.2759  1.0682
17731TIP3   OH274607   3.550   2.805  14.617 -0.2499  0.3295 -0.1606
17731TIP3    H174608   3.533   2.778  14.707 -2.0396  0.5493 -0.3974
17731TIP3    H274609   3.598   2.731  14.579 -1.0297 -0.5421  0.4903
17732TIP3   OH274610   0.520   3.307   5.418  0.0515  0.1459  0.1240
17732TIP3    H174611   0.561   3.386   5.382 -0.6568  0.4338 -0.0541
17732TIP3    H274612   0.456   3.280   5.352 -0.6641  0.1987  0.7810
17733TIP3   OH274613   0.824   2.191   1.001  0.4216 -0.7216 -0.0545
17733TIP3    H174614   0.793   2.175   0.912  1.1119 -0.3965 -0.3603
17733TIP3    H274615   0.874   2.112   1.024  2.0277  0.0409 -0.7648
17734TIP3   OH274616   0.641   1.283   3.444 -0.0139 -0.2495  0.3799
17734TIP3    H174617   0.626   1.366   3.490  1.6892 -0.0340  0.6034
17734TIP3    H274618   0.619   1.302   3.353 -1.5672 -0.1497  0.7360
17735TIP3   OH274619   5.280   5.139  13.594  0.2296  0.4209 -0.2777
17735TIP3    H174620   5.324   5.099  13.519 -1.0786 -0.6667 -0.5022
17735TIP3    H274621   5.249   5.223  13.562  0.5917  0.4255 -0.6265
17736TIP3   OH274622   4.032   5.617  14.066 -0.1918  0.3268 -0.2617
17736TIP3    H174623   4.010   5.702  14.103 -1.3433  0.9249 -2.1865
17736TIP3    H274624   4.099   5.635  14.001  1.1344 -0.5702  0.8045
17737TIP3   OH274625   1.534   2.704  16.688  0.8867  0.2741 -0.3231
17737TIP3    H174626   1.593   2.632  16.708  1.3352  0.3600 -1.2869
17737TIP3    H274627   1.532   2.757  16.768 -0.8938 -1.7506  1.0798
17738TIP3   OH274628   2.572   6.216   4.844 -0.2009 -0.1771 -0.0331
17738TIP3    H174629   2.610   6.134   4.874 -0.3295  0.4588  2.0404
17738TIP3    H274630   2.520   6.247   4.918 -0.6772  1.4613 -0.9915
17739TIP3   OH274631   3.280   3.560   2.570  0.0041  0.6985 -0.0754
17739TIP3    H174632   3.218   3.509   2.518 -2.4354  2.8539  0.4709
17739TIP3    H274633   3.226   3.601   2.638  2.2309  1.9646  1.0531
17740TIP3   OH274634   1.666   5.330   3.567 -0.1331  0.2233  0.0268
17740TIP3    H174635   1.737   5.271   3.541 -3.1198 -3.5570 -0.5169
17740TIP3    H274636   1.662   5.395   3.497  3.5484  1.5006  0.8008
17741TIP3   OH274637   1.507   6.534  14.119 -0.0495 -0.0197 -0.4143
17741TIP3    H174638   1.480   6.501  14.034 -2.7474  0.6891  0.0725
17741TIP3    H274639   1.427   6.569  14.158  1.2867  0.5993  2.0076
17742TIP3   OH274640   4.858   3.256   5.237 -0.1037  0.1405  0.0694
17742TIP3    H174641   4.818   3.202   5.306  0.4359 -0.8699 -0.3978
17742TIP3    H274642   4.950   3.262   5.262  0.4218 -1.4873 -1.3143
17743TIP3   OH274643   4.830   2.623  12.538 -0.4914 -0.2118 -0.3699
17743TIP3    H174644   4.774   2.626  12.461 -2.1241  3.7004  0.7591
17743TIP3    H274645   4.789   2.559  12.595 -0.9658 -0.9460 -1.5054
17744TIP3   OH274646   2.612   3.338   0.856  0.1674  0.4642  0.1523
17744TIP3    H174647   2.702   3.342   0.889 -0.4765  0.6089  2.0109
17744TIP3    H274648   2.567   3.409   0.900 -0.9819  0.1062 -0.4089
17745TIP3   OH274649   4.404   6.516   1.681 -0.0290 -0.2521  0.3574
17745TIP3    H174650   4.356   6.599   1.676  0.2751 -0.0208  1.0578
17745TIP3    H274651   4.468   6.530   1.751  0.5181 -0.8294 -0.0131
17746TIP3   OH274652   6.255   6.138  14.184  0.5763  0.0260 -0.8237
17746TIP3    H174653   6.329   6.152  14.243 -0.0191 -1.6561  0.4028
17746TIP3    H274654   6.257   6.044  14.165 -1.2779 -0.0755 -0.6804
17747TIP3   OH274655   4.144   0.929   4.059  0.1027  0.5598 -0.0880
17747TIP3    H174656   4.115   1.020   4.055 -1.0823  0.2816  1.3863
17747TIP3    H274657   4.196   0.924   4.139  0.0452 -0.0861 -0.0853
17748TIP3   OH274658   0.834   6.161  11.969 -0.1228 -0.1683 -0.0524
17748TIP3    H174659   0.902   6.160  12.035 -0.3468  1.4876  0.2601
17748TIP3    H274660   0.753   6.144  12.018 -0.1060 -0.6276 -0.1812
17749TIP3   OH274661   0.163   6.635  14.549 -0.2616  0.1142 -0.0260
17749TIP3    H174662   0.252   6.601  14.544  0.1363  0.9368  1.1422
17749TIP3    H274663   0.168   6.707  14.612 -2.0239 -0.7245  1.1465
17750TIP3   OH274664   2.008   4.049  11.703 -0.1207 -0.6130 -0.3041
17750TIP3    H174665   2.003   4.078  11.612  0.2379 -0.9530 -0.4343
17750TIP3    H274666   1.963   3.965  11.704  0.8024 -1.1184 -0.3880
17751TIP3   OH274667   6.687   2.835  17.041 -0.5063  0.0104  0.0599
17751TIP3    H174668   6.746   2.903  17.072  0.7338 -0.8876 -0.2455
17751TIP3    H274669   6.618   2.882  16.994  1.6792  0.9887 -2.4441
17752TIP3   OH274670   2.799   0.229   4.023  0.3245  0.1103  0.0035
17752TIP3    H174671   2.783   0.143   4.062 -2.5194 -0.2921 -1.7532
17752TIP3    H274672   2.825   0.211   3.933  1.0506  1.1212 -0.0206
17753TIP3   OH274673   1.449   2.363   0.743  0.1344 -0.3079 -0.0152
17753TIP3    H174674   1.385   2.426   0.776 -0.1732 -0.5784 -0.0772
17753TIP3    H274675   1.516   2.358   0.811  0.0935 -0.0097  0.0459
17754TIP3   OH274676   4.863   3.165   2.498 -0.1940 -0.2495 -0.2166
17754TIP3    H174677   4.807   3.235   2.532 -0.6384  0.0659 -1.5546
17754TIP3    H274678   4.949   3.206   2.488  0.0129 -0.4171  0.7231
17755TIP3   OH274679   1.134   4.746  16.864 -0.3774 -0.2860 -0.2174
17755TIP3    H174680   1.097   4.832  16.844  1.5967  1.2168  2.0875
17755TIP3    H274681   1.169   4.716  16.780 -0.1757  1.6455 -0.8856
17756TIP3   OH274682   2.654   0.441   0.848  0.3576  0.3548  0.1425
17756TIP3    H174683   2.683   0.410   0.763 -1.1739 -0.3113 -0.1700
17756TIP3    H274684   2.598   0.516   0.829 -0.0335  0.1736  0.5575
17757TIP3   OH274685   1.745   2.798   4.425 -0.6953  0.2623  0.7746
17757TIP3    H174686   1.809   2.729   4.440  0.0796  1.1012  1.4585
17757TIP3    H274687   1.719   2.826   4.513  3.0436  4.4781  0.9140
17758TIP3   OH274688   0.104   4.956  12.282  0.4955 -0.2159  0.4180
17758TIP3    H174689   0.137   4.982  12.196  0.6005 -0.4193  0.3948
17758TIP3    H274690   0.042   4.886  12.263 -0.4774  0.6321  0.4056
17759TIP3   OH274691   5.379   1.929   5.904  0.2064  0.1675  0.0351
17759TIP3    H174692   5.302   1.877   5.927 -0.8260  1.5412 -0.2008
17759TIP3    H274693   5.370   1.945   5.810  1.6046 -0.9393 -0.3210
17760TIP3   OH274694   2.087   3.630  11.617 -0.2422  0.2751  0.2450
17760TIP3    H174695   2.130   3.656  11.536  1.8747 -2.5750  0.3004
17760TIP3    H274696   2.037   3.552  11.594 -2.4440  1.3874  1.0256
17761TIP3   OH274697   1.685   3.666   0.775 -0.0836 -0.1209  0.0405
17761TIP3    H174698   1.660   3.592   0.830  0.6844 -1.6972 -1.6450
17761TIP3    H274699   1.694   3.739   0.836 -3.8760 -0.5668  1.4024
17762TIP3   OH274700   5.925   0.095   3.688 -0.0763  0.1394  0.1601
17762TIP3    H174701   5.999   0.155   3.700  0.4055 -0.3732 -0.1972
17762TIP3    H274702   5.961   0.022   3.636 -0.8655 -0.0498 -0.1386
17763TIP3   OH274703   3.732   5.872  14.530 -0.1688  0.2134 -0.3628
17763TIP3    H174704   3.693   5.872  14.617 -0.6691  0.7161 -0.5811
17763TIP3    H274705   3.808   5.813  14.537 -1.9837 -2.3095 -0.3856
17764TIP3   OH274706   5.672   3.282   4.917  0.8322  0.3463  0.0103
17764TIP3    H174707   5.632   3.341   4.980  0.6975 -0.4254  0.6705
17764TIP3    H274708   5.610   3.277   4.845  0.6161  0.6104  0.1789
17765TIP3   OH274709   5.442   5.111   1.903  0.4934  0.2733  0.2744
17765TIP3    H174710   5.484   5.115   1.817 -0.8745  0.7787 -0.4016
17765TIP3    H274711   5.511   5.136   1.965  1.7573 -0.9740 -0.5568
17766TIP3   OH274712   1.603   3.768   1.076  0.0811 -0.1239  0.3052
17766TIP3    H174713   1.599   3.837   1.010  0.4825  0.5609  0.9890
17766TIP3    H274714   1.614   3.814   1.159  2.1145 -1.0376  0.6137
17767TIP3   OH274715   0.854   6.076   4.457 -0.1271 -0.0973 -0.3691
17767TIP3    H174716   0.834   6.004   4.397  1.1363 -0.9416  0.1663
17767TIP3    H274717   0.850   6.155   4.402  1.5900 -0.9053 -1.7532
17768TIP3   OH274718   0.501   6.139   2.931 -0.1032 -0.2004  0.6464
17768TIP3    H174719   0.425   6.183   2.970  0.5475  0.9862  0.6235
17768TIP3    H274720   0.565   6.135   3.002  0.8679  1.4361 -0.1006
17769TIP3   OH274721   6.162   3.477   2.879 -0.3265  0.1061 -0.2408
17769TIP3    H174722   6.143   3.534   2.954 -0.6150  2.3044 -1.8905
17769TIP3    H274723   6.081   3.429   2.863 -0.2181 -0.4968  0.8883
17770TIP3   OH274724   6.059   0.628  12.301  0.1452 -0.5210  0.1008
17770TIP3    H174725   6.020   0.653  12.385  0.6832  0.7582 -0.0045
17770TIP3    H274726   6.060   0.708  12.250  0.5522 -1.1083 -0.8439
17771TIP3   OH274727   2.476   3.682  11.786 -0.1390  0.7769  0.0189
17771TIP3    H174728   2.387   3.690  11.822 -0.5815 -0.5183 -0.7008
17771TIP3    H274729   2.532   3.725  11.851 -1.1295  0.3455  1.2149
17772TIP3   OH274730   6.334   4.396  14.561  0.2619  0.6235 -0.0541
17772TIP3    H174731   6.335   4.352  14.477 -0.1036 -0.2069  0.3633
17772TIP3    H274732   6.313   4.487  14.541  1.9366  0.8203 -1.0171
17773TIP3   OH274733   5.141   2.582   4.360 -0.1373  0.1612  0.3234
17773TIP3    H174734   5.108   2.499   4.394 -0.9305  0.0191 -0.7543
17773TIP3    H274735   5.222   2.597   4.408  0.1489 -1.3668  0.3466
17774TIP3   OH274736   4.074   3.152   4.297  0.2867  0.4560 -0.3788
17774TIP3    H174737   4.034   3.174   4.381  0.0296 -1.3535  0.0200
17774TIP3    H274738   4.150   3.098   4.319  0.6883  0.6231 -1.2834
17775TIP3   OH274739   3.480   1.568  15.283 -0.2891  0.0974 -0.4277
17775TIP3    H174740   3.520   1.636  15.229  0.1121 -0.8893 -1.4140
17775TIP3    H274741   3.390   1.562  15.251 -0.6865  0.9703  0.4738
17776TIP3   OH274742   0.771   0.895   5.573 -0.3687 -0.5996  0.1622
17776TIP3    H174743   0.831   0.822   5.591  0.0314 -0.3095  0.0083
17776TIP3    H274744   0.774   0.948   5.653 -0.0806 -0.3492 -0.0144
17777TIP3   OH274745   0.386   0.624   5.195 -0.2713 -0.5802 -0.0056
17777TIP3    H174746   0.302   0.591   5.164 -1.4874  1.3697  1.0122
17777TIP3    H274747   0.425   0.666   5.118 -0.9039 -0.2181 -0.1313
17778TIP3   OH274748   1.580   6.439  12.325 -0.0870  0.7129 -0.1967
17778TIP3    H174749   1.654   6.472  12.377  1.2906 -0.4854 -1.3039
17778TIP3    H274750   1.547   6.517  12.280 -0.0656  1.4222  0.9723
17779TIP3   OH274751   5.605   5.723  14.550 -0.1526 -0.2637 -0.5126
17779TIP3    H174752   5.601   5.782  14.625  0.8518 -2.1433  1.1063
17779TIP3    H274753   5.620   5.781  14.475 -0.6607  1.6280  0.7665
17780TIP3   OH274754   4.877   2.847   1.432 -0.3608  0.2044 -0.1252
17780TIP3    H174755   4.805   2.790   1.458 -0.1851  0.0532  0.0352
17780TIP3    H274756   4.949   2.823   1.491  0.3246 -0.7599 -1.2930
17781TIP3   OH274757   6.569   2.388  10.983 -0.2214 -0.2489  0.0915
17781TIP3    H174758   6.640   2.389  10.918  2.1352 -1.3056  2.4644
17781TIP3    H274759   6.547   2.296  10.993 -2.1728  0.0781 -0.7535
17782TIP3   OH274760   3.829   1.169  12.035 -0.5853  0.0666 -0.4492
17782TIP3    H174761   3.756   1.135  11.983  0.3163 -1.3707 -0.8315
17782TIP3    H274762   3.872   1.090  12.070  1.4312  0.8134 -1.1237
17783TIP3   OH274763   0.852   4.538  15.733 -0.3583 -0.1445 -0.4270
17783TIP3    H174764   0.791   4.464  15.733 -0.5175 -0.0946  2.0251
17783TIP3    H274765   0.930   4.504  15.777  0.2827  0.6356 -0.9418
17784TIP3   OH274766   0.734   1.662   0.413  0.0694 -0.5421 -0.0919
17784TIP3    H174767   0.723   1.741   0.465  2.6915 -0.1446 -0.0117
17784TIP3    H274768   0.712   1.590   0.473  0.4055  0.0205  0.7200
17785TIP3   OH274769   3.434   6.744  14.022 -0.1540 -0.1540  0.2188
17785TIP3    H174770   3.401   6.674  13.966  0.1969 -0.0469 -0.1289
17785TIP3    H274771   3.477   6.697  14.094  0.2601 -0.3067 -0.1181
17786TIP3   OH274772   6.776   5.756  17.011  0.2801  0.6024 -0.1680
17786TIP3    H174773   6.788   5.839  16.966 -0.9222  0.7480 -0.2291
17786TIP3    H274774   6.756   5.693  16.941  0.3040  0.4365 -0.0285
17787TIP3   OH274775   2.232   3.267   3.397  0.4732  0.1283 -0.7323
17787TIP3    H174776   2.323   3.267   3.365  0.5444 -1.3343 -0.6044
17787TIP3    H274777   2.240   3.263   3.492  0.2862  0.0321 -0.7205
17788TIP3   OH274778   0.907   1.947  15.256 -0.1388  0.8867 -0.2076
17788TIP3    H174779   0.938   1.937  15.166 -0.2907 -0.8099 -0.0942
17788TIP3    H274780   0.838   2.013  15.250 -1.9776 -1.0571 -1.8160
17789TIP3   OH274781   3.580   1.070   0.729  0.1756 -0.0929 -0.3512
17789TIP3    H174782   3.650   1.086   0.665 -1.4165  1.4022 -1.8464
17789TIP3    H274783   3.559   0.977   0.718  1.5912 -0.4490 -0.2096
17790TIP3   OH274784   6.644   6.510   5.714 -0.2205 -0.1774 -0.0143
17790TIP3    H174785   6.572   6.565   5.742 -0.8537 -0.6775 -0.6251
17790TIP3    H274786   6.636   6.431   5.767  0.7246  0.3242  0.9087
17791TIP3   OH274787   3.077   1.740  15.791  0.2755 -0.4661  0.1930
17791TIP3    H174788   3.130   1.720  15.714 -0.0518 -0.9847  0.0945
17791TIP3    H274789   3.082   1.835  15.800 -0.7057 -0.2520 -1.2283
17792TIP3   OH274790   4.520   1.772  16.393  0.3479  0.2829 -0.2542
17792TIP3    H174791   4.446   1.716  16.417 -0.3819  0.2404 -2.3939
17792TIP3    H274792   4.553   1.734  16.312  0.8662  1.9963 -0.8922
17793TIP3   OH274793   5.230   6.614  16.813 -0.3624 -0.0841 -0.6877
17793TIP3    H174794   5.297   6.678  16.837 -0.2314  1.0541 -3.6380
17793TIP3    H274795   5.277   6.548  16.762 -0.8146 -1.6659  0.8458
17794TIP3   OH274796   2.280   3.770   1.985  0.2682 -0.2665  0.1211
17794TIP3    H174797   2.185   3.767   1.969 -0.2108 -0.6044  2.5843
17794TIP3    H274798   2.288   3.790   2.078  2.6594  0.2790 -0.1365
17795TIP3   OH274799   0.400   0.996   2.119 -0.2044 -0.4073 -0.8429
17795TIP3    H174800   0.472   1.029   2.173 -2.1884  2.3992  0.3558
17795TIP3    H274801   0.418   1.032   2.032 -0.6179  1.2146 -0.3001
17796TIP3   OH274802   0.448   2.660   4.583 -0.1038  0.4710 -0.1345
17796TIP3    H174803   0.506   2.721   4.538 -1.5889  0.3566 -2.3828
17796TIP3    H274804   0.467   2.575   4.543 -0.0950 -0.0213  0.8812
17797TIP3   OH274805   3.420   2.074  16.526  0.3296  0.5585  0.3916
17797TIP3    H174806   3.350   2.105  16.469 -0.4429 -0.2242  0.8914
17797TIP3    H274807   3.376   2.053  16.608  0.6895 -2.3544 -0.0638
17798TIP3   OH274808   0.740   3.624  10.360  0.3113 -0.0898 -0.2220
17798TIP3    H174809   0.815   3.619  10.301  0.8675  1.1789  0.3469
17798TIP3    H274810   0.738   3.539  10.404  1.1269 -0.3038 -0.5774
17799TIP3   OH274811   0.727   2.331  11.929  0.4779 -0.6179 -0.0571
17799TIP3    H174812   0.751   2.239  11.920  0.3268 -0.4821 -2.3120
17799TIP3    H274813   0.668   2.348  11.856  2.1122  1.7507 -0.9715
17800TIP3   OH274814   4.700   6.506  11.113 -0.3364  0.0568  0.5324
17800TIP3    H174815   4.639   6.533  11.044 -0.0288  1.5312  0.7922
17800TIP3    H274816   4.767   6.576  11.114  0.3322 -0.5728  1.4922
17801TIP3   OH274817   1.409   3.472  12.658 -0.5447  0.2751 -0.0171
17801TIP3    H174818   1.334   3.521  12.625 -1.0802 -0.3879  0.2046
17801TIP3    H274819   1.416   3.396  12.600  0.5389  0.8026 -0.6212
17802TIP3   OH274820   0.296   5.222  16.168  0.2483 -0.0637 -0.0776
17802TIP3    H174821   0.226   5.161  16.193  1.0486 -1.0805 -0.2468
17802TIP3    H274822   0.335   5.182  16.090  0.5197  0.8976 -0.4422
17803TIP3   OH274823   1.594   0.304   4.596 -0.0036  0.6030  0.2753
17803TIP3    H174824   1.658   0.305   4.524 -0.5995 -1.2772 -0.3484
17803TIP3    H274825   1.647   0.311   4.675  0.8371  0.7780 -0.2894
17804TIP3   OH274826   5.970   6.067  15.624  0.5965 -0.2803  0.4777
17804TIP3    H174827   6.053   6.063  15.672  1.1863 -0.9864 -0.5482
17804TIP3    H274828   5.975   5.994  15.562 -1.0547 -0.6892  0.7856
17805TIP3   OH274829   4.413   2.123  15.232 -0.2092 -0.2176 -0.0866
17805TIP3    H174830   4.429   2.088  15.144  0.4973  0.7644 -0.3645
17805TIP3    H274831   4.448   2.212  15.229 -1.3070  0.2626  0.8182
17806TIP3   OH274832   5.499   1.789   5.233  0.4941 -1.1471  1.0520
17806TIP3    H174833   5.455   1.707   5.209 -1.0255  0.2373 -1.2642
17806TIP3    H274834   5.491   1.794   5.328 -3.0419 -1.7823  0.9181
17807TIP3   OH274835   2.098   4.852  16.551  0.4765 -0.0425  0.1909
17807TIP3    H174836   2.146   4.908  16.490  0.3394 -1.2112 -1.0583
17807TIP3    H274837   2.162   4.788  16.581  0.9106  1.3824  2.4704
17808TIP3   OH274838   1.984   3.736  11.948 -0.5071 -0.3627 -0.0743
17808TIP3    H174839   1.912   3.795  11.971  1.2562  0.9248  2.6050
17808TIP3    H274840   1.940   3.654  11.923 -2.9572  1.3461 -1.8691
17809TIP3   OH274841   0.153   6.151   3.815 -0.0556 -0.9017 -0.6063
17809TIP3    H174842   0.178   6.061   3.792  0.3472 -0.7772 -0.6487
17809TIP3    H274843   0.081   6.140   3.878  0.9463 -1.2640  0.5050
17810TIP3   OH274844   3.025   3.037  12.821 -0.4715 -0.1318  0.3569
17810TIP3    H174845   3.085   3.050  12.894 -0.0829  0.4771 -0.0625
17810TIP3    H274846   3.078   3.055  12.743 -0.9416 -0.5463 -0.0626
17811TIP3   OH274847   6.776   5.915  14.414 -0.3014  0.0063  0.5862
17811TIP3    H174848   6.713   5.867  14.467  0.0919 -0.5914  0.5167
17811TIP3    H274849   6.738   5.916  14.327  0.0678 -0.9065  0.3999
17812TIP3   OH274850   2.058   6.779  12.551 -0.1875  0.0600 -0.2044
17812TIP3    H174851   2.098   6.692  12.560 -1.9857 -0.7094  0.9524
17812TIP3    H274852   1.994   6.783  12.622 -1.4217  1.6190 -1.3358
17813TIP3   OH274853   3.110   4.724  14.375  0.1921 -0.3047  0.1718
17813TIP3    H174854   3.061   4.655  14.331 -0.7406 -0.0475  0.7680
17813TIP3    H274855   3.049   4.797  14.381  1.5504  1.0673 -1.5629
17814TIP3   OH274856   2.611   3.296   5.225  0.2274  0.0184 -0.0688
17814TIP3    H174857   2.619   3.382   5.183  1.1879 -0.6500 -1.3309
17814TIP3    H274858   2.530   3.301   5.276  2.5153  3.2470  3.7622
17815TIP3   OH274859   1.142   3.604   4.411  0.6166  0.3663 -0.1943
17815TIP3    H174860   1.145   3.510   4.428  1.6664  0.5518  0.8229
17815TIP3    H274861   1.201   3.617   4.337 -0.4128  0.1084 -1.0871
17816TIP3   OH274862   2.388   1.795   5.091 -0.4353  0.0195 -0.2565
17816TIP3    H174863   2.360   1.885   5.076 -2.4312 -0.6928 -1.2338
17816TIP3    H274864   2.329   1.742   5.037 -0.2597 -1.9655  1.3601
17817TIP3   OH274865   3.754   1.293   0.561 -0.5431  0.6411 -0.4751
17817TIP3    H174866   3.792   1.329   0.481  0.0591  2.8461  0.7124
17817TIP3    H274867   3.697   1.363   0.594 -2.9833 -1.2534 -0.3574
17818TIP3   OH274868   5.353   4.083   1.254  0.2945 -0.1266 -0.0522
17818TIP3    H174869   5.287   4.153   1.248 -0.2498 -0.6190  0.0434
17818TIP3    H274870   5.311   4.008   1.213  0.3482 -0.7707  1.0380
17819TIP3   OH274871   4.292   4.451   3.072  0.1689  0.7107 -0.5262
17819TIP3    H174872   4.216   4.508   3.056 -0.7187 -0.0457  0.8424
17819TIP3    H274873   4.366   4.500   3.035 -0.6781  2.3966 -0.0991
17820TIP3   OH274874   2.967   4.682   3.332  0.0101  0.0318  0.2926
17820TIP3    H174875   3.041   4.738   3.307  0.5846 -0.2778  1.2727
17820TIP3    H274876   2.969   4.611   3.268 -0.5783  0.9823 -0.8174
17821TIP3   OH274877   4.291   0.618  12.606  0.6659  0.4763 -0.3997
17821TIP3    H174878   4.227   0.549  12.624  2.4881 -1.4015 -0.7123
17821TIP3    H274879   4.245   0.679  12.548 -1.4274  0.2691  0.9356
17822TIP3   OH274880   0.011   0.237  15.085 -0.4842 -0.1402 -0.2770
17822TIP3    H174881  -0.001   0.322  15.042  1.2611  0.6175  0.6522
17822TIP3    H274882   0.017   0.258  15.178 -1.2675 -1.4393  0.0982
17823TIP3   OH274883   5.218   6.177   5.896 -0.9211  0.6338 -0.2335
17823TIP3    H174884   5.309   6.176   5.868 -0.9153  0.4785 -0.2107
17823TIP3    H274885   5.195   6.085   5.908 -1.1961  0.6480 -0.6213
17824TIP3   OH274886   5.492   6.628  11.209  0.6249  0.0335  0.1982
17824TIP3    H174887   5.575   6.634  11.161  0.5441  1.2868  0.1710
17824TIP3    H274888   5.438   6.571  11.155  1.2929 -0.3628 -0.0647
17825TIP3   OH274889   2.085   1.119   1.069  0.5459 -0.1398 -0.0871
17825TIP3    H174890   2.057   1.055   1.004 -2.8306  0.4881  0.5417
17825TIP3    H274891   2.072   1.204   1.027  2.8661  0.2457 -0.1428
17826TIP3   OH274892   0.657   0.559  11.242  0.4103 -0.3308  0.4212
17826TIP3    H174893   0.563   0.545  11.258  0.2332  0.1371 -0.1534
17826TIP3    H274894   0.668   0.653  11.247  0.5086 -0.2166 -1.1718
17827TIP3   OH274895   3.868   4.538  14.917  0.0120 -0.9399  0.1003
17827TIP3    H174896   3.940   4.524  14.978  0.8347 -0.0125 -0.6060
17827TIP3    H274897   3.895   4.616  14.867 -1.6650 -0.3399  0.0863
17828TIP3   OH274898   0.580   1.065  11.164 -0.4128 -0.0720  0.0320
17828TIP3    H174899   0.607   1.017  11.086 -1.1992 -1.0735  0.3521
17828TIP3    H274900   0.536   1.000  11.218 -0.0832  0.6607  1.2168
17829TIP3   OH274901   3.051   4.076  15.004 -1.2657  0.7669  0.6466
17829TIP3    H174902   3.102   4.083  15.084 -0.6454  0.0224  0.3297
17829TIP3    H274903   2.990   4.004  15.019  0.1606 -0.6990 -0.2085
17830TIP3   OH274904   0.933   6.127   2.548 -0.3634 -0.2058 -0.1159
17830TIP3    H174905   0.896   6.097   2.631 -0.3060  1.9966  0.7618
17830TIP3    H274906   0.947   6.047   2.498 -1.7250 -1.4789  1.4358
17831TIP3   OH274907   1.391   0.156  15.760  0.3536  0.4853  0.0481
17831TIP3    H174908   1.436   0.220  15.705  0.7712  1.3692  1.3630
17831TIP3    H274909   1.300   0.187  15.764 -0.4184 -1.1628 -2.4042
17832TIP3   OH274910   5.020   3.299  13.487  0.3816  0.7086 -0.6299
17832TIP3    H174911   4.953   3.235  13.509 -2.2842  3.8138  1.3307
17832TIP3    H274912   5.099   3.270  13.534 -1.2727 -0.1821  1.7690
17833TIP3   OH274913   4.061   5.388   2.552 -0.7914  0.2726 -0.1608
17833TIP3    H174914   4.072   5.364   2.460 -0.8794 -1.5396  0.2562
17833TIP3    H274915   4.056   5.304   2.598  0.5839  1.1114  1.6618
17834TIP3   OH274916   0.364   2.195  12.161 -0.1372 -0.4669 -0.1450
17834TIP3    H174917   0.374   2.289  12.172  0.1162 -0.4852 -0.2163
17834TIP3    H274918   0.295   2.186  12.094  0.4065 -0.3183 -0.7329
17835TIP3   OH274919   5.498   5.448   1.654  0.0549  0.4296 -0.6221
17835TIP3    H174920   5.464   5.418   1.738  2.1102  0.7199  0.3571
17835TIP3    H274921   5.526   5.369   1.609  2.1540  0.5187  0.4541
17836TIP3   OH274922   6.485   5.584  12.595  0.6122  0.1077 -0.0752
17836TIP3    H174923   6.427   5.611  12.667 -0.0860  0.6133 -0.8064
17836TIP3    H274924   6.523   5.501  12.625 -0.8572 -0.4910  0.2508
17837TIP3   OH274925   1.906   3.772   3.972  0.6426  0.5608  0.2693
17837TIP3    H174926   1.903   3.751   3.879  0.4069 -2.1190  0.8221
17837TIP3    H274927   1.927   3.866   3.974 -0.6714  1.0166 -2.4716
17838TIP3   OH274928   1.635   4.689   4.134  0.0121 -0.3425 -0.3502
17838TIP3    H174929   1.696   4.678   4.206  0.4613 -0.2961 -0.7166
17838TIP3    H274930   1.626   4.602   4.095  0.5374 -0.1823 -0.8419
17839TIP3   OH274931   4.240   3.329  11.856  0.8383 -0.4101  0.4410
17839TIP3    H174932   4.267   3.352  11.767 -1.3083  1.0228  0.1046
17839TIP3    H274933   4.228   3.234  11.853  0.1766 -0.3026 -0.9960
17840TIP3   OH274934   1.201   5.698  12.353 -0.0784 -0.2351  0.5174
17840TIP3    H174935   1.172   5.781  12.390 -1.7891 -0.8835  0.7380
17840TIP3    H274936   1.179   5.705  12.260 -1.2891 -0.8367  0.7354
17841TIP3   OH274937   5.713   5.043   2.492  0.1400 -0.1949 -0.4524
17841TIP3    H174938   5.693   5.105   2.423 -1.1674 -0.3920 -0.2737
17841TIP3    H274939   5.674   4.960   2.463  0.0564 -0.4134  0.2560
17842TIP3   OH274940   6.769   0.044   3.970  0.1253 -0.2732 -0.1377
17842TIP3    H174941   6.791   0.128   3.929  0.1008 -0.6460 -0.9344
17842TIP3    H274942   6.675   0.050   3.988  0.1505 -0.0777 -0.0682
17843TIP3   OH274943   2.412   6.715  15.926 -0.1408  0.3270 -0.2228
17843TIP3    H174944   2.488   6.664  15.954 -0.0374  0.4323 -0.3088
17843TIP3    H274945   2.435   6.746  15.838 -0.2234  0.4802 -0.1908
17844TIP3   OH274946   3.805   2.239   2.874  0.4564  0.2199 -0.5153
17844TIP3    H174947   3.836   2.152   2.849  0.0071 -0.1250  0.0854
17844TIP3    H274948   3.754   2.269   2.799 -0.2843 -0.4957 -0.3053
17845TIP3   OH274949   6.739   1.545  10.534 -0.5576  0.0000  0.1660
17845TIP3    H174950   6.771   1.491  10.462  0.3837 -0.9850  1.2841
17845TIP3    H274951   6.681   1.609  10.492 -1.1702 -1.4404 -1.2643
17846TIP3   OH274952   0.827   4.338  15.456  0.3271  0.2176  0.1656
17846TIP3    H174953   0.840   4.430  15.481 -1.7946  1.2025 -1.9135
17846TIP3    H274954   0.820   4.341  15.360 -1.6619 -1.8119  0.1638
17847TIP3   OH274955   1.844   2.506   4.228  0.0538 -0.6157  0.3196
17847TIP3    H174956   1.851   2.411   4.234 -0.3552 -0.6469  0.3305
17847TIP3    H274957   1.910   2.531   4.164 -1.0865 -1.1092 -1.1116
17848TIP3   OH274958   2.834   4.101   2.698  0.3857 -0.4229 -0.1134
17848TIP3    H174959   2.762   4.091   2.636 -1.1797  1.9107  1.2032
17848TIP3    H274960   2.855   4.194   2.697 -0.8041  0.0931  3.8769
17849TIP3   OH274961   5.408   1.541   0.039  0.0362 -0.0056  0.9911
17849TIP3    H174962   5.497   1.510   0.054  1.0332  2.0743 -0.1013
17849TIP3    H274963   5.418   1.612  -0.024 -2.1611  1.6701  2.3644
17850TIP3   OH274964   4.535   1.348   4.405 -0.6889  0.1907  0.0611
17850TIP3    H174965   4.523   1.306   4.319 -1.3329  0.7117 -0.1149
17850TIP3    H274966   4.480   1.297   4.464  0.0451 -0.4002  0.2538
17851TIP3   OH274967   5.978   1.857   1.970  0.2261 -0.4528  0.5802
17851TIP3    H174968   5.913   1.825   1.908  2.0159 -1.0386 -1.1073
17851TIP3    H274969   5.959   1.950   1.980 -0.1428 -0.3601 -0.8137
17852TIP3   OH274970   0.180   2.609   4.260 -0.1744 -0.1219 -0.7865
17852TIP3    H174971   0.186   2.522   4.300  0.4367  0.1497 -0.2565
17852TIP3    H274972   0.195   2.594   4.167 -0.8896 -0.6826 -0.8125
17853TIP3   OH274973   5.078   6.308   2.028 -0.2292  0.2128  0.4103
17853TIP3    H174974   4.994   6.331   1.989  0.9169  1.6618 -1.3428
17853TIP3    H274975   5.077   6.352   2.113 -0.8811  0.9883  0.0174
17854TIP3   OH274976   1.064   2.534  11.389  0.3826  0.4799  0.1106
17854TIP3    H174977   0.970   2.553  11.395  0.3645  0.3895  0.1108
17854TIP3    H274978   1.077   2.456  11.443  0.4399  0.4305  0.0253
17855TIP3   OH274979   1.269   4.470   1.550 -0.2988 -0.4295 -0.3154
17855TIP3    H174980   1.204   4.518   1.499  0.4886  0.0160 -0.9180
17855TIP3    H274981   1.348   4.525   1.547 -0.5454  0.1854  2.3559
17856TIP3   OH274982   1.667   2.373   3.438 -0.0087  0.7977  0.3709
17856TIP3    H174983   1.694   2.294   3.391 -1.1537 -0.0535  1.0912
17856TIP3    H274984   1.742   2.394   3.494 -0.8150 -1.7217  2.5850
17857TIP3   OH274985   4.368   6.125  11.507 -0.4156 -0.1133 -0.3142
17857TIP3    H174986   4.414   6.050  11.544 -0.9908 -0.7885 -0.9424
17857TIP3    H274987   4.416   6.144  11.426  0.2055  0.7053  0.2222
17858TIP3   OH274988   3.262   1.568   1.620 -0.4167  0.3819 -0.2538
17858TIP3    H174989   3.226   1.644   1.666  2.6012  0.5861  2.0517
17858TIP3    H274990   3.266   1.596   1.528  0.3198  2.9136  0.4757
17859TIP3   OH274991   0.289   4.778   2.501 -0.0949 -0.0456 -0.6118
17859TIP3    H174992   0.200   4.744   2.501 -0.1807 -0.1038  2.5475
17859TIP3    H274993   0.337   4.719   2.559  2.0833 -0.0666 -2.2894
17860TIP3   OH274994   6.582   5.342   4.958  0.0087  0.5348 -0.1138
17860TIP3    H174995   6.559   5.332   4.866 -1.0466  0.3474  0.1523
17860TIP3    H274996   6.560   5.433   4.978  2.6624  1.3887 -0.6674
17861TIP3   OH274997   3.691   4.822   0.798 -0.2320  0.1457 -0.2583
17861TIP3    H174998   3.739   4.814   0.715 -0.1367 -1.7659 -0.0716
17861TIP3    H274999   3.607   4.780   0.780  0.5979 -2.3357  1.1708
17862TIP3   OH275000   6.582   4.126   5.453  0.5305  0.3265  0.1726
17862TIP3    H175001   6.658   4.067   5.447 -1.1028 -1.8742  0.1100
17862TIP3    H275002   6.580   4.170   5.368  0.0431 -1.8885 -1.0566
17863TIP3   OH275003   0.075   1.439   0.934 -0.2523  0.2011 -0.2516
17863TIP3    H175004   0.038   1.396   1.011 -0.0608  0.6604  0.1061
17863TIP3    H275005   0.009   1.503   0.909 -0.2421  0.1660 -0.3668
17864TIP3   OH275006   3.391   0.788  11.113  0.1058  0.1927  0.5864
17864TIP3    H175007   3.394   0.872  11.067  1.1645 -0.2960 -0.2792
17864TIP3    H275008   3.308   0.789  11.160 -0.7127  0.9834 -0.8348
17865TIP3   OH275009   4.904   3.336  14.905 -0.0757  0.3997 -0.7472
17865TIP3    H175010   4.866   3.402  14.962  1.7579 -0.9541  2.2824
17865TIP3    H275011   4.921   3.382  14.822 -1.3221  2.9370  0.3104
17866TIP3   OH275012   4.035   5.226   4.466 -0.7337  0.1710 -0.4112
17866TIP3    H175013   3.955   5.239   4.517 -0.3107  0.0884  0.2911
17866TIP3    H275014   4.077   5.151   4.507 -0.0679  0.5014 -0.4744
17867TIP3   OH275015   3.352   3.542  14.838  0.3507 -0.0635 -0.0453
17867TIP3    H175016   3.278   3.584  14.881  0.2107  0.0346 -0.3810
17867TIP3    H275017   3.409   3.614  14.811  0.7423 -0.1542  0.5206
17868TIP3   OH275018   5.143   3.165  11.929  0.0615 -0.7483  0.0053
17868TIP3    H175019   5.130   3.237  11.992 -0.6025 -0.2834 -0.6337
17868TIP3    H275020   5.109   3.201  11.846  3.3211 -0.3504 -1.2879
17869TIP3   OH275021   4.078   5.043  16.867  0.3898 -0.1745  0.0383
17869TIP3    H175022   4.021   4.969  16.888  0.6933 -0.7798 -1.1553
17869TIP3    H275023   4.099   5.082  16.951 -1.6760 -0.0098  0.5482
17870TIP3   OH275024   0.119   1.314  17.119  0.1749 -0.3334  0.0607
17870TIP3    H175025   0.038   1.365  17.120 -1.0478 -1.8826 -3.2251
17870TIP3    H275026   0.141   1.307  17.026  3.0111 -1.6517  0.7251
17871TIP3   OH275027   1.853   3.247   5.053 -0.8554 -0.1650 -0.0999
17871TIP3    H175028   1.911   3.209   4.987 -1.5890 -0.7480 -0.4240
17871TIP3    H275029   1.901   3.238   5.135  0.3896  1.2383 -0.6303
17872TIP3   OH275030   2.739   4.667  13.732 -0.2407  0.7787 -0.7142
17872TIP3    H175031   2.769   4.727  13.800 -0.0043  0.9999 -1.0088
17872TIP3    H275032   2.645   4.660  13.746 -0.3680  1.7020 -1.0449
17873TIP3   OH275033   4.317   3.001   5.062  0.5266 -0.2238 -0.1893
17873TIP3    H175034   4.311   3.075   5.122  0.8784  0.2789 -0.7603
17873TIP3    H275035   4.246   2.942   5.089  1.0312 -0.2783  1.0685
17874TIP3   OH275036   3.830   2.340   4.038  0.1121 -0.0712  0.2415
17874TIP3    H175037   3.892   2.398   3.993  0.7834 -1.6402 -0.9478
17874TIP3    H275038   3.840   2.362   4.131  0.0821  1.9321 -0.1950
17875TIP3   OH275039   4.312   4.753  16.784  0.3538 -0.1082 -0.0791
17875TIP3    H175040   4.403   4.782  16.795  0.5505 -1.0092  0.7759
17875TIP3    H275041   4.287   4.719  16.870 -0.3178 -1.1647 -0.6703
17876TIP3   OH275042   6.726   1.916  13.357 -0.3085 -0.1663 -0.2786
17876TIP3    H175043   6.630   1.914  13.364 -0.5958  1.9177 -2.3734
17876TIP3    H275044   6.750   2.004  13.383  0.8237 -0.0453 -1.6050
17877TIP3   OH275045   3.401   3.809   3.067  0.0771 -0.2161  0.1889
17877TIP3    H175046   3.464   3.792   3.137  1.1255 -0.4813 -0.7885
17877TIP3    H275047   3.430   3.891   3.028 -2.8558  2.1942  2.5487
17878TIP3   OH275048   1.404   1.451  13.410  0.6448 -0.4764  0.5858
17878TIP3    H175049   1.407   1.373  13.355  0.1480  0.9350 -1.5424
17878TIP3    H275050   1.313   1.479  13.408  1.3219  1.9050 -1.3478
17879TIP3   OH275051   6.678   4.964  12.810 -0.0168 -0.1333  0.2497
17879TIP3    H175052   6.648   4.874  12.795 -0.8244 -0.6360  3.9320
17879TIP3    H275053   6.598   5.015  12.820  0.4421  0.7539 -0.4417
17880TIP3   OH275054   1.616   5.892   3.723 -0.0565 -0.2932 -0.0487
17880TIP3    H175055   1.644   5.970   3.771  0.4785 -0.1922 -0.5126
17880TIP3    H275056   1.521   5.889   3.735  0.0016  0.0463  0.5366
17881TIP3   OH275057   4.792   2.808  12.862 -0.0340 -0.1967  0.0143
17881TIP3    H175058   4.867   2.862  12.885  1.3716 -1.5144 -1.1996
17881TIP3    H275059   4.769   2.835  12.773 -0.4474 -0.3883  0.0591
17882TIP3   OH275060   4.235   1.681   2.144  0.6048 -0.1035 -0.0025
17882TIP3    H175061   4.172   1.694   2.214 -0.8474 -0.4490 -1.1967
17882TIP3    H275062   4.255   1.587   2.146  0.2021 -0.1978 -0.3420
17883TIP3   OH275063   6.025   0.389   1.495  0.4369  0.5556  0.0611
17883TIP3    H175064   6.088   0.427   1.434  2.1014  0.0054  1.3843
17883TIP3    H275065   6.077   0.339   1.557 -1.3757 -0.5928  0.7560
17884TIP3   OH275066   0.178   0.652  13.812  0.4217 -0.6087  0.4977
17884TIP3    H175067   0.233   0.609  13.877  0.3803  0.4637  1.2690
17884TIP3    H275068   0.126   0.715  13.862  0.2195  0.0814 -0.5372
17885TIP3   OH275069   2.992   4.563   2.634  0.3019 -0.0849 -0.3427
17885TIP3    H175070   2.981   4.519   2.719 -0.2064  0.5748 -0.0552
17885TIP3    H275071   3.053   4.507   2.586 -1.1359 -1.6874 -0.4022
17886TIP3   OH275072   5.854   2.722   1.038 -0.4156 -0.1571  0.4930
17886TIP3    H175073   5.876   2.788   1.103 -0.3316  0.4090 -0.0970
17886TIP3    H275074   5.847   2.771   0.956 -0.2733 -0.8934  0.0327
17887TIP3   OH275075   3.978   1.674  12.784  0.2697  0.7691  0.0948
17887TIP3    H175076   4.043   1.624  12.834  0.6056  0.9929 -0.1188
17887TIP3    H275077   4.023   1.699  12.704 -0.5915 -0.5267 -0.8451
17888TIP3   OH275078   2.130   1.217  12.507 -0.7338 -0.2768  0.0827
17888TIP3    H175079   2.203   1.279  12.509 -0.5821 -0.4419 -0.3992
17888TIP3    H275080   2.119   1.195  12.415 -1.5166 -0.1059  0.1318
17889TIP3   OH275081   2.270   2.167  16.366 -0.4344 -0.1476 -0.5090
17889TIP3    H175082   2.319   2.085  16.377  0.4322  0.4930  0.5550
17889TIP3    H275083   2.182   2.146  16.397 -0.2342 -0.6946 -0.2956
17890TIP3   OH275084   2.352   5.455   6.208  0.8492  0.6840 -0.2484
17890TIP3    H175085   2.403   5.374   6.207  0.6049  0.5258  0.0730
17890TIP3    H275086   2.342   5.476   6.301 -0.3891  0.2547 -0.2646
17891TIP3   OH275087   0.064   5.556   2.888 -0.4742 -0.5248  0.3948
17891TIP3    H175088   0.020   5.597   2.813  2.1680 -0.5897 -1.3224
17891TIP3    H275089  -0.004   5.549   2.955 -1.8795  3.6736 -0.3258
17892TIP3   OH275090   0.826   2.261  15.745 -0.6710  0.1937 -0.5316
17892TIP3    H175091   0.785   2.295  15.824 -0.0917 -0.1268 -0.0856
17892TIP3    H275092   0.765   2.282  15.675 -0.9504  0.9357 -0.0710
17893TIP3   OH275093   3.509   2.280   3.725 -0.4082 -0.2448 -0.4048
17893TIP3    H175094   3.506   2.277   3.820  0.3964  0.1407 -0.3638
17893TIP3    H275095   3.431   2.231   3.697 -0.6524 -0.3495  0.4434
17894TIP3   OH275096   2.075   1.023   2.252 -0.9430 -0.2037  0.2536
17894TIP3    H175097   2.167   1.017   2.227 -0.9579 -0.7457  0.3187
17894TIP3    H275098   2.044   1.103   2.209 -0.0541  0.8513  1.5107
17895TIP3   OH275099   5.981   5.830  15.090  0.1265  0.4769 -0.2705
17895TIP3    H175100   5.971   5.908  15.037  0.9202 -0.2954 -1.6089
17895TIP3    H275101   6.035   5.857  15.164  1.5470  0.8974 -1.4290
17896TIP3   OH275102   1.291   6.600   2.209  0.3979 -0.4677 -0.1700
17896TIP3    H175103   1.237   6.540   2.157 -1.8960  1.4944 -0.2340
17896TIP3    H275104   1.365   6.622   2.151 -0.7307 -0.3246 -1.6213
17897TIP3   OH275105   3.427   4.206   1.598 -0.5817  0.2864 -0.2946
17897TIP3    H175106   3.375   4.145   1.546  1.0991  0.4337 -2.3063
17897TIP3    H275107   3.502   4.153   1.628  0.5402  1.1207 -1.4960
17898TIP3   OH275108   3.942   1.994  13.621 -0.2235 -0.0017  0.1486
17898TIP3    H175109   3.934   2.088  13.607 -1.8515 -0.4233 -2.6924
17898TIP3    H275110   4.028   1.982  13.660  1.4272  2.4462 -2.3820
17899TIP3   OH275111   4.531   2.721  11.598  0.4599  0.1273 -0.6754
17899TIP3    H175112   4.584   2.797  11.622 -2.7818  1.9024  1.5772
17899TIP3    H275113   4.498   2.743  11.511  3.2508 -1.0652 -2.1791
17900TIP3   OH275114   2.181   0.963  16.309  0.2379  0.1269  0.2522
17900TIP3    H175115   2.152   1.043  16.352  0.9106  1.6242 -1.9145
17900TIP3    H275116   2.251   0.929  16.365  0.9328  1.8717  0.4819
17901TIP3   OH275117   1.076   6.350   1.014 -0.2045  0.1384 -0.4233
17901TIP3    H175118   1.105   6.265   1.048  1.8851  0.1629 -1.9382
17901TIP3    H275119   1.001   6.330   0.958 -1.0486 -0.3976  0.8443
17902TIP3   OH275120   2.840   1.753   1.940 -0.7412 -0.5765  0.0237
17902TIP3    H175121   2.860   1.739   2.033  0.2649 -0.5996 -0.1818
17902TIP3    H275122   2.820   1.846   1.933 -2.3790 -0.8609  0.5180
17903TIP3   OH275123   1.560   2.901  13.049  0.1031 -0.0462 -0.0805
17903TIP3    H175124   1.497   2.829  13.055 -0.0441 -0.0199 -1.1739
17903TIP3    H275125   1.510   2.979  13.074 -0.1755 -0.0914 -0.4952
17904TIP3   OH275126   6.497   3.892   3.381 -0.3676 -0.6531  0.6445
17904TIP3    H175127   6.531   3.808   3.410 -0.9752 -1.4071 -0.7414
17904TIP3    H275128   6.459   3.931   3.459  0.6574 -1.2783  1.4853
17905TIP3   OH275129   0.867   1.999  10.919  0.1110 -0.5957 -0.1175
17905TIP3    H175130   0.792   2.040  10.877 -0.7801 -1.2108  0.8192
17905TIP3    H275131   0.899   1.935  10.856 -1.3127 -1.6303  0.1654
17906TIP3   OH275132   2.270   2.391  12.319  0.4287 -0.2912 -0.1856
17906TIP3    H175133   2.265   2.382  12.224  1.5171  1.0578 -0.3987
17906TIP3    H275134   2.296   2.482  12.333 -0.1218 -0.3508  1.4253
17907TIP3   OH275135   4.658   1.878   1.747  0.0800 -0.0458  0.6005
17907TIP3    H175136   4.750   1.880   1.721  0.6186 -3.3058  1.7054
17907TIP3    H275137   4.659   1.903   1.840 -0.6628  2.9670 -0.1104
17908TIP3   OH275138   0.610   6.791  14.325  0.0748 -0.6948 -0.3780
17908TIP3    H175139   0.639   6.793  14.234  0.3583  3.7814 -0.4354
17908TIP3    H275140   0.515   6.793  14.320  0.0964  0.0337 -0.6283
17909TIP3   OH275141   1.727   1.116   2.360  0.8220 -0.0726  0.2252
17909TIP3    H175142   1.671   1.125   2.437  1.0913 -0.1439  0.4322
17909TIP3    H275143   1.765   1.203   2.349 -0.8478  0.5386 -1.1095
17910TIP3   OH275144   0.216   0.864  12.407  0.6067 -0.4886  0.4297
17910TIP3    H175145   0.255   0.951  12.394  1.5354 -0.9907 -0.3365
17910TIP3    H275146   0.275   0.805  12.360  0.4633 -1.6465  1.6572
17911TIP3   OH275147   1.081   4.175   5.093  0.0906 -0.5061 -0.2337
17911TIP3    H175148   1.133   4.146   5.168 -0.8197 -1.2728  0.1273
17911TIP3    H275149   1.082   4.101   5.033 -1.2608 -0.8851  0.1625
17912TIP3   OH275150   0.076   4.506   1.356 -0.2086 -0.1047  0.4872
17912TIP3    H175151   0.156   4.498   1.408 -0.4435  0.5218  0.9493
17912TIP3    H275152   0.041   4.592   1.379 -1.2913 -0.5878  0.6895
17913TIP3   OH275153   0.195   3.189  15.753 -0.0513  0.5002  0.1144
17913TIP3    H175154   0.175   3.244  15.828 -1.4475  0.4482 -0.1920
17913TIP3    H275155   0.290   3.178  15.755  0.2608  2.7994  0.2643
17914TIP3   OH275156   3.087   4.795  14.878  0.5016  0.0480 -0.1419
17914TIP3    H175157   3.030   4.727  14.914  1.8192 -0.2461  1.5004
17914TIP3    H275158   3.112   4.761  14.792  0.8863 -1.4243  0.5211
17915TIP3   OH275159   5.003   4.345  13.460 -0.3996  0.1388 -0.1375
17915TIP3    H175160   5.053   4.289  13.519 -0.8025 -1.0456 -0.8818
17915TIP3    H275161   4.928   4.375  13.512  0.7887  1.5617  0.8449
17916TIP3   OH275162   5.231   2.410   1.840 -0.1339 -0.0468  0.1538
17916TIP3    H175163   5.144   2.389   1.806 -0.9971  2.2695  0.7612
17916TIP3    H275164   5.217   2.429   1.933  0.6856  1.9316 -0.0767
17917TIP3   OH275165   5.500   3.774   5.701 -0.4239 -0.6474 -0.2753
17917TIP3    H175166   5.436   3.778   5.773  0.7204  0.7059  0.7332
17917TIP3    H275167   5.448   3.789   5.622 -1.3375  0.8720  0.5581
17918TIP3   OH275168   1.087   0.291  11.619  0.1197 -0.3016  0.2629
17918TIP3    H175169   1.092   0.263  11.527 -0.5184  0.3222  0.0209
17918TIP3    H275170   1.113   0.384  11.616 -2.1926  0.4061  0.3264
17919TIP3   OH275171   5.196   6.261  11.228  0.1561  0.1469  0.1448
17919TIP3    H175172   5.276   6.256  11.280 -0.2224 -0.2467  0.6899
17919TIP3    H275173   5.148   6.180  11.248 -1.2450  1.2089  1.2315
17920TIP3   OH275174   6.746   1.325  14.555  0.5423  0.4313 -0.3213
17920TIP3    H175175   6.778   1.297  14.470 -1.3762 -0.1431 -0.9063
17920TIP3    H275176   6.739   1.244  14.606  0.4651  0.6086 -0.0443
17921TIP3   OH275177   0.569   5.824   5.121 -0.2623 -0.3554 -1.0341
17921TIP3    H175178   0.545   5.889   5.055  0.7262  1.0974 -0.0306
17921TIP3    H275179   0.488   5.807   5.169 -0.6074 -0.1439 -1.5325
17922TIP3   OH275180   6.280   3.830  12.309  0.2774  0.3076 -0.9412
17922TIP3    H175181   6.239   3.895  12.366  3.5163 -0.0177  2.1240
17922TIP3    H275182   6.236   3.748  12.330 -0.1553  0.6097 -0.6620
17923TIP3   OH275183   1.769   0.768   3.785 -0.2018  0.2564 -0.3105
17923TIP3    H175184   1.768   0.804   3.873  0.8202 -0.3251 -0.0575
17923TIP3    H275185   1.698   0.703   3.785 -0.0440  0.0860  0.1481
17924TIP3   OH275186   5.215   3.036  14.071  0.4126  0.4569 -0.1331
17924TIP3    H175187   5.280   2.979  14.029  0.5427 -0.7651  1.6177
17924TIP3    H275188   5.233   3.123  14.034  2.7320  0.0744 -0.0936
17925TIP3   OH275189   2.728   5.236  11.621 -0.1754  0.3888 -0.3426
17925TIP3    H175190   2.765   5.161  11.668  0.2859  0.3263 -0.7972
17925TIP3    H275191   2.652   5.199  11.575 -2.2484  0.9685  2.3670
17926TIP3   OH275192   4.949   0.333  13.185  0.0059  0.5933  0.3140
17926TIP3    H175193   4.974   0.244  13.161 -1.0599  0.3427  0.0514
17926TIP3    H275194   4.993   0.349  13.268 -0.5761 -0.5680  0.8765
17927TIP3   OH275195   5.706   0.963  13.598 -0.2259 -0.2517 -0.5940
17927TIP3    H175196   5.787   0.992  13.638 -0.3226 -0.4592 -0.2495
17927TIP3    H275197   5.706   0.868  13.606 -1.4206 -0.1471  1.2072
17928TIP3   OH275198   5.350   5.586   1.230  0.0835  0.2891  0.5622
17928TIP3    H175199   5.323   5.503   1.191 -0.2971  0.9214 -0.5881
17928TIP3    H275200   5.353   5.647   1.156  1.6334  0.9979  1.1643
17929TIP3   OH275201   1.027   0.031  13.602  0.0976 -0.2292  0.0573
17929TIP3    H175202   0.986   0.010  13.686  0.4559 -0.7817  0.0962
17929TIP3    H275203   0.959   0.011  13.537 -0.6753  1.4717  0.2664
17930TIP3   OH275204   4.521   0.905  16.848  0.2664  0.6751  0.0252
17930TIP3    H175205   4.596   0.939  16.799  0.8470 -0.1522  0.3132
17930TIP3    H275206   4.543   0.921  16.940  0.4463 -0.2383  0.1513
17931TIP3   OH275207   0.903   2.609  13.249 -0.1137 -0.2421 -0.3214
17931TIP3    H175208   0.825   2.650  13.212  0.9146  0.2381 -2.0603
17931TIP3    H275209   0.973   2.672  13.234  0.9792 -1.4562 -0.5293
17932TIP3   OH275210   1.625   3.472  16.769 -0.3851 -0.1254 -0.2923
17932TIP3    H175211   1.559   3.444  16.705 -0.7586 -0.7085  0.3337
17932TIP3    H275212   1.654   3.390  16.810 -0.0376  0.2312  0.1751
17933TIP3   OH275213   1.824   5.943   4.755 -0.8770 -0.4104  0.3553
17933TIP3    H175214   1.834   5.879   4.825 -0.2545 -0.2588  0.4062
17933TIP3    H275215   1.747   5.994   4.780 -0.0031  0.3716  1.5100
17934TIP3   OH275216   4.518   1.485  12.038  0.1602 -0.2110  0.3379
17934TIP3    H175217   4.479   1.532  12.112  1.6808  1.0196  0.4257
17934TIP3    H275218   4.579   1.549  11.999  0.9143 -1.5127 -0.7109
17935TIP3   OH275219   6.620   2.066   0.489 -0.1711  0.6027 -0.6531
17935TIP3    H175220   6.665   1.986   0.514  0.2792  1.7080  2.4994
17935TIP3    H275221   6.545   2.037   0.437  0.0762 -1.8252  0.2541
17936TIP3   OH275222   6.318   6.430   4.206  0.4251  0.2196 -0.2198
17936TIP3    H175223   6.322   6.525   4.195 -1.1195  0.2712 -0.6382
17936TIP3    H275224   6.383   6.410   4.273  0.8828  1.5473 -0.2447
17937TIP3   OH275225   6.543   5.883   6.059 -0.0405 -0.2548  0.0686
17937TIP3    H175226   6.627   5.838   6.069  0.0647 -0.0674  0.0308
17937TIP3    H275227   6.494   5.829   5.996 -0.2907 -0.8446  0.7448
17938TIP3   OH275228   3.068   6.787   5.291  0.0752 -0.2361  0.1331
17938TIP3    H175229   3.107   6.853   5.234  1.0489 -0.0279  1.0023
17938TIP3    H275230   3.117   6.707   5.272  1.0070  0.0370  1.2665
17939TIP3   OH275231   4.185   0.125   1.521  0.3986  0.1732 -0.4325
17939TIP3    H175232   4.193   0.127   1.616  0.6068  1.7106 -0.4554
17939TIP3    H275233   4.136   0.204   1.500 -0.0405 -0.3822 -1.5806
17940TIP3   OH275234   4.930   3.213  15.396 -0.3685  0.4113 -0.1643
17940TIP3    H175235   4.937   3.142  15.332  0.3713 -0.0048  0.3654
17940TIP3    H275236   4.883   3.175  15.470 -0.2809  0.5750 -0.0229
17941TIP3   OH275237   6.569   0.914  11.507  0.3260 -0.1462  0.6762
17941TIP3    H175238   6.584   0.826  11.473  1.5650 -0.2098  1.3241
17941TIP3    H275239   6.558   0.901  11.601 -1.5294  0.1905  0.5424
17942TIP3   OH275240   2.874   3.778   3.916 -0.5610  0.1703  0.0847
17942TIP3    H175241   2.815   3.838   3.871 -1.6001 -0.3213  0.7419
17942TIP3    H275242   2.891   3.708   3.853  0.5760  1.0756 -0.6481
17943TIP3   OH275243   2.476   0.950  16.107  0.1702  0.0837 -0.4962
17943TIP3    H175244   2.409   1.016  16.088 -0.8055 -0.7260  0.0130
17943TIP3    H275245   2.507   0.922  16.021  0.9428  1.5161 -0.7146
17944TIP3   OH275246   3.698   4.546   0.264  0.4206 -0.4852 -0.3094
17944TIP3    H175247   3.616   4.591   0.286 -0.0367 -1.6559  0.5134
17944TIP3    H275248   3.704   4.551   0.169 -0.7696 -0.6379 -0.4052
17945TIP3   OH275249   5.446   0.162  13.402 -0.2787  0.4221 -0.2911
17945TIP3    H175250   5.534   0.157  13.438 -0.4609  0.6285  0.2012
17945TIP3    H275251   5.393   0.106  13.460  0.0204 -2.0152 -2.2223
17946TIP3   OH275252   4.540   3.370  11.960 -0.0838 -0.2497 -0.2598
17946TIP3    H175253   4.623   3.324  11.955  1.5767  2.5219 -0.3067
17946TIP3    H275254   4.497   3.351  11.876  2.6875  1.8800 -2.3886
17947TIP3   OH275255   6.375   1.878   5.727  0.0017 -0.2093 -0.4297
17947TIP3    H175256   6.308   1.810   5.717 -0.4686  0.2025 -0.1270
17947TIP3    H275257   6.334   1.957   5.690 -0.0010  0.2428  0.5268
17948TIP3   OH275258   3.232   2.365   4.713  0.5165  0.2090 -0.2426
17948TIP3    H175259   3.243   2.316   4.631 -0.0117  0.7995 -0.6738
17948TIP3    H275260   3.139   2.359   4.732  0.2629  1.8254 -0.8149
17949TIP3   OH275261   4.614   2.027  12.637 -0.3048 -0.3554 -0.2294
17949TIP3    H175262   4.678   1.964  12.670 -0.7176 -0.9907 -0.5962
17949TIP3    H275263   4.565   1.978  12.570 -0.0477  0.6323 -1.1667
17950TIP3   OH275264   4.878   3.400   3.758 -0.0679 -0.5392 -0.0874
17950TIP3    H175265   4.851   3.317   3.798  0.3011 -1.4742 -1.7124
17950TIP3    H275266   4.877   3.463   3.831 -2.6164 -1.4046  0.7366
17951TIP3   OH275267   1.681   0.661  13.721  0.1486 -0.0245 -0.4618
17951TIP3    H175268   1.722   0.711  13.651 -0.3248  0.8461 -0.1263
17951TIP3    H275269   1.588   0.684  13.715  0.2620  0.9768  1.1882
17952TIP3   OH275270   6.643   2.660   4.422 -0.2225 -0.3177  0.4181
17952TIP3    H175271   6.648   2.707   4.338 -0.8652 -2.1747 -0.7080
17952TIP3    H275272   6.551   2.664   4.446 -0.6071 -2.3520 -0.5460
17953TIP3   OH275273   2.182   1.650  12.226  0.0422  0.5043  0.6648
17953TIP3    H175274   2.172   1.668  12.319  0.2871  2.5183  0.3666
17953TIP3    H275275   2.119   1.709  12.183  0.4770  0.1839 -0.4587
17954TIP3   OH275276   3.592   1.784  15.172  0.5784 -0.2698 -0.1123
17954TIP3    H175277   3.656   1.797  15.102  0.0356 -2.8856 -1.2032
17954TIP3    H275278   3.516   1.835  15.145  1.6843  1.8142  0.5492
17955TIP3   OH275279   6.490   4.034  16.191  0.0659 -0.4729  0.1184
17955TIP3    H175280   6.562   3.993  16.239  0.2764 -0.8391 -0.4947
17955TIP3    H275281   6.413   3.982  16.215  0.3108 -1.1804 -0.5605
17956TIP3   OH275282   2.845   2.239   0.366  0.7177  0.2123 -0.2914
17956TIP3    H175283   2.819   2.300   0.435  1.1559 -0.5372  0.5602
17956TIP3    H275284   2.781   2.168   0.371  0.2944  0.5249 -1.1790
17957TIP3   OH275285   3.292   3.576  16.834  0.1689  0.1631  0.3367
17957TIP3    H175286   3.328   3.536  16.755  0.9369  0.5133  0.5014
17957TIP3    H275287   3.315   3.515  16.904 -0.1739  0.0444  0.3494
17958TIP3   OH275288   1.701   6.732  15.214 -0.2586 -0.9533  0.5512
17958TIP3    H175289   1.705   6.667  15.144  1.7371 -1.0735  0.7201
17958TIP3    H275290   1.614   6.772  15.206 -1.7161 -3.8805  0.7072
17959TIP3   OH275291   6.461   5.843   0.706  0.8605 -0.5022  0.6316
17959TIP3    H175292   6.431   5.894   0.781  3.3341 -1.7488  2.6418
17959TIP3    H275293   6.474   5.754   0.740  1.8693 -1.1761 -1.3128
17960TIP3   OH275294   2.432   3.185   2.017 -0.1986 -0.0717  0.0605
17960TIP3    H175295   2.374   3.218   1.949 -0.2911 -1.3282 -0.4932
17960TIP3    H275296   2.444   3.260   2.077 -0.3362  0.9613 -1.1630
17961TIP3   OH275297   6.226   1.109  14.187 -0.3657  0.0880  0.0814
17961TIP3    H175298   6.270   1.179  14.137 -1.2588 -0.2169 -1.1858
17961TIP3    H275299   6.244   1.130  14.278  0.7908  1.0405 -0.3335
17962TIP3   OH275300   6.143   5.006   1.642 -0.0167  0.1429 -0.4130
17962TIP3    H175301   6.158   4.944   1.571 -1.0721 -0.1421 -0.3992
17962TIP3    H275302   6.162   4.956   1.722 -0.5464 -0.0683 -0.4171
17963TIP3   OH275303   2.504   4.770   1.204  0.5478 -0.8471  0.6258
17963TIP3    H175304   2.560   4.836   1.245  0.3460 -0.3440  0.1079
17963TIP3    H275305   2.556   4.736   1.131 -0.5667  1.1229 -1.1711
17964TIP3   OH275306   0.810   2.847  15.725 -0.4117  0.2721  0.5559
17964TIP3    H175307   0.759   2.848  15.643  0.4766  0.0195 -0.0121
17964TIP3    H275308   0.839   2.938  15.735 -0.1365  0.2083  0.3440
17965TIP3   OH275309   3.161   1.727   5.085  0.6047 -0.3531  0.2305
17965TIP3    H175310   3.143   1.781   5.009 -1.7105  0.1603  1.0497
17965TIP3    H275311   3.247   1.755   5.116  0.6964  0.8128 -1.0321
17966TIP3   OH275312   3.841   3.423   4.344 -0.2338  0.6466  0.1627
17966TIP3    H175313   3.879   3.390   4.263 -2.8089 -0.2211 -0.7746
17966TIP3    H275314   3.886   3.374   4.413  0.8657  0.2529 -0.7915
17967TIP3   OH275315   1.885   0.410  12.482 -0.1727  0.2720 -0.0136
17967TIP3    H175316   1.970   0.448  12.504  0.5266 -0.5960 -1.0661
17967TIP3    H275317   1.874   0.429  12.389 -0.9417  0.0258  0.0244
17968TIP3   OH275318   4.519   4.016  13.979 -0.4471 -0.4233 -0.5442
17968TIP3    H175319   4.496   4.086  13.917 -1.0509  1.4404  1.6324
17968TIP3    H275320   4.436   3.972  13.996 -0.2953 -0.8821 -0.9631
17969TIP3   OH275321   3.967   2.121   1.093  0.0808  0.0170 -0.2520
17969TIP3    H175322   4.025   2.186   1.133  1.1573  0.0386 -1.7451
17969TIP3    H275323   4.027   2.058   1.052 -0.9501 -0.6671 -0.7525
17970TIP3   OH275324   2.778   2.043  15.212  0.6229  0.6109 -0.2032
17970TIP3    H175325   2.802   2.027  15.304 -1.2755 -1.8826 -0.0616
17970TIP3    H275326   2.755   2.136  15.210  1.5385  0.9301  1.6309
17971TIP3   OH275327   3.858   2.353  11.819 -0.6738  0.1461  0.0698
17971TIP3    H175328   3.943   2.388  11.793 -0.1686 -1.0173  0.0855
17971TIP3    H275329   3.803   2.365  11.742  0.1663 -1.1914 -0.7903
17972TIP3   OH275330   2.889   4.322  11.132 -0.0872 -0.0028 -0.1398
17972TIP3    H175331   2.933   4.290  11.054  0.2256 -1.7543  0.7232
17972TIP3    H275332   2.802   4.283  11.129 -0.3340  0.5134  0.0326
17973TIP3   OH275333   3.098   6.404  15.922 -0.1066  0.8677 -0.2511
17973TIP3    H175334   3.186   6.370  15.940  0.0331 -0.2657 -2.7039
17973TIP3    H275335   3.107   6.499  15.930  0.8341  0.6631  1.4536
17974TIP3   OH275336   5.772   1.135   0.023  0.2678  0.1214 -0.2918
17974TIP3    H175337   5.787   1.104   0.112  0.6421 -0.9755 -0.7186
17974TIP3    H275338   5.677   1.141   0.015  0.2425  0.8526  0.3686
17975TIP3   OH275339   1.726   1.954   4.970  0.9776 -0.1695 -0.5858
17975TIP3    H175340   1.750   1.863   4.985  2.6958  0.4868  1.0170
17975TIP3    H275341   1.702   1.958   4.878  1.3378 -2.1283 -0.8041
17976TIP3   OH275342   0.989   0.848   1.333 -0.5364 -0.2560 -0.0377
17976TIP3    H175343   0.976   0.929   1.283  0.0021 -0.1510 -0.0087
17976TIP3    H275344   0.903   0.830   1.371 -0.7938  0.0038 -0.4920
17977TIP3   OH275345   3.424   1.379   3.039 -0.0474  0.4409  0.1412
17977TIP3    H175346   3.404   1.306   2.979 -2.5762 -0.6228  2.0807
17977TIP3    H275347   3.462   1.446   2.983 -1.5644 -0.7721 -2.5511
17978TIP3   OH275348   1.572   0.975  15.142 -0.2410  0.6214 -0.3504
17978TIP3    H175349   1.502   1.035  15.166 -0.7118  0.5261 -1.4217
17978TIP3    H275350   1.579   0.983  15.047  0.7796  0.1630 -0.3299
17979TIP3   OH275351   4.667   0.598   5.117 -0.4791 -0.4826  0.3710
17979TIP3    H175352   4.616   0.586   5.037 -1.3160 -1.1885  0.9823
17979TIP3    H275353   4.741   0.653   5.091 -1.6280  0.6944 -0.5129
17980TIP3   OH275354   3.860   0.413   1.810  0.0766  0.3446  0.0394
17980TIP3    H175355   3.879   0.370   1.894 -1.3719  2.1821  1.4015
17980TIP3    H275356   3.944   0.447   1.781  1.3645 -3.4098 -1.2445
17981TIP3   OH275357   0.596   4.588   3.866  0.1271  0.2905 -0.1580
17981TIP3    H175358   0.632   4.618   3.950 -2.0224  2.0323  0.2409
17981TIP3    H275359   0.504   4.613   3.870 -1.7282 -5.1692 -0.4051
17982TIP3   OH275360   1.491   3.671  14.696  0.2349  0.1449  1.0016
17982TIP3    H175361   1.413   3.691  14.749  0.0254  1.1700  0.3563
17982TIP3    H275362   1.563   3.715  14.741 -0.1711  2.2261 -0.2377
17983TIP3   OH275363   3.100   1.371   1.444 -0.2020  0.4193 -0.0827
17983TIP3    H175364   3.194   1.358   1.456  0.0511  1.7912 -0.3887
17983TIP3    H275365   3.069   1.404   1.528 -0.2969  0.4846 -0.1427
17984TIP3   OH275366   0.408   2.304   3.431 -0.1785 -0.2530  0.6903
17984TIP3    H175367   0.469   2.276   3.363  1.0286  2.7594  0.3499
17984TIP3    H275368   0.324   2.313   3.386  0.0092 -0.8024  0.2250
17985TIP3   OH275369   5.360   1.030  11.220  0.3370 -0.0381  0.1762
17985TIP3    H175370   5.315   0.995  11.297 -3.2456  0.8618 -1.3028
17985TIP3    H275371   5.327   0.978  11.147 -0.2828  2.2331 -1.2914
17986TIP3   OH275372   6.324   0.646  11.994  0.0948  0.5575 -0.7133
17986TIP3    H175373   6.369   0.575  12.040  0.9215  1.8765  0.6126
17986TIP3    H275374   6.239   0.609  11.971  0.0373 -0.5178  0.9882
17987TIP3   OH275375   0.110   4.601   0.742  0.1203  0.4655  0.0051
17987TIP3    H175376   0.134   4.511   0.723 -0.3368  0.6906 -1.8372
17987TIP3    H275377   0.168   4.626   0.814 -0.1132 -1.4337  0.9092
17988TIP3   OH275378   6.032   2.317   4.869  0.0300 -0.6801  0.2578
17988TIP3    H175379   5.951   2.308   4.920  0.1259 -3.0224  0.0895
17988TIP3    H275380   6.102   2.299   4.932  0.2745 -1.2041 -0.1608
17989TIP3   OH275381   5.006   3.686   1.201 -0.6393  0.0328  0.4097
17989TIP3    H175382   5.001   3.591   1.194 -1.2889  0.1126 -0.3801
17989TIP3    H275383   5.052   3.702   1.283 -0.3929 -0.9623  0.4722
17990TIP3   OH275384   4.066   5.863   1.334  0.2907  0.1302 -0.2080
17990TIP3    H175385   4.097   5.915   1.409 -0.6029  1.2637 -0.5936
17990TIP3    H275386   4.063   5.773   1.367 -0.0615  0.6010  1.1172
17991TIP3   OH275387   6.038   5.766   5.791  0.7632  0.0426 -0.4961
17991TIP3    H175388   5.975   5.693   5.789 -0.3612  0.9929 -1.0463
17991TIP3    H275389   6.049   5.790   5.699  0.5102  1.0690 -0.2670
17992TIP3   OH275390   1.365   5.127  11.237  0.2080 -0.2378  0.3641
17992TIP3    H175391   1.358   5.126  11.142  0.1557 -0.6598  0.3716
17992TIP3    H275392   1.448   5.082  11.256  0.0355 -0.4922  0.5310
17993TIP3   OH275393   1.991   3.720   4.349 -0.5446 -0.2632 -0.5191
17993TIP3    H175394   1.968   3.747   4.438 -2.2526  0.4252 -1.1436
17993TIP3    H275395   1.907   3.702   4.307  0.1574  0.6033 -2.3650
17994TIP3   OH275396   0.493   3.147   4.238  0.1794  0.1646  0.4500
17994TIP3    H175397   0.479   3.234   4.202  2.3595  0.8501  1.1337
17994TIP3    H275398   0.410   3.124   4.280 -0.1032  2.3706  1.2118
17995TIP3   OH275399   0.183   6.678  16.469  0.1062 -0.4447  0.1863
17995TIP3    H175400   0.104   6.679  16.522  0.1793 -3.2439  0.5203
17995TIP3    H275401   0.253   6.699  16.531 -0.0567 -1.4144  0.7364
17996TIP3   OH275402   6.184   1.626  16.189 -0.3284  1.1009  0.2544
17996TIP3    H175403   6.246   1.572  16.139 -0.9980  0.1178  0.4794
17996TIP3    H275404   6.236   1.659  16.263  0.4664  1.9477 -0.6380
17997TIP3   OH275405   2.452   4.255   2.326 -0.7835  0.0896  0.6766
17997TIP3    H175406   2.475   4.301   2.245  0.5141 -1.3123  0.2116
17997TIP3    H275407   2.407   4.175   2.296  0.6709 -0.9849  1.2603
17998TIP3   OH275408   0.921   3.745  13.064  0.3475 -0.4034 -0.3824
17998TIP3    H175409   0.847   3.707  13.111  0.0272  1.2641  0.5281
17998TIP3    H275410   0.988   3.757  13.131  0.6799  0.0002 -0.7810
17999TIP3   OH275411   6.595   5.222  16.025  0.2084  0.0135 -0.0253
17999TIP3    H175412   6.526   5.155  16.022  1.1173 -0.9512  0.1391
17999TIP3    H275413   6.573   5.275  16.102  0.1724 -0.8794  0.5942
18000TIP3   OH275414   4.111   4.882   0.802  0.2822  0.0468 -0.0562
18000TIP3    H175415   4.163   4.872   0.722  0.0393 -1.4956 -0.0573
18000TIP3    H275416   4.157   4.949   0.852 -0.5055  2.3232 -2.2010
18001TIP3   OH275417   2.357   2.103   1.344  0.0490 -0.2614  0.6120
18001TIP3    H175418   2.292   2.064   1.286  1.3141 -1.4364 -0.0896
18001TIP3    H275419   2.441   2.068   1.312  0.8853 -0.0588  2.4627
18002TIP3   OH275420   2.258   3.744  11.949 -0.1877  0.3128 -0.3366
18002TIP3    H175421   2.164   3.759  11.945  0.0615  2.9269  1.0230
18002TIP3    H275422   2.277   3.733  12.042  0.7837 -1.0870 -0.6636
18003TIP3   OH275423   3.332   5.602   5.894 -0.6497 -0.0775  0.3238
18003TIP3    H175424   3.269   5.554   5.948  1.7016 -0.7373  2.6674
18003TIP3    H275425   3.389   5.646   5.957  0.4103  1.6358 -1.7169
18004TIP3   OH275426   2.113   2.730   0.070 -0.2697  0.1199 -0.1601
18004TIP3    H175427   2.128   2.648   0.116  1.4863 -0.0205 -0.9057
18004TIP3    H275428   2.148   2.797   0.129 -0.0721  0.1586 -0.3218
18005TIP3   OH275429   4.650   5.255  13.893  0.9111 -0.1213  0.2800
18005TIP3    H175430   4.715   5.281  13.828  0.0421  1.7561  0.1217
18005TIP3    H275431   4.567   5.290  13.860  0.1990 -0.4480  1.6552
18006TIP3   OH275432   2.718   4.051  14.095 -0.1935  0.1610 -0.2727
18006TIP3    H175433   2.672   3.972  14.067 -0.5403  0.6514 -1.1350
18006TIP3    H275434   2.649   4.106  14.132 -0.2461  0.7457 -1.2206
18007TIP3   OH275435   3.943   0.560  11.699 -0.0479  0.5019  0.2421
18007TIP3    H175436   3.940   0.470  11.666  1.2595  0.9409 -1.1968
18007TIP3    H275437   3.866   0.602  11.660 -0.8483 -0.0368  1.1783
18008TIP3   OH275438   3.636   3.393   1.802  0.6073 -0.0348 -0.2566
18008TIP3    H175439   3.584   3.473   1.795  0.4638 -0.1521 -0.5417
18008TIP3    H275440   3.579   3.332   1.848 -0.1230 -0.6662 -1.9006
18009TIP3   OH275441   2.638   5.574   3.002 -0.2664 -0.2260 -0.0011
18009TIP3    H175442   2.664   5.655   2.959  0.6410  0.0879  1.0729
18009TIP3    H275443   2.599   5.603   3.085  0.6497 -0.8983  0.6778
18010TIP3   OH275444   5.696   4.770  16.438 -0.7624 -0.4355 -0.2132
18010TIP3    H175445   5.667   4.827  16.366 -2.2609  1.0388  1.4377
18010TIP3    H275446   5.790   4.787  16.446 -0.5271 -0.7515 -1.8688
18011TIP3   OH275447   0.340   6.018  14.251  0.5162 -0.1197  0.1319
18011TIP3    H175448   0.345   5.923  14.263  2.4260  0.1661  2.4462
18011TIP3    H275449   0.282   6.048  14.321 -0.2837  0.4214 -0.7447
18012TIP3   OH275450   3.722   2.168  16.262  0.4200 -0.1338  0.1756
18012TIP3    H175451   3.639   2.207  16.288  1.0132  1.4359 -0.2089
18012TIP3    H275452   3.704   2.126  16.178  0.4945  2.0625 -0.9936
18013TIP3   OH275453   1.939   4.878   2.111 -0.3167  0.0322 -0.7262
18013TIP3    H175454   1.892   4.797   2.129 -3.9033  2.3993  1.9216
18013TIP3    H275455   2.006   4.882   2.180  0.5429 -1.0730 -1.4723
18014TIP3   OH275456   4.452   1.318  11.138  0.7255 -0.1486 -0.6430
18014TIP3    H175457   4.485   1.405  11.160 -0.0585  0.2799 -1.1027
18014TIP3    H275458   4.494   1.297  11.054  0.9073 -0.2160 -0.5370
18015TIP3   OH275459   4.570   4.766  12.509 -0.3769 -0.3673  0.7837
18015TIP3    H175460   4.520   4.846  12.492 -0.5865 -0.5478  0.5419
18015TIP3    H275461   4.656   4.797  12.537  1.0114  0.0476 -3.2102
18016TIP3   OH275462   3.187   1.775   3.441  0.4546  0.5429  0.3776
18016TIP3    H175463   3.099   1.771   3.480 -0.1415 -0.7687 -0.9969
18016TIP3    H275464   3.181   1.718   3.364  2.5183  0.4364  0.2527
18017TIP3   OH275465   6.040   2.491  14.691  0.0917  0.1074  0.6611
18017TIP3    H175466   6.005   2.577  14.713  0.2201  0.8346 -1.7142
18017TIP3    H275467   5.979   2.455  14.627  1.0199 -0.7596  0.2191
18018TIP3   OH275468   2.943   1.644  16.631 -0.0525 -0.2905 -0.2279
18018TIP3    H175469   2.875   1.590  16.672  0.3100 -0.3235  0.3528
18018TIP3    H275470   2.998   1.582  16.583 -0.1704 -0.3208 -0.3238
18019TIP3   OH275471   1.457   0.292   0.075  0.1617 -0.1201  0.2339
18019TIP3    H175472   1.399   0.327   0.008  1.1225 -1.0532 -1.1409
18019TIP3    H275473   1.412   0.310   0.157 -1.3679  0.4671 -0.6843
18020TIP3   OH275474   4.489   2.470  13.422  0.5032 -0.1407  0.0525
18020TIP3    H175475   4.469   2.558  13.453 -1.5233  0.1268 -1.7866
18020TIP3    H275476   4.474   2.414  13.498  2.7482  1.1005  1.5289
18021TIP3   OH275477   4.513   1.227   2.576  0.2842 -0.1191 -0.7814
18021TIP3    H175478   4.505   1.229   2.671  2.7031  0.8810 -0.5372
18021TIP3    H275479   4.514   1.134   2.554 -0.2961 -0.3613  0.1559
18022TIP3   OH275480   1.902   2.056  13.396 -0.0617 -0.0654  0.0193
18022TIP3    H175481   1.813   2.043  13.363 -0.1973 -1.0716  0.7504
18022TIP3    H275482   1.946   2.107  13.327 -0.6896 -1.0566 -1.1497
18023TIP3   OH275483   1.945   6.170   5.180 -0.0903 -0.5909  0.1231
18023TIP3    H175484   1.862   6.161   5.226 -1.3374  3.3932 -1.0067
18023TIP3    H275485   1.922   6.162   5.087  1.2032 -1.5790 -0.1454
18024TIP3   OH275486   0.911   2.288   6.178  0.3493 -0.5558  0.1323
18024TIP3    H175487   0.815   2.291   6.172  0.4538 -0.3799 -2.2098
18024TIP3    H275488   0.928   2.255   6.267 -1.8517  0.0861  0.8615
18025TIP3   OH275489   1.881   1.405  12.333 -0.0133 -0.1927  0.1166
18025TIP3    H175490   1.967   1.374  12.363 -0.8214 -2.5799  0.1536
18025TIP3    H275491   1.899   1.451  12.251  1.3669 -0.0977  0.4496
18026TIP3   OH275492   0.282   4.402  11.155  0.0305 -0.3128  0.0733
18026TIP3    H175493   0.282   4.358  11.240  0.0647  0.8078  0.6738
18026TIP3    H275494   0.300   4.333  11.092 -3.9848 -2.0517  0.4905
18027TIP3   OH275495   3.274   2.925  15.066  0.3357 -0.0165 -0.1442
18027TIP3    H175496   3.345   2.875  15.108  0.3937  0.2567  0.0819
18027TIP3    H275497   3.194   2.889  15.104  0.3526 -0.2549 -0.3245
18028TIP3   OH275498   5.909   0.648  15.814  0.1127 -0.5752 -0.3825
18028TIP3    H175499   5.926   0.565  15.769 -3.0432 -1.5404 -0.0629
18028TIP3    H275500   5.949   0.637  15.900 -0.2419 -1.8055 -0.3511
18029TIP3   OH275501   1.684   2.132   4.077 -0.4062 -0.3488 -0.0669
18029TIP3    H175502   1.644   2.090   4.153 -0.3505  1.0370  0.7767
18029TIP3    H275503   1.777   2.135   4.099 -0.6840  2.5925  1.2106
18030TIP3   OH275504   5.474   2.419  13.679  0.2016  0.0465  0.0644
18030TIP3    H175505   5.516   2.373  13.752  0.1670 -0.1415 -0.0330
18030TIP3    H275506   5.428   2.350  13.631 -0.4992  0.2988  0.3568
18031TIP3   OH275507   0.866   3.354  11.716  0.1642 -0.3603  0.1951
18031TIP3    H175508   0.878   3.425  11.779  0.5593 -0.6168  0.4147
18031TIP3    H275509   0.780   3.370  11.678  0.2198  0.1992  0.2897
18032TIP3   OH275510   6.101   6.411  17.133  0.0477  0.9029  0.2403
18032TIP3    H175511   6.156   6.368  17.068 -0.6116  0.2919  0.0843
18032TIP3    H275512   6.012   6.380  17.115 -0.1538  0.7406  1.4089
18033TIP3   OH275513   1.267   5.438  16.547  0.2714  0.2806  0.1097
18033TIP3    H175514   1.339   5.379  16.524 -0.1256 -0.8052  1.5566
18033TIP3    H275515   1.188   5.390  16.522 -0.0228  0.6013  0.4110
18034TIP3   OH275516   5.929   0.707   3.550  0.7140  0.6585 -0.1188
18034TIP3    H175517   5.876   0.654   3.491  0.8150  0.1326  0.2525
18034TIP3    H275518   5.898   0.685   3.638  1.3712  0.5302  0.0903
18035TIP3   OH275519   6.047   4.693  15.785  0.3081 -0.0221  0.0629
18035TIP3    H175520   6.030   4.599  15.775  1.2456 -0.1296 -0.6136
18035TIP3    H275521   6.029   4.711  15.877 -2.1010 -0.3857 -0.2598
18036TIP3   OH275522   6.367   2.149  17.010  0.2481 -0.1750  0.4993
18036TIP3    H175523   6.315   2.224  16.980  1.2334  0.1094 -0.6039
18036TIP3    H275524   6.434   2.138  16.942  0.0564 -2.1499  0.5819
18037TIP3   OH275525   1.652   0.626  10.899  0.3494 -0.3518 -0.1700
18037TIP3    H175526   1.564   0.661  10.882 -0.5557 -1.6838  1.4851
18037TIP3    H275527   1.711   0.698  10.875 -1.1572  0.5361 -1.4384
18038TIP3   OH275528   2.790   4.997  17.021 -0.0420  0.2237  0.1595
18038TIP3    H175529   2.734   5.045  16.960 -1.0650  1.0970  1.6953
18038TIP3    H275530   2.867   5.053  17.031  0.8840 -0.6835 -1.4823
18039TIP3   OH275531   5.366   3.393  11.510  0.1401 -0.0011 -0.4815
18039TIP3    H175532   5.286   3.401  11.459 -0.6052  1.5382  0.8199
18039TIP3    H275533   5.360   3.464  11.575  2.0398 -0.5319  0.3463
18040TIP3   OH275534   3.858   4.739  13.448 -0.5094 -0.2056  0.0863
18040TIP3    H175535   3.789   4.699  13.501  2.1219 -0.0930  3.9377
18040TIP3    H275536   3.907   4.664  13.413 -0.4361 -0.2896  0.3694
18041TIP3   OH275537   2.105   1.970  15.907 -0.1560 -0.0381 -0.0847
18041TIP3    H175538   2.049   2.018  15.968 -1.4974 -0.7101 -0.7336
18041TIP3    H275539   2.044   1.912  15.860  1.0364 -0.4865 -1.1197
18042TIP3   OH275540   0.006   2.968   3.554  0.3313  0.0054  0.1745
18042TIP3    H175541  -0.041   2.995   3.632  1.3563  1.2536  0.4093
18042TIP3    H275542   0.003   2.873   3.555 -0.1010  0.0145  1.4645
18043TIP3   OH275543   1.849   4.785  16.491  0.1602 -0.1449 -0.0179
18043TIP3    H175544   1.832   4.694  16.470 -1.8497  0.4891 -1.4744
18043TIP3    H275545   1.942   4.789  16.510  1.0068 -1.9375 -3.2060
18044TIP3   OH275546   2.582   3.641  14.953  0.5062 -0.4006 -0.4927
18044TIP3    H175547   2.556   3.559  14.910  1.7728 -0.0617 -1.9923
18044TIP3    H275548   2.605   3.615  15.042  0.9227 -1.7162 -0.9569
18045TIP3   OH275549   1.932   1.836   2.696  0.4806 -0.4661 -0.3370
18045TIP3    H175550   1.900   1.746   2.701 -2.3384  0.4876  0.3651
18045TIP3    H275551   1.974   1.850   2.781 -0.0493 -0.7839 -0.0138
18046TIP3   OH275552   6.185   0.212   0.036 -0.3805  0.4323 -0.4530
18046TIP3    H175553   6.092   0.233   0.039 -0.9519 -1.9317  1.1029
18046TIP3    H275554   6.188   0.116   0.034  1.9837  0.2802  2.8444
18047TIP3   OH275555   4.936   6.686   6.152 -0.1168  0.4838 -0.0335
18047TIP3    H175556   4.962   6.604   6.193  0.3921  0.9514  0.5914
18047TIP3    H275557   4.851   6.666   6.112  0.0780 -0.3876 -0.0429
18048TIP3   OH275558   0.716   3.939  11.658  0.4011  0.3154 -0.3271
18048TIP3    H175559   0.738   3.847  11.675 -0.4822 -0.3703 -2.5016
18048TIP3    H275560   0.740   3.985  11.738  1.6526 -1.6779  0.5169
18049TIP3   OH275561   6.351   3.098   3.434 -0.3593 -0.5236  0.6090
18049TIP3    H175562   6.387   3.016   3.466 -0.0875 -0.6343  0.0301
18049TIP3    H275563   6.268   3.074   3.392  0.5721 -0.7897 -1.1810
18050TIP3   OH275564   1.167   2.323  12.672 -0.3383  0.2900  0.0912
18050TIP3    H175565   1.205   2.344  12.587 -0.8757  0.8789 -0.0091
18050TIP3    H275566   1.207   2.385  12.732 -0.6541  0.4887  0.0990
18051TIP3   OH275567   3.490   3.956   5.770 -0.1176 -0.2650  0.0935
18051TIP3    H175568   3.539   4.037   5.782 -0.0059 -0.6168  2.6464
18051TIP3    H275569   3.496   3.912   5.855 -2.0910 -1.8806 -0.5226
18052TIP3   OH275570   2.224   2.391  16.634 -0.1923  0.3217 -0.2495
18052TIP3    H175571   2.166   2.466  16.649 -0.2123  0.2872 -0.1505
18052TIP3    H275572   2.308   2.430  16.609 -0.0106  0.3990  0.4503
18053TIP3   OH275573   6.233   1.189   0.069 -0.3721 -0.1168 -0.0646
18053TIP3    H175574   6.253   1.281   0.087 -1.4072  0.2642 -0.7818
18053TIP3    H275575   6.208   1.153   0.154 -1.1301  0.5832  0.0172
18054TIP3   OH275576   3.544   5.142  14.599  0.1804  0.0824  0.1457
18054TIP3    H175577   3.470   5.095  14.638  0.1882 -0.1523 -0.1250
18054TIP3    H275578   3.556   5.102  14.513  0.7567 -0.0158  0.2731
18055TIP3   OH275579   5.297   4.146  14.093  0.4459 -0.4702  0.0578
18055TIP3    H175580   5.202   4.150  14.098  0.4613 -0.8008  0.8792
18055TIP3    H275581   5.316   4.140  13.999 -0.2113  1.9597 -0.2984
18056TIP3   OH275582   2.378   6.555   4.600 -0.0310 -0.1199  0.0628
18056TIP3    H175583   2.338   6.470   4.582  0.5842 -0.3326 -0.3427
18056TIP3    H275584   2.352   6.611   4.528 -2.2497  0.7127  1.4094
18057TIP3   OH275585   4.269   0.096  12.866  0.8191  0.0185 -0.1170
18057TIP3    H175586   4.179   0.072  12.846  0.4691 -0.9192  2.2515
18057TIP3    H275587   4.273   0.190  12.850 -0.1179 -0.1668 -1.6835
18058TIP3   OH275588   3.259   2.012  16.726 -0.4115  0.5197 -0.1274
18058TIP3    H175589   3.284   1.990  16.816  1.5748  1.2877 -0.4365
18058TIP3    H275590   3.176   2.059  16.735 -0.6860 -0.1595  1.2025
18059TIP3   OH275591   2.958   2.061  14.489 -0.0312 -0.1352 -0.2277
18059TIP3    H175592   2.977   2.117  14.414  3.2029 -0.3737  0.2806
18059TIP3    H275593   2.918   2.120  14.553 -0.8664  0.5327 -1.3265
18060TIP3   OH275594   2.423   0.841  15.363 -0.3491  0.0529  0.3441
18060TIP3    H175595   2.499   0.805  15.316 -0.1669  1.8337 -0.8355
18060TIP3    H275596   2.461   0.891  15.435 -0.5386 -0.9121  1.1367
18061TIP3   OH275597   0.628   3.042  16.776  0.2185  0.0725  0.2768
18061TIP3    H175598   0.665   3.128  16.755  0.5376 -0.3437 -0.9968
18061TIP3    H275599   0.688   2.979  16.735 -1.4220 -0.6430 -1.1773
18062TIP3   OH275600   1.731   4.962   4.426 -0.3985  0.2543  0.1759
18062TIP3    H175601   1.696   5.040   4.384 -0.3090  0.5709  0.6772
18062TIP3    H275602   1.672   4.892   4.399 -0.2278  0.4094 -0.6272
18063TIP3   OH275603   3.433   3.880  15.552  0.0644  0.0299  0.0820
18063TIP3    H175604   3.379   3.947  15.511  0.6285  0.9484  0.8282
18063TIP3    H275605   3.507   3.927  15.589  1.7743 -1.2687 -1.5119
18064TIP3   OH275606   3.397   2.004  11.529  0.1271  0.5589  0.2776
18064TIP3    H175607   3.382   2.062  11.454 -0.4259 -1.1603 -1.0172
18064TIP3    H275608   3.492   1.989  11.529 -0.0414 -0.9122 -1.3319
18065TIP3   OH275609   5.789   0.258   2.514 -0.2293 -0.2578 -0.1095
18065TIP3    H175610   5.758   0.286   2.600 -1.7881  1.8378 -1.2471
18065TIP3    H275611   5.806   0.339   2.467  0.9404 -1.3467 -1.6828
18066TIP3   OH275612   0.974   0.651  16.492 -0.1633 -0.1833  0.3807
18066TIP3    H175613   1.068   0.673  16.492 -0.5680  1.8229 -1.0726
18066TIP3    H275614   0.962   0.598  16.414 -0.1721 -0.9560  0.8895
18067TIP3   OH275615   3.349   0.927   2.842  0.7906 -0.1207  0.0332
18067TIP3    H175616   3.334   0.916   2.936  0.3862 -0.8854 -0.1142
18067TIP3    H275617   3.360   0.838   2.808 -0.0424  0.0757 -0.7980
18068TIP3   OH275618   4.162   5.488   5.536 -0.1536  0.2362 -0.0776
18068TIP3    H175619   4.245   5.519   5.501 -1.1865  0.8474 -2.2045
18068TIP3    H275620   4.184   5.450   5.620  2.1242  1.2113 -0.1479
18069TIP3   OH275621   5.481   2.593   2.680 -0.3366  0.3549  0.2836
18069TIP3    H175622   5.479   2.626   2.770 -0.3324  0.4334  0.2552
18069TIP3    H275623   5.445   2.505   2.687  0.4262  0.0540  0.4863
18070TIP3   OH275624   5.214   5.787   5.207 -0.2185  0.4301  0.4987
18070TIP3    H175625   5.284   5.849   5.225  0.2696  0.3651 -1.0059
18070TIP3    H275626   5.241   5.706   5.250 -0.4403  0.9980  1.7430
18071TIP3   OH275627   2.623   3.864  14.445  0.2337 -0.0418 -0.1535
18071TIP3    H175628   2.703   3.914  14.423  0.2812 -0.6604 -1.5061
18071TIP3    H275629   2.624   3.858  14.540  1.4790  0.5099 -0.1065
18072TIP3   OH275630   4.426   3.191  12.131  0.3943  0.0712 -0.1592
18072TIP3    H175631   4.390   3.123  12.073 -0.2720  0.1341  0.1645
18072TIP3    H275632   4.442   3.266  12.073 -1.6159  0.6381 -0.0751
18073TIP3   OH275633   2.322   2.476   2.492 -0.1906 -0.3907 -0.0017
18073TIP3    H175634   2.414   2.478   2.464 -0.3205  0.5715 -0.3895
18073TIP3    H275635   2.272   2.499   2.414 -0.5994  1.6905  0.8070
18074TIP3   OH275636   0.563   2.826  12.194 -0.2508  0.6109  0.1021
18074TIP3    H175637   0.563   2.910  12.147 -0.7018  1.1261  1.0089
18074TIP3    H275638   0.562   2.850  12.287 -2.5670 -0.3779  0.4052
18075TIP3   OH275639   1.207   5.243   0.382 -0.5199  0.3602 -0.7126
18075TIP3    H175640   1.278   5.200   0.334 -1.7124  0.0118 -2.2740
18075TIP3    H275641   1.172   5.175   0.440  2.0147  1.2412  2.0722
18076TIP3   OH275642   6.781   6.331  15.413  0.5607  0.0203 -0.3967
18076TIP3    H175643   6.794   6.280  15.493  0.3719 -0.7144 -0.8337
18076TIP3    H275644   6.697   6.375  15.426 -0.9769 -2.4130 -1.3882
18077TIP3   OH275645   3.792   2.399  12.141 -0.1630 -0.1984  0.1214
18077TIP3    H175646   3.834   2.419  12.057  0.7924  3.8961  1.3482
18077TIP3    H275647   3.699   2.394  12.122  0.0548  0.5301 -1.2082
18078TIP3   OH275648   6.244   2.362  13.851  0.4908  0.2510 -0.4002
18078TIP3    H175649   6.319   2.373  13.909 -1.9229  2.1048  2.6645
18078TIP3    H275650   6.228   2.268  13.849  1.9541 -0.0278  0.1342
18079TIP3   OH275651   3.984   0.218  12.621 -0.0621 -0.0111  0.1416
18079TIP3    H175652   3.984   0.140  12.678 -0.0274  0.6184  1.0278
18079TIP3    H275653   4.075   0.246  12.619 -0.0166 -0.1914 -0.4668
18080TIP3   OH275654   1.615   0.179  13.198  0.4060 -0.4575  0.4816
18080TIP3    H175655   1.705   0.205  13.218 -0.1230  0.6744  1.5626
18080TIP3    H275656   1.598   0.216  13.111  0.4405  0.8344  1.0074
18081TIP3   OH275657   0.296   4.546  12.219 -0.7123  0.3038  0.5979
18081TIP3    H175658   0.252   4.462  12.206 -1.5461  1.1706 -3.8536
18081TIP3    H275659   0.291   4.589  12.134  3.2463  3.2146  1.5296
18082TIP3   OH275660   1.547   6.087  10.406  0.4082 -0.0793 -0.4576
18082TIP3    H175661   1.569   6.005  10.449 -0.7625 -0.9436 -1.4195
18082TIP3    H275662   1.631   6.127  10.384  1.0508  0.3730  2.4803
18083TIP3   OH275663   1.219   3.689  13.376 -0.0618 -0.6104  0.4665
18083TIP3    H175664   1.312   3.709  13.387 -0.3555  0.1911  1.6967
18083TIP3    H275665   1.184   3.692  13.464 -1.4796  0.2179 -0.1026
18084TIP3   OH275666   0.716   1.768   3.623 -0.8494 -0.4478 -0.1159
18084TIP3    H175667   0.686   1.698   3.565 -1.4887  0.2986 -0.7175
18084TIP3    H275668   0.703   1.734   3.711  0.5678 -1.7842 -0.3834
18085TIP3   OH275669   6.704   2.738   3.038  0.8732  0.1885  0.1893
18085TIP3    H175670   6.633   2.792   3.073  0.6805 -0.7684  1.3758
18085TIP3    H275671   6.694   2.743   2.943 -0.3666  0.6158  0.3180
18086TIP3   OH275672   5.402   4.453   5.534  0.0002 -0.1048  0.1377
18086TIP3    H175673   5.401   4.526   5.597 -1.8108  2.6214 -2.7276
18086TIP3    H275674   5.310   4.432   5.520  0.4099 -1.4490 -0.7547
18087TIP3   OH275675   2.096   6.327  14.295 -0.4121 -0.5056 -0.5982
18087TIP3    H175676   2.093   6.336  14.200 -1.1943  2.2396 -0.4201
18087TIP3    H275677   2.017   6.373  14.326  0.4281 -0.2854  1.3945
18088TIP3   OH275678   1.471   3.292  13.651 -0.3751  0.6892  0.2136
18088TIP3    H175679   1.543   3.335  13.605  0.0788  0.1403  0.4027
18088TIP3    H275680   1.512   3.218  13.695 -0.8323  1.1098  1.3773
18089TIP3   OH275681   0.590   1.275  15.675 -0.0578  0.2761  0.2143
18089TIP3    H175682   0.590   1.370  15.685  1.7847  0.2681  0.8042
18089TIP3    H275683   0.498   1.251  15.668 -0.6875  1.9368  1.8809
18090TIP3   OH275684   0.430   0.669  14.155 -0.3324 -0.2069  0.0321
18090TIP3    H175685   0.412   0.593  14.211 -0.4765 -1.0577 -1.1183
18090TIP3    H275686   0.353   0.724  14.163 -0.0151  0.0914  1.2768
18091TIP3   OH275687   4.410   4.338   2.750  0.5628  0.4537  0.2385
18091TIP3    H175688   4.496   4.379   2.743  0.9849 -0.6687 -3.1151
18091TIP3    H275689   4.365   4.361   2.668 -2.2245  0.6746  1.6949
18092TIP3   OH275690   2.658   4.265   5.154 -0.0158  0.1445  0.0202
18092TIP3    H175691   2.585   4.204   5.142  0.3908 -0.4544  0.5275
18092TIP3    H275692   2.619   4.351   5.142 -0.5343 -0.2257 -1.0535
18093TIP3   OH275693   3.584   1.102  16.302 -0.3251 -0.1409  0.7776
18093TIP3    H175694   3.574   1.019  16.348  1.7838 -0.6927  0.3117
18093TIP3    H275695   3.519   1.159  16.342 -0.1207 -1.2689  2.8387
18094TIP3   OH275696   2.743   4.707  15.151  0.4567 -0.5397  0.4426
18094TIP3    H175697   2.827   4.675  15.116  1.1071  0.5258  0.9797
18094TIP3    H275698   2.714   4.637  15.209  0.7073 -1.1522 -0.1543
18095TIP3   OH275699   4.117   2.706  15.086 -0.4725  0.4531  0.5004
18095TIP3    H175700   4.103   2.745  15.172  0.6228  0.6126  0.6247
18095TIP3    H275701   4.211   2.719  15.069 -0.4873 -0.3972 -0.3057
18096TIP3   OH275702   6.663   1.090  11.048  0.0296 -0.1200 -0.2341
18096TIP3    H175703   6.586   1.045  11.084 -0.9891  2.3295  0.8530
18096TIP3    H275704   6.707   1.127  11.124  0.7115  0.8721 -1.0810
18097TIP3   OH275705   5.271   2.043   1.610  0.4790  0.4477  0.0501
18097TIP3    H175706   5.334   1.996   1.556 -0.2253  0.6074 -0.9303
18097TIP3    H275707   5.192   2.051   1.555  0.5946  2.8439  0.1156
18098TIP3   OH275708   0.750   5.867   4.300  0.6843 -0.6583  0.4440
18098TIP3    H175709   0.790   5.808   4.363 -0.1823 -0.5329  1.1333
18098TIP3    H275710   0.656   5.848   4.306  0.4368  0.4734  0.3553
18099TIP3   OH275711   1.143   6.114   1.367  0.4172 -0.5132  0.4537
18099TIP3    H175712   1.192   6.147   1.442 -1.3823 -1.2744  2.0760
18099TIP3    H275713   1.051   6.132   1.389 -0.2411 -1.8190 -1.0100
18100TIP3   OH275714   3.395   2.244  14.825 -0.4660 -0.5900 -0.5023
18100TIP3    H175715   3.320   2.272  14.772 -1.6408 -0.9318  0.8968
18100TIP3    H275716   3.366   2.259  14.916  0.3665 -2.6180  0.1511
18101TIP3   OH275717   1.423   1.538   1.711  0.0596  0.2167  0.0934
18101TIP3    H175718   1.382   1.458   1.743 -0.1444  0.3084  0.0576
18101TIP3    H275719   1.449   1.516   1.621  0.2967  0.0848  0.1910
18102TIP3   OH275720   5.392   4.620   5.789  0.1246  0.5173 -0.2919
18102TIP3    H175721   5.449   4.683   5.833  1.8153 -1.2483  0.1581
18102TIP3    H275722   5.378   4.551   5.854 -1.2459  0.1455 -0.9481
18103TIP3   OH275723   6.473   5.751   3.821 -0.3752 -0.3138 -0.4185
18103TIP3    H175724   6.479   5.698   3.901  1.0455 -1.4190 -1.1994
18103TIP3    H275725   6.445   5.689   3.754  1.5068 -0.1927 -1.3936
18104TIP3   OH275726   6.123   5.000   0.283  0.1451  0.6458  0.3002
18104TIP3    H175727   6.030   5.009   0.265  0.3708 -0.9841 -2.2799
18104TIP3    H275728   6.135   4.908   0.304  1.2110  0.7356  0.1596
18105TIP3   OH275729   6.111   2.448   3.754 -0.4977  0.1486  0.2451
18105TIP3    H175730   6.039   2.470   3.812  0.5160  1.5388  1.0341
18105TIP3    H275731   6.174   2.403   3.810 -0.3434 -0.2441 -0.2327
18106TIP3   OH275732   0.090   2.849   0.851  0.1537 -0.2497  0.1782
18106TIP3    H175733   0.048   2.821   0.770 -1.0422 -2.4800  1.4629
18106TIP3    H275734   0.030   2.913   0.889 -0.0725 -0.3951  0.0664
18107TIP3   OH275735   4.738   2.296  16.631 -0.7370 -0.3419 -0.2537
18107TIP3    H175736   4.703   2.341  16.554  1.8045 -0.8771 -1.8203
18107TIP3    H275737   4.820   2.342  16.651  0.2442 -2.1675  0.1480
18108TIP3   OH275738   1.062   6.474  13.718  0.1239 -0.1454  0.1857
18108TIP3    H175739   1.034   6.411  13.784  1.8583  0.2915  1.3951
18108TIP3    H275740   1.040   6.559  13.755  2.1337  0.1611  0.7663
18109TIP3   OH275741   0.701   2.026  12.572 -0.2116  0.2692  0.5240
18109TIP3    H175742   0.669   2.016  12.483  1.4235 -3.0197  0.1619
18109TIP3    H275743   0.627   2.001  12.627 -1.1183  1.9816  0.1627
18110TIP3   OH275744   4.124   4.758  14.659  0.2781  0.2226 -0.4096
18110TIP3    H175745   4.169   4.734  14.578  0.8782 -1.1547  0.3071
18110TIP3    H275746   4.031   4.761  14.635  0.4313 -0.3887 -1.0910
18111TIP3   OH275747   5.244   4.487  17.114 -0.8928 -0.4798 -0.0215
18111TIP3    H175748   5.307   4.438  17.166  0.8288  1.9212  0.3642
18111TIP3    H275749   5.224   4.564  17.168 -0.7011  1.0070 -1.9648
18112TIP3   OH275750   5.024   2.898   6.094  0.3444  0.0233  0.1072
18112TIP3    H175751   5.045   2.835   6.026 -0.3428  1.5751 -1.6455
18112TIP3    H275752   5.107   2.942   6.113  0.7654 -1.1583  1.1341
18113TIP3   OH275753   3.664   1.547   0.658 -0.0714 -0.1179 -0.3448
18113TIP3    H175754   3.584   1.599   0.648  0.8998  1.0678 -2.5772
18113TIP3    H275755   3.733   1.601   0.619  1.6873 -1.4747  0.7376
18114TIP3   OH275756   1.240   5.713  16.680 -0.0806  0.4892  0.1725
18114TIP3    H175757   1.250   5.618  16.687  1.3428  0.3689 -2.2705
18114TIP3    H275758   1.147   5.726  16.660 -0.1603 -0.4448 -0.1111
18115TIP3   OH275759   5.087   3.025   5.162 -0.1316  0.3066 -0.0730
18115TIP3    H175760   5.147   3.100   5.159 -1.0518  1.0528 -0.6248
18115TIP3    H275761   5.006   3.059   5.124 -0.7136 -0.8493  0.1117
18116TIP3   OH275762   5.936   6.721   3.905  0.0725 -1.0288  0.6237
18116TIP3    H175763   5.931   6.628   3.880  3.1869 -0.6537 -1.9750
18116TIP3    H275764   5.928   6.769   3.823  0.3058  0.9349  1.6923
18117TIP3   OH275765   3.057   0.314   3.454  0.6380  0.4021 -0.1271
18117TIP3    H175766   3.112   0.254   3.503 -1.0861 -1.0651  0.1177
18117TIP3    H275767   2.997   0.350   3.519 -0.2766  0.0822 -0.7713
18118TIP3   OH275768   0.627   1.085  13.085  0.0532 -0.1666  0.0755
18118TIP3    H175769   0.679   1.098  13.006 -0.5138  1.1496 -0.1159
18118TIP3    H275770   0.540   1.060  13.053 -0.4005  1.1429  0.2176
18119TIP3   OH275771   6.765   1.190  12.704  0.2472 -0.0956 -0.2505
18119TIP3    H175772   6.673   1.203  12.682 -0.2260 -1.1007  1.0302
18119TIP3    H275773   6.813   1.232  12.632 -1.1983 -0.3456 -1.4118
18120TIP3   OH275774   0.609   2.977   0.883  0.2523 -0.4259 -0.4314
18120TIP3    H175775   0.668   2.910   0.851 -2.2903 -2.1456 -1.7966
18120TIP3    H275776   0.525   2.933   0.893 -0.9306  1.9642  1.1307
18121TIP3   OH275777   4.883   2.456  13.395  0.1962  0.2319  0.4583
18121TIP3    H175778   4.823   2.422  13.328  0.9986 -0.0571 -0.1245
18121TIP3    H275779   4.845   2.424  13.478  0.0429 -0.7345  0.0355
18122TIP3   OH275780   4.803   3.977  16.939  0.1078  0.3023  0.8425
18122TIP3    H175781   4.758   3.911  16.885 -0.0482  1.9388 -1.1911
18122TIP3    H275782   4.892   3.944  16.948 -0.2035 -0.6241  0.6845
18123TIP3   OH275783   1.512   4.066  14.087  0.1390  0.6877 -0.0182
18123TIP3    H175784   1.536   4.088  13.997 -0.2906 -1.1123 -0.6169
18123TIP3    H275785   1.595   4.045  14.129  0.1247 -1.0058 -0.7672
18124TIP3   OH275786   2.491   6.331  13.362  0.0841 -0.0812 -0.4492
18124TIP3    H175787   2.467   6.244  13.391  5.4426 -1.4877  0.7953
18124TIP3    H275788   2.505   6.322  13.267  0.8754 -0.6912 -0.2820
18125TIP3   OH275789   4.205   5.496  15.766 -0.5564 -0.3538  0.4299
18125TIP3    H175790   4.137   5.527  15.825 -1.5675 -1.2526 -0.2273
18125TIP3    H275791   4.172   5.412  15.733 -0.2749  0.3331 -1.7782
18126TIP3   OH275792   4.506   1.404  15.618 -0.3686  0.0421 -0.5464
18126TIP3    H175793   4.418   1.410  15.656 -0.8085 -0.0150 -1.5300
18126TIP3    H275794   4.492   1.420  15.525  0.4628 -1.4948 -0.9567
18127TIP3   OH275795   4.372   0.581   0.517  0.2733 -0.4964 -0.5125
18127TIP3    H175796   4.372   0.669   0.480  0.1508 -0.7207 -1.0514
18127TIP3    H275797   4.368   0.523   0.442 -0.4019 -0.9519 -0.1396
18128TIP3   OH275798   0.589   5.490   5.511  1.1920  0.4828  0.2628
18128TIP3    H175799   0.652   5.543   5.463  0.6173  1.2442  0.3331
18128TIP3    H275800   0.642   5.434   5.568  1.8974 -0.6001 -1.3877
18129TIP3   OH275801   1.909   2.663  16.108 -0.0625  0.1408  0.0644
18129TIP3    H175802   1.814   2.650  16.107 -0.1760  0.9767 -0.9645
18129TIP3    H275803   1.921   2.758  16.098  0.8776  0.1235  0.8122
18130TIP3   OH275804   6.051   1.178  12.732  0.1381 -0.1860  0.0220
18130TIP3    H175805   6.141   1.154  12.754 -0.4177 -0.2050  2.6358
18130TIP3    H275806   6.049   1.273  12.736 -0.2001 -0.2306  1.1705
18131TIP3   OH275807   3.103   6.499   3.759  0.1724 -0.0178 -0.1881
18131TIP3    H175808   3.117   6.427   3.697 -1.0190 -0.5958  0.1874
18131TIP3    H275809   3.191   6.527   3.783  0.6586 -0.1870 -1.6736
18132TIP3   OH275810   5.411   6.208  12.654 -0.3399 -0.5434  0.6565
18132TIP3    H175811   5.371   6.279  12.606 -1.1135 -0.3746  1.5209
18132TIP3    H275812   5.457   6.156  12.588  1.0870  1.2859  0.1192
18133TIP3   OH275813   0.927   0.521  12.170 -0.0248 -0.1642 -0.1087
18133TIP3    H175814   0.966   0.459  12.232  0.6023  1.6488  1.3822
18133TIP3    H275815   0.836   0.528  12.198 -0.2226 -0.7015 -0.5706
18134TIP3   OH275816   0.487   6.189   0.085 -0.2882 -0.1157  0.2321
18134TIP3    H175817   0.415   6.190   0.147 -1.1923 -0.6191 -0.7776
18134TIP3    H275818   0.520   6.279   0.084 -1.5174  0.3511  0.0125
18135TIP3   OH275819   5.332   6.447  11.065 -0.2101  0.1228 -0.0886
18135TIP3    H175820   5.313   6.403  11.147  1.8443 -0.8702 -0.0621
18135TIP3    H275821   5.330   6.377  10.999 -1.3048  0.8093 -0.8270
18136TIP3   OH275822   0.834   2.022  12.269 -0.1972  0.5817 -0.0455
18136TIP3    H175823   0.897   2.091  12.250  1.2050 -0.3006  1.1592
18136TIP3    H275824   0.811   1.985  12.184  2.3164 -0.2482 -0.4475
18137TIP3   OH275825   5.353   2.830   2.610 -0.0538  0.5118 -0.3335
18137TIP3    H175826   5.382   2.873   2.530  3.8931  1.1946  1.2659
18137TIP3    H275827   5.420   2.766   2.630 -2.4353 -1.7857  0.9448
18138TIP3   OH275828   4.294   3.661  11.619  0.2554  0.0741  0.1145
18138TIP3    H175829   4.243   3.717  11.561 -0.8495 -0.3284  0.6713
18138TIP3    H275830   4.308   3.581  11.569 -0.5260 -0.1977  0.3234
18139TIP3   OH275831   2.769   6.689   5.639 -0.1352 -0.1045 -0.3488
18139TIP3    H175832   2.685   6.657   5.672 -0.1035  0.3812  0.2140
18139TIP3    H275833   2.813   6.725   5.716  0.7957 -0.7878 -0.5379
18140TIP3   OH275834   5.126   4.770  12.315 -0.8926  0.2518  0.0284
18140TIP3    H175835   5.061   4.838  12.299 -1.7653 -0.6542 -0.3682
18140TIP3    H275836   5.210   4.813  12.298 -1.4271  1.1960 -0.2994
18141TIP3   OH275837   3.207   3.105   3.436 -0.4032  0.3184  0.0218
18141TIP3    H175838   3.200   3.196   3.407 -1.7519  0.3110  0.2810
18141TIP3    H275839   3.165   3.055   3.366 -0.7076  0.0081  0.4243
18142TIP3   OH275840   6.378   2.696   2.334  0.5926 -0.3342 -0.2276
18142TIP3    H175841   6.337   2.733   2.256 -0.4507 -1.1252 -0.0771
18142TIP3    H275842   6.353   2.756   2.405 -0.0040 -0.6034 -0.2033
18143TIP3   OH275843   4.820   0.338   1.955 -0.4506  0.2481  0.0469
18143TIP3    H175844   4.764   0.261   1.960 -0.3493 -0.0736 -2.3268
18143TIP3    H275845   4.780   0.392   1.887  0.4432  1.4645  0.4544
18144TIP3   OH275846   1.128   0.280  13.921 -0.0533  0.3073 -0.5943
18144TIP3    H175847   1.148   0.224  13.846  1.2922 -1.4406  0.9458
18144TIP3    H275848   1.052   0.331  13.895  1.2990  0.9430 -3.7036
18145TIP3   OH275849   0.308   0.253  11.592  0.3432  0.4480  0.0262
18145TIP3    H175850   0.227   0.302  11.599  1.4332  2.4806 -0.7855
18145TIP3    H275851   0.377   0.317  11.611  1.7536 -1.4785  1.9038
18146TIP3   OH275852   4.097   1.173  11.260  0.7277 -0.2538 -0.1944
18146TIP3    H175853   4.090   1.221  11.343 -0.1888  0.8971 -0.9059
18146TIP3    H275854   4.016   1.123  11.254  1.2264 -1.1087  0.0504
18147TIP3   OH275855   2.700   5.341  13.174  0.3616  0.5175  0.0637
18147TIP3    H175856   2.703   5.348  13.269 -0.2409  1.2124  0.0420
18147TIP3    H275857   2.754   5.413  13.143  2.9347 -1.3574 -0.1343
18148TIP3   OH275858   1.323   0.967   1.153  0.0940  0.1117 -0.1818
18148TIP3    H175859   1.299   0.898   1.092  1.0866 -0.5005  0.1040
18148TIP3    H275860   1.324   0.925   1.239 -0.4423  0.7633  0.1589
18149TIP3   OH275861   0.302   0.967  14.080  0.3673 -0.1044 -0.1128
18149TIP3    H175862   0.213   0.932  14.090  0.0857 -0.1182 -2.2151
18149TIP3    H275863   0.292   1.061  14.094 -0.1614  0.0115 -1.1773
18150TIP3   OH275864   2.056   1.163  12.951  0.2311 -0.4124 -0.4596
18150TIP3    H175865   2.098   1.093  13.000 -2.2933 -1.7319 -0.0390
18150TIP3    H275866   1.999   1.119  12.888 -3.2493  1.0337  1.3502
18151TIP3   OH275867   2.246   2.659  13.127  0.2205 -0.1080 -0.7023
18151TIP3    H175868   2.309   2.593  13.098  0.5196  0.1140 -0.5600
18151TIP3    H275869   2.162   2.628  13.094  0.5144 -0.0020 -1.5872
18152TIP3   OH275870   0.800   4.591  16.388 -0.2060  0.0830  0.7671
18152TIP3    H175871   0.823   4.670  16.436  0.1486 -0.2625  1.1817
18152TIP3    H275872   0.735   4.619  16.324  1.8429  1.2373 -0.9470
18153TIP3   OH275873   1.446   3.856   5.746  0.2110  0.5636  0.3771
18153TIP3    H175874   1.426   3.816   5.830 -0.9524 -0.6516 -0.4227
18153TIP3    H275875   1.396   3.938   5.746  0.9702  1.0370  1.2253
18154TIP3   OH275876   6.557   2.388   1.828  0.2463 -0.0835 -0.1835
18154TIP3    H175877   6.464   2.411   1.827 -0.0014 -0.9813  0.7231
18154TIP3    H275878   6.598   2.458   1.880 -0.3651 -1.1193  1.7871
18155TIP3   OH275879   0.672   5.686  17.007 -0.3500 -0.3329 -0.1285
18155TIP3    H175880   0.677   5.782  17.005  1.1353 -0.4080 -1.3239
18155TIP3    H275881   0.749   5.656  16.960  0.5677 -2.1873  2.2874
18156TIP3   OH275882   1.972   6.102  12.232  0.5651  0.2290  0.5427
18156TIP3    H175883   2.064   6.128  12.242  0.5998 -0.1170  1.1513
18156TIP3    H275884   1.922   6.178  12.261  0.5974  1.5403 -2.4790
18157TIP3   OH275885   3.480   5.506  11.453 -0.0343  0.4347 -0.1440
18157TIP3    H175886   3.522   5.588  11.481  0.4314 -0.1210  0.8104
18157TIP3    H275887   3.552   5.451  11.423 -0.5025  1.0445 -2.7082
18158TIP3   OH275888   0.720   4.553  12.991  0.6672  0.1414  0.0189
18158TIP3    H175889   0.658   4.597  12.934  1.5550  1.6211  0.1487
18158TIP3    H275890   0.686   4.464  12.999  0.0230  0.1628 -2.0301
18159TIP3   OH275891   3.902   4.856   5.124  0.6854  0.4757 -0.5670
18159TIP3    H175892   3.904   4.936   5.177 -2.0852 -0.1403  0.6212
18159TIP3    H275893   3.839   4.799   5.168  0.8636 -1.4850 -2.6457
18160TIP3   OH275894   1.474   0.215  13.838 -0.1870  0.0498  0.2649
18160TIP3    H175895   1.393   0.195  13.792  0.7686 -0.7215 -1.1394
18160TIP3    H275896   1.508   0.294  13.795  1.0638 -1.0715 -0.8988
18161TIP3   OH275897   5.321   1.923   5.641 -0.3394 -0.1420 -0.2187
18161TIP3    H175898   5.367   1.885   5.566  1.7027  0.5194  0.6439
18161TIP3    H275899   5.228   1.910   5.621  0.1785 -0.9937 -2.3096
18162TIP3   OH275900   2.644   4.836   4.297  0.4725 -0.0917  0.5428
18162TIP3    H175901   2.722   4.801   4.340  0.7216 -0.6812 -0.3529
18162TIP3    H275902   2.658   4.930   4.294  2.4434 -0.3493 -1.9501
18163TIP3   OH275903   3.398   1.232   1.167 -0.1755 -0.4252  0.0703
18163TIP3    H175904   3.443   1.226   1.083  1.9843  1.3995  0.9883
18163TIP3    H275905   3.434   1.311   1.208 -1.0090 -1.3371  2.7934
18164TIP3   OH275906   3.686   0.413  11.960  0.2560  0.8321  0.4251
18164TIP3    H175907   3.723   0.501  11.969  3.2884 -0.2352 -0.3349
18164TIP3    H275908   3.683   0.380  12.049 -2.5448  2.1844  0.9509
18165TIP3   OH275909   5.504   3.079  17.152  0.1218  0.0919 -0.2989
18165TIP3    H175910   5.476   3.166  17.183  2.4876  0.6417  0.4813
18165TIP3    H275911   5.524   3.031  17.233  0.7023 -0.5197 -0.8029
18166TIP3   OH275912   3.652   2.504  11.205 -0.3295 -0.5982  0.0349
18166TIP3    H175913   3.610   2.497  11.119  1.4965 -0.3980 -0.9436
18166TIP3    H275914   3.661   2.413  11.234 -0.3607 -0.7154 -0.3100
18167TIP3   OH275915   5.374   3.122   3.848 -0.6489  0.9217  0.9755
18167TIP3    H175916   5.287   3.146   3.816  0.3977  0.7800 -2.3747
18167TIP3    H275917   5.428   3.198   3.830  1.1223 -0.9702 -2.8503
18168TIP3   OH275918   0.537   2.544  15.761 -0.0050 -0.4403 -0.7825
18168TIP3    H175919   0.537   2.471  15.824 -0.1355  1.0098  0.9842
18168TIP3    H275920   0.626   2.578  15.765  0.2092 -0.8286 -2.0227
18169TIP3   OH275921   1.297   0.127  14.189  0.2628  0.3437  0.4750
18169TIP3    H175922   1.219   0.080  14.159  1.4818 -1.9651  0.7106
18169TIP3    H275923   1.299   0.207  14.137 -0.5823 -1.0036 -1.7430
18170TIP3   OH275924   0.603   0.643   3.418  0.4762 -0.1176  0.1518
18170TIP3    H175925   0.559   0.588   3.482  1.0388  1.3488  1.8897
18170TIP3    H275926   0.553   0.724   3.417  1.9487  0.8507  0.7258
18171TIP3   OH275927   1.472   0.983   2.605 -0.2991  0.1591 -0.2003
18171TIP3    H175928   1.422   0.939   2.674  0.1567 -0.8300 -0.4981
18171TIP3    H275929   1.477   0.920   2.534  0.3027  0.7152 -0.6685
18172TIP3   OH275930   0.056   1.950  17.076  0.5735  0.1923 -0.0121
18172TIP3    H175931  -0.007   1.948  17.004  1.2693 -1.9188 -0.6382
18172TIP3    H275932   0.018   2.010  17.140 -0.6539  1.1842 -1.6045
18173TIP3   OH275933   3.518   2.315  15.884  0.5789  0.1887 -0.0228
18173TIP3    H175934   3.442   2.365  15.913 -0.3237 -0.8763 -0.4713
18173TIP3    H275935   3.513   2.316  15.788  1.2483  0.2749 -0.0675
18174TIP3   OH275936   3.303   5.466  16.430 -0.6093  0.2089 -0.2368
18174TIP3    H175937   3.264   5.542  16.474  0.4460  1.3136 -1.1483
18174TIP3    H275938   3.251   5.392  16.462 -2.2121  1.3804  0.0476
18175TIP3   OH275939   3.873   3.897   5.624 -0.1713  0.0197  0.2700
18175TIP3    H175940   3.786   3.859   5.635  0.0004 -0.1204  1.3060
18175TIP3    H275941   3.865   3.955   5.549 -1.3201  0.4631  0.7154
18176TIP3   OH275942   5.499   5.984  16.176 -0.0426  0.0567  0.3835
18176TIP3    H175943   5.566   5.976  16.244 -1.4958  0.2675  1.8905
18176TIP3    H275944   5.520   5.915  16.113  2.0303  0.6127  0.3914
18177TIP3   OH275945   4.055   0.523   2.267 -0.3431  0.2971  0.1295
18177TIP3    H175946   4.030   0.597   2.322 -0.5954 -0.7056  1.4055
18177TIP3    H275947   4.146   0.540   2.244 -0.4255  1.0394  0.3447
18178TIP3   OH275948   1.426   0.523   2.312 -0.3428  0.4774  0.1162
18178TIP3    H175949   1.429   0.561   2.224  0.1369 -0.4116 -0.2542
18178TIP3    H275950   1.371   0.445   2.303  0.7215 -0.3112  0.3234
18179TIP3   OH275951   2.144   0.919  16.023 -0.0460 -0.0823  0.1807
18179TIP3    H175952   2.165   0.919  16.117  2.5391  0.4882 -0.3062
18179TIP3    H275953   2.142   0.827  15.999  1.0176 -0.2041  0.5028
18180TIP3   OH275954   0.826   5.438   1.324  0.5298 -0.8786  0.3431
18180TIP3    H175955   0.915   5.456   1.294  0.1836 -0.3875 -0.4473
18180TIP3    H275956   0.820   5.481   1.409  0.8542 -0.3452  0.1061
18181TIP3   OH275957   6.306   0.560   2.180  0.0200  0.0028 -0.7532
18181TIP3    H175958   6.213   0.581   2.186  0.1446  0.2791  0.2884
18181TIP3    H275959   6.314   0.512   2.097 -1.1304 -0.4922 -0.5884
18182TIP3   OH275960   0.386   6.486   5.050 -0.7291 -0.3927  0.2777
18182TIP3    H175961   0.378   6.534   5.132 -0.8594 -1.6106  1.0060
18182TIP3    H275962   0.459   6.426   5.065 -1.1899 -1.0984 -0.2467
18183TIP3   OH275963   4.325   1.075  16.220  0.1148  0.3236 -0.0412
18183TIP3    H175964   4.354   1.155  16.265  1.4956 -0.0207 -0.2508
18183TIP3    H275965   4.404   1.021  16.215 -0.1927 -0.0202 -2.0690
18184TIP3   OH275966   0.345   6.265   0.450 -0.5371  0.1430 -0.2943
18184TIP3    H175967   0.287   6.230   0.517 -0.2157  1.3358  0.6353
18184TIP3    H275968   0.398   6.331   0.495  0.4612  0.1879 -1.4708
18185TIP3   OH275969   0.263   6.246   0.733  0.1165 -0.0059  0.3583
18185TIP3    H175970   0.175   6.284   0.727 -1.1648 -2.6457  0.7130
18185TIP3    H275971   0.270   6.217   0.824  1.8801  1.1699  0.6461
18186TIP3   OH275972   5.868   1.466   2.318 -0.4781 -0.0907  0.3269
18186TIP3    H175973   5.777   1.487   2.295 -0.5585 -1.9409 -1.3428
18186TIP3    H275974   5.916   1.475   2.236  0.0887 -2.7470  0.2633
18187TIP3   OH275975   6.469   0.061  16.559 -0.2483 -0.1104 -0.1938
18187TIP3    H175976   6.502   0.147  16.535 -1.8647  0.6830  0.2506
18187TIP3    H275977   6.433   0.072  16.647 -3.1345 -0.3913 -1.1982
18188TIP3   OH275978   2.599   1.636   2.135 -0.4570 -0.0329 -0.1494
18188TIP3    H175979   2.514   1.680   2.147 -1.2517 -1.0830 -1.6048
18188TIP3    H275980   2.602   1.615   2.042  0.7399 -1.3590  0.1532
18189TIP3   OH275981   2.652   0.410  15.876  0.0654 -0.1198  0.4100
18189TIP3    H175982   2.675   0.323  15.908  2.5278 -0.0820 -0.9991
18189TIP3    H275983   2.653   0.465  15.953 -0.3702 -1.1062  1.1452
18190TIP3   OH275984   0.919   2.925  17.091  0.7278  0.2087 -0.6511
18190TIP3    H175985   0.838   2.896  17.049  1.1610 -1.3804 -0.4556
18190TIP3    H275986   0.926   3.018  17.070 -0.7068  0.1647 -1.3797
18191TIP3   OH275987   0.020   2.966  11.680 -0.2073 -0.2487 -0.0720
18191TIP3    H175988  -0.039   2.973  11.756 -1.4468 -0.6153 -0.9814
18191TIP3    H275989  -0.015   2.893  11.629  0.4705  0.1482 -1.1268
18192TIP3   OH275990   1.473   1.700  14.292  0.1401 -0.7617 -0.1607
18192TIP3    H175991   1.394   1.711  14.238 -0.8762 -0.1034  1.4007
18192TIP3    H275992   1.520   1.783  14.284  1.3507 -1.5494 -2.0254
18193TIP3   OH275993   2.875   5.904  13.727 -0.3618 -0.3971  0.0560
18193TIP3    H175994   2.819   5.889  13.803 -0.8031 -1.5358 -0.4740
18193TIP3    H275995   2.899   5.816  13.697 -3.2095 -0.2304 -3.3617
18194TIP3   OH275996   5.388   5.069   4.972 -0.1753  0.0399  0.4737
18194TIP3    H175997   5.458   5.091   4.911 -0.3667 -0.8123 -0.0801
18194TIP3    H275998   5.369   4.977   4.954  0.2416 -0.4506  2.3021
18195TIP3   OH275999   5.310   6.424  16.006 -0.4294 -0.1628  0.1258
18195TIP3    H176000   5.226   6.445  16.048 -0.7921 -0.0852 -0.6181
18195TIP3    H276001   5.374   6.478  16.052 -0.6168 -0.9683  1.3862
18196TIP3   OH276002   0.345   2.879  14.590  0.2454 -0.2524  0.1631
18196TIP3    H176003   0.343   2.785  14.577  1.2714 -0.4347  1.1643
18196TIP3    H276004   0.392   2.913  14.514  1.2803 -0.7269  0.5698
18197TIP3   OH276005   0.282   2.330  10.804  0.6830  0.5042 -0.1335
18197TIP3    H176006   0.331   2.266  10.753  0.5962 -0.1136  0.5508
18197TIP3    H276007   0.210   2.280  10.842  0.2790  1.1328 -0.0644
18198TIP3   OH276008   2.801   6.456  16.641  0.1725 -0.0354  0.0633
18198TIP3    H176009   2.716   6.455  16.598  0.9086 -1.9276 -1.5016
18198TIP3    H276010   2.851   6.524  16.596  0.3357 -0.7760 -0.9216
18199TIP3   OH276011   0.062   1.630  12.212 -0.1418 -0.3635 -0.5031
18199TIP3    H176012   0.137   1.578  12.239  1.3310  1.8185 -0.1207
18199TIP3    H276013   0.025   1.583  12.137 -0.4638 -3.2041  1.2945
18200TIP3   OH276014   1.666   6.289  14.181 -0.3165 -0.2589  0.2728
18200TIP3    H176015   1.615   6.369  14.174 -0.7660 -0.5350  0.3359
18200TIP3    H276016   1.745   6.314  14.229  0.2848  0.4876 -1.0771
18201TIP3   OH276017   5.892   2.579   0.550 -0.6641  0.4880  0.0105
18201TIP3    H176018   5.883   2.529   0.469 -0.7234  1.2097 -0.4407
18201TIP3    H276019   5.961   2.534   0.599 -2.5253 -1.6265  0.8514
18202TIP3   OH276020   5.579   0.233   0.842 -0.1138 -0.1728  0.9155
18202TIP3    H176021   5.580   0.151   0.891  1.0530 -0.0417  1.1411
18202TIP3    H276022   5.596   0.207   0.751 -0.0385 -0.2068  0.9393
18203TIP3   OH276023   6.310   1.226  12.357 -0.1268 -0.0543 -0.2473
18203TIP3    H176024   6.229   1.236  12.307 -0.5271 -0.4339  0.3122
18203TIP3    H276025   6.338   1.315  12.377  0.2706  0.1248 -1.4948
18204TIP3   OH276026   5.094   5.559  15.141  0.3740  0.0888  0.6201
18204TIP3    H176027   5.088   5.463  15.137  0.6453  0.0991 -0.0331
18204TIP3    H276028   5.160   5.582  15.076  1.0814  0.6466  1.5039
18205TIP3   OH276029   3.579   4.037  11.281  0.2755  0.7453 -0.9082
18205TIP3    H176030   3.560   3.977  11.209 -0.5480  1.9377 -1.7323
18205TIP3    H276031   3.674   4.039  11.287  0.3162 -0.6521 -0.8288
18206TIP3   OH276032   3.326   5.641  11.867 -0.4036  0.3575  0.5233
18206TIP3    H176033   3.314   5.735  11.861  0.6561  0.5483  1.2772
18206TIP3    H276034   3.418   5.629  11.891  0.1928 -0.9385 -2.0136
18207TIP3   OH276035   3.357   3.354  15.331  0.2906  0.1478  0.5839
18207TIP3    H176036   3.427   3.382  15.391  0.8797  2.3931 -1.0329
18207TIP3    H276037   3.326   3.435  15.291 -2.2810 -0.9588  0.1626
18208TIP3   OH276038   1.575   2.063  12.458  0.2616 -0.0116  0.1935
18208TIP3    H176039   1.540   2.064  12.547  0.2743  0.4998  0.1964
18208TIP3    H276040   1.498   2.055  12.402  0.4105 -3.4695  0.3083
18209TIP3   OH276041   3.147   6.723   0.158 -0.0517  0.2001 -0.0786
18209TIP3    H176042   3.129   6.655   0.222 -0.9534  0.1260 -0.3955
18209TIP3    H276043   3.212   6.779   0.200 -1.1494  0.5631  1.2081
18210TIP3   OH276044   4.307   2.289  14.693  0.2476 -0.4206  0.1410
18210TIP3    H176045   4.261   2.240  14.624 -0.7808  2.2908 -1.2688
18210TIP3    H276046   4.256   2.272  14.772 -2.2983  1.1503 -1.0481
18211TIP3   OH276047   2.893   1.945   3.480 -0.3304 -0.1086 -0.4747
18211TIP3    H176048   2.903   2.035   3.448 -0.1877  0.3134  0.7305
18211TIP3    H276049   2.887   1.892   3.400 -0.1414  0.9351 -1.1990
18212TIP3   OH276050   5.966   5.692   3.836  0.0358 -0.6359 -0.3318
18212TIP3    H176051   6.057   5.698   3.805  0.8344  2.4935  2.0549
18212TIP3    H276052   5.957   5.602   3.867  4.2138  0.0329  4.0739
18213TIP3   OH276053   1.367   6.778  17.055  0.0161 -0.0098  0.4128
18213TIP3    H176054   1.412   6.731  16.985 -0.2547  0.7759 -0.2954
18213TIP3    H276055   1.334   6.858  17.014 -0.8726  0.0643  1.2359
18214TIP3   OH276056   6.278   4.272  15.232  0.0534 -0.0609 -0.3311
18214TIP3    H176057   6.240   4.349  15.276 -0.4583 -0.6229  0.2213
18214TIP3    H276058   6.358   4.306  15.190  1.6685  0.1333  2.6278
18215TIP3   OH276059   3.366   4.471  15.098 -0.0304  0.3959 -0.0362
18215TIP3    H176060   3.418   4.469  15.178  1.1689  0.3231 -0.7941
18215TIP3    H276061   3.357   4.564  15.077  1.0777  0.3754 -0.6906
18216TIP3   OH276062   4.952   0.298   1.710  0.1141 -0.1275 -0.3245
18216TIP3    H176063   4.881   0.361   1.720 -1.0537 -1.4320 -0.1362
18216TIP3    H276064   4.986   0.286   1.798 -0.8211 -1.0372 -0.0692
18217TIP3   OH276065   0.295   0.445  13.965 -0.4283 -0.7527  0.1346
18217TIP3    H176066   0.324   0.419  14.053  1.1575 -0.9991 -0.4387
18217TIP3    H276067   0.375   0.474  13.921 -1.1972 -0.6892 -1.2580
18218TIP3   OH276068   6.423   2.040  12.148  0.1262 -0.5930 -0.2316
18218TIP3    H176069   6.466   2.018  12.230 -0.4211 -0.7586  0.0138
18218TIP3    H276070   6.452   2.129  12.128  1.0368 -0.9084 -0.3697
18219TIP3   OH276071   0.414   5.484  12.340  0.6595  0.2606 -0.5581
18219TIP3    H176072   0.324   5.453  12.330  0.4843  0.7536 -0.5448
18219TIP3    H276073   0.461   5.409  12.377  0.1989  0.0818 -0.3198
18220TIP3   OH276074   3.960   4.593   4.973  0.0971  0.5162 -0.2090
18220TIP3    H176075   3.907   4.514   4.984  0.4667  0.3813  0.7037
18220TIP3    H276076   4.050   4.560   4.970  0.2067  0.8447 -0.5193
18221TIP3   OH276077   3.103   0.030  16.916 -0.3354 -0.1940  0.0339
18221TIP3    H176078   3.027  -0.024  16.894 -0.0701 -0.7884  0.5408
18221TIP3    H276079   3.141   0.055  16.832  0.6169 -2.3371 -0.2395
18222TIP3   OH276080   3.990   5.635  13.690 -0.3151  0.1785 -0.1340
18222TIP3    H176081   4.081   5.663  13.697 -0.3648 -0.0195  1.7519
18222TIP3    H276082   3.947   5.673  13.766 -1.5197 -0.8068 -0.2869
18223TIP3   OH276083   6.501   5.395   2.708 -0.5003 -0.0237 -0.0362
18223TIP3    H176084   6.449   5.367   2.784  0.4326 -0.3873  0.4955
18223TIP3    H276085   6.475   5.486   2.693 -0.9222 -0.0434  0.5336
18224TIP3   OH276086   2.242   4.236   2.783  0.3497  0.2963  0.4545
18224TIP3    H176087   2.323   4.273   2.817 -1.2649  1.8090  2.9901
18224TIP3    H276088   2.236   4.269   2.694  2.9848 -0.7775 -0.2133
18225TIP3   OH276089   5.881   2.715  15.809 -0.6587 -0.6485 -0.1055
18225TIP3    H176090   5.916   2.626  15.815 -0.6036 -0.5833  0.5745
18225TIP3    H276091   5.786   2.703  15.811 -0.6845 -0.5465  2.7346
18226TIP3   OH276092   2.548   3.320  15.302 -0.0096  0.1437 -1.1230
18226TIP3    H176093   2.621   3.380  15.312 -0.0417 -0.2832  4.1748
18226TIP3    H276094   2.588   3.238  15.275  1.2778  0.3543  0.0404
18227TIP3   OH276095   0.196   2.836   6.027  0.1696  0.5346 -0.2753
18227TIP3    H176096   0.221   2.850   6.119 -0.9594 -2.2619  0.5376
18227TIP3    H276097   0.268   2.784   5.990 -0.3583 -0.1273 -0.3779
18228TIP3   OH276098   5.010   5.096  12.854 -0.3477 -0.3658  0.3628
18228TIP3    H176099   4.954   5.058  12.922  0.3527  1.7162  2.2318
18228TIP3    H276100   4.968   5.179  12.832  1.5615  0.9279  1.3249
18229TIP3   OH276101   0.673   6.230   4.126  0.0417 -0.1569 -0.0643
18229TIP3    H176102   0.751   6.176   4.111 -0.1147 -0.2204 -0.6987
18229TIP3    H276103   0.649   6.213   4.217  1.4703  0.7919  0.5284
18230TIP3   OH276104   2.417   1.240  11.716  0.0819 -0.4679 -0.3933
18230TIP3    H176105   2.483   1.235  11.647  0.2248  0.6178 -0.3419
18230TIP3    H276106   2.429   1.325  11.756 -0.2475 -0.9298  0.7424
18231TIP3   OH276107   0.598   3.056   3.121 -0.3611 -0.4719 -0.5802
18231TIP3    H176108   0.669   3.102   3.166 -0.1542  1.0083 -2.3230
18231TIP3    H276109   0.617   2.963   3.136  0.0830 -0.0718  1.7208
18232TIP3   OH276110   0.824   0.730  16.931  0.5599 -0.1993  0.0172
18232TIP3    H176111   0.908   0.683  16.938  0.9768  0.5370  0.1300
18232TIP3    H276112   0.802   0.753  17.021  0.5259  0.0915 -0.0636
18233TIP3   OH276113   5.550   2.024   0.040 -0.5410  0.4331  0.4077
18233TIP3    H176114   5.478   1.970   0.073 -1.5014  1.1402 -0.4488
18233TIP3    H276115   5.517   2.059  -0.043  1.4092 -0.5107 -0.8422
18234TIP3   OH276116   6.504   0.039   0.425 -0.0178 -0.4581  0.4407
18234TIP3    H176117   6.435  -0.017   0.388 -3.7247  2.5606  2.0745
18234TIP3    H276118   6.508   0.114   0.366  0.5336  0.2807  1.3954
18235TIP3   OH276119   3.813   3.659  11.296 -0.2118  0.3842  0.1917
18235TIP3    H176120   3.857   3.743  11.307 -0.2586  0.6434 -1.3330
18235TIP3    H276121   3.842   3.628  11.210 -1.6141 -0.2687 -0.0897
18236TIP3   OH276122   3.444   1.338   4.430 -0.3970  0.3833 -0.1761
18236TIP3    H176123   3.479   1.262   4.383 -1.0165  1.4068 -2.4666
18236TIP3    H276124   3.373   1.370   4.374 -0.0167  2.7602  0.5690
18237TIP3   OH276125   6.555   2.395   0.814  0.1880  0.2998 -0.0634
18237TIP3    H176126   6.620   2.349   0.760  0.8096  0.4644  0.5339
18237TIP3    H276127   6.606   2.458   0.865  0.0131 -1.4847  2.5457
18238TIP3   OH276128   0.615   4.923  12.586 -0.4449 -0.1096  0.6331
18238TIP3    H176129   0.637   4.832  12.606 -1.5420 -0.2166  1.4208
18238TIP3    H276130   0.578   4.921  12.498  1.5897 -0.0739 -0.2898
18239TIP3   OH276131   1.088   0.649  17.199 -0.4705  0.6892 -0.1497
18239TIP3    H176132   1.068   0.588  17.128  3.6140 -0.3937 -0.6505
18239TIP3    H276133   1.119   0.728  17.156 -0.0591  0.8483  0.4158
18240TIP3   OH276134   0.043   2.961   5.489 -0.0542 -0.0072  0.3345
18240TIP3    H176135   0.118   2.995   5.537  0.7839 -1.1682 -0.1227
18240TIP3    H276136   0.038   2.868   5.513 -0.2273 -0.3749 -1.0257
18241TIP3   OH276137   3.156   5.890   4.755 -0.4888  0.7902 -0.3137
18241TIP3    H176138   3.243   5.864   4.783 -0.1439  1.7056 -0.5106
18241TIP3    H276139   3.111   5.808   4.736 -0.1562  0.2343  1.2018
18242TIP3   OH276140   2.009   1.866   1.382  0.3023  0.0805  0.1082
18242TIP3    H176141   1.934   1.889   1.436  1.8051 -0.8029  2.8046
18242TIP3    H276142   2.051   1.794   1.430  2.2689 -0.1586 -1.8191
18243TIP3   OH276143   6.164   1.918   2.434 -0.0766 -0.8166 -0.6507
18243TIP3    H176144   6.138   2.011   2.436  0.6604 -0.6139 -0.2623
18243TIP3    H276145   6.099   1.877   2.377 -1.3612 -0.3536  0.4079
18244TIP3   OH276146   6.286   6.761  13.494  0.2197 -0.2804  0.1915
18244TIP3    H176147   6.233   6.748  13.416  0.5645 -1.7093  0.1554
18244TIP3    H276148   6.365   6.708  13.478  0.7684  0.2468  1.0608
18245TIP3   OH276149   2.846   2.837  14.927  0.1928 -0.5588  0.2294
18245TIP3    H176150   2.824   2.883  14.846 -0.0852 -0.8164  0.1596
18245TIP3    H276151   2.782   2.767  14.934  0.0007 -0.3324  0.8525
18246TIP3   OH276152   3.499   6.075   4.255 -0.3317 -0.2806  0.2452
18246TIP3    H176153   3.538   6.001   4.302  1.0825  0.8190  0.8868
18246TIP3    H276154   3.570   6.108   4.200 -0.9791  0.5263 -0.1185
18247TIP3   OH276155   5.769   0.507  16.783  0.3627  0.5739  0.0857
18247TIP3    H176156   5.847   0.531  16.732  0.4258  0.3919  0.0937
18247TIP3    H276157   5.802   0.494  16.872  0.4340 -0.1135 -0.0367
18248TIP3   OH276158   6.354   6.672   0.257 -0.2598  0.0675 -0.0153
18248TIP3    H176159   6.382   6.692   0.168  0.6300  1.6715  0.5710
18248TIP3    H276160   6.261   6.697   0.259 -0.8721 -1.9457 -1.0171
18249TIP3   OH276161   0.653   1.474   4.672  0.1130  0.1138 -0.4679
18249TIP3    H176162   0.656   1.570   4.672  1.1154  0.1022  0.8634
18249TIP3    H276163   0.571   1.453   4.717  0.5509  0.3516  0.4582
18250TIP3   OH276164   2.286   5.319   1.694 -0.2853  0.9404  0.2373
18250TIP3    H176165   2.243   5.317   1.780 -2.4983  0.6992 -0.7910
18250TIP3    H276166   2.299   5.413   1.677  3.1393  0.9690  2.0990
18251TIP3   OH276167   4.787   0.719  15.079  0.2962 -0.2262  0.3955
18251TIP3    H176168   4.846   0.732  15.005  1.0599  2.0127  1.3115
18251TIP3    H276169   4.703   0.754  15.050  0.9559  1.9992  0.9886
18252TIP3   OH276170   3.375   2.296  15.099 -0.4400 -0.7535 -0.6590
18252TIP3    H176171   3.399   2.232  15.166 -1.0949 -0.9080 -0.5663
18252TIP3    H276172   3.313   2.354  15.143 -0.2003 -0.3229 -0.8786
18253TIP3   OH276173   6.561   2.376  10.428  0.2182 -0.2311  0.3672
18253TIP3    H176174   6.470   2.403  10.441  0.7933  1.1282  1.8755
18253TIP3    H276175   6.577   2.311  10.497  0.8686  0.7997  1.2054
18254TIP3   OH276176   0.308   2.656   1.796  0.5649 -0.1127  0.6741
18254TIP3    H176177   0.226   2.675   1.841 -0.5869  1.6891 -1.9438
18254TIP3    H276178   0.375   2.659   1.864 -1.1970  1.1533  2.4323
18255TIP3   OH276179   0.148   4.287  13.947  0.3098 -0.0109  0.1972
18255TIP3    H176180   0.216   4.221  13.960  0.0408 -0.3893 -0.2894
18255TIP3    H276181   0.078   4.262  14.007  1.5769  1.8142  2.6085
18256TIP3   OH276182   3.113   2.410   1.824 -0.2871  0.5066  0.1436
18256TIP3    H176183   3.163   2.365   1.756 -2.6184 -1.3221 -0.5233
18256TIP3    H276184   3.088   2.494   1.786  0.5072  0.5522 -0.2854
18257TIP3   OH276185   5.372   6.357  13.459 -0.1561 -0.5069  0.3091
18257TIP3    H176186   5.383   6.410  13.538 -2.5582 -1.2747  1.2396
18257TIP3    H276187   5.335   6.275  13.490 -1.4586 -0.7234 -1.6348
18258TIP3   OH276188   0.689   6.416  15.811  0.5030 -0.0506 -0.1570
18258TIP3    H176189   0.754   6.459  15.867  0.0963 -0.4187  0.6237
18258TIP3    H276190   0.632   6.370  15.873  1.0420 -1.8802 -0.9861
18259TIP3   OH276191   1.060   3.812   2.874  0.0403 -0.5860  0.0264
18259TIP3    H176192   1.126   3.772   2.817 -1.0801 -1.3426 -0.8046
18259TIP3    H276193   1.023   3.883   2.821  0.7684  0.4164  0.8194
18260TIP3   OH276194   6.001   2.994  16.523 -0.5640 -0.2402 -0.6294
18260TIP3    H176195   5.990   3.087  16.502 -1.2363 -0.2757 -0.4617
18260TIP3    H276196   6.095   2.983  16.536 -0.6257  0.7667  0.9596
18261TIP3   OH276197   1.868   0.230   2.805 -0.2990  0.0661  0.0774
18261TIP3    H176198   1.829   0.178   2.876  0.4674  1.8760  1.9481
18261TIP3    H276199   1.859   0.175   2.727 -0.2291 -2.5034  1.7489
18262TIP3   OH276200   1.506   2.579   3.332  0.3189 -0.7699  0.4620
18262TIP3    H176201   1.494   2.551   3.241 -0.2672 -0.8610  0.5668
18262TIP3    H276202   1.558   2.509   3.371  1.8215 -0.0501 -0.1654
18263TIP3   OH276203   0.857   5.515  11.471 -0.1342 -0.6866  0.4369
18263TIP3    H176204   0.889   5.443  11.525 -2.3536 -3.5488 -1.6913
18263TIP3    H276205   0.935   5.552  11.431  1.0771 -2.7522  0.7333
18264TIP3   OH276206   4.794   6.049  14.637 -0.6776  0.0705 -0.2673
18264TIP3    H176207   4.794   5.973  14.695  0.4052 -0.8002 -1.3524
18264TIP3    H276208   4.850   6.023  14.563  0.4558  2.2322 -0.2561
18265TIP3   OH276209   4.364   3.587  16.987 -0.1282  0.1493 -0.1675
18265TIP3    H176210   4.320   3.643  16.923  0.4176 -0.0792 -0.7566
18265TIP3    H276211   4.455   3.616  16.986  0.4985 -1.6934 -1.5782
18266TIP3   OH276212   2.421   0.704   1.890  0.2351  0.5070  0.4038
18266TIP3    H176213   2.463   0.671   1.810  0.2835  0.3557  0.4909
18266TIP3    H276214   2.335   0.734   1.861 -0.5740 -1.4422  0.6379
18267TIP3   OH276215   5.949   5.675  11.755  0.0113 -0.4192 -0.3452
18267TIP3    H176216   5.946   5.636  11.668  1.0515  0.2164 -0.6880
18267TIP3    H276217   5.878   5.740  11.754 -0.1514 -0.5965 -0.6164
18268TIP3   OH276218   5.875   4.838  15.636 -0.4093  0.3851  0.1988
18268TIP3    H176219   5.846   4.929  15.644 -1.0547  0.1192  1.0866
18268TIP3    H276220   5.911   4.817  15.722  0.7573  0.1386 -0.3423
18269TIP3   OH276221   5.818   5.767   2.186  0.1217 -0.0626 -0.5366
18269TIP3    H176222   5.842   5.706   2.117  2.2841 -1.4131  1.2850
18269TIP3    H276223   5.896   5.820   2.200 -1.0006  1.6857 -0.5532
18270TIP3   OH276224   5.109   0.192   2.119 -0.1570 -0.2445  0.4408
18270TIP3    H176225   5.175   0.141   2.071 -0.3709 -0.0436 -0.0786
18270TIP3    H276226   5.061   0.126   2.169 -1.2988 -0.7792 -1.2466
18271TIP3   OH276227   5.333   2.049  13.816  0.4861 -0.2129 -0.9217
18271TIP3    H176228   5.267   2.114  13.838  1.6605  0.5235  0.6339
18271TIP3    H276229   5.317   2.028  13.724 -2.8090 -1.1722 -0.2754
18272TIP3   OH276230   4.617   0.336   2.346  0.1859  0.2060 -0.1703
18272TIP3    H176231   4.711   0.353   2.355  0.3997 -1.3479  0.9735
18272TIP3    H276232   4.612   0.263   2.285 -0.3410  0.6478 -0.6722
18273TIP3   OH276233   2.378   2.664  16.316  0.1945 -0.3477 -0.3738
18273TIP3    H176234   2.400   2.578  16.352  0.7423 -0.6248 -1.3616
18273TIP3    H276235   2.296   2.651  16.270 -0.5028  0.0076  0.7170
18274TIP3   OH276236   6.034   0.842  15.291  0.0994  0.1447 -0.2051
18274TIP3    H176237   6.041   0.784  15.366  0.3901  2.2441  1.4907
18274TIP3    H276238   6.108   0.903  15.300  1.6672 -0.9638 -3.5960
18275TIP3   OH276239   3.757   3.923  14.100  0.1088  0.1034  0.8522
18275TIP3    H176240   3.812   3.946  14.025 -2.3390 -0.2523 -1.1899
18275TIP3    H276241   3.818   3.918  14.174  2.6955  0.2023 -1.1335
18276TIP3   OH276242   3.066   2.030   1.106 -0.2466 -0.3455  0.7818
18276TIP3    H176243   3.031   1.945   1.080 -1.8708  0.4633  0.2336
18276TIP3    H276244   3.158   2.026   1.080 -0.7216 -1.2694 -0.9275
18277TIP3   OH276245   1.672   3.935  13.369 -0.5668 -0.4556  0.1087
18277TIP3    H176246   1.718   3.949  13.287 -0.8713 -1.3139 -0.2146
18277TIP3    H276247   1.607   3.867  13.350 -0.3136 -1.0308  1.1711
18278TIP3   OH276248   2.876   4.307  12.906  0.6309 -0.7862 -0.3360
18278TIP3    H176249   2.937   4.323  12.834  0.1116  0.1441 -0.5869
18278TIP3    H276250   2.792   4.292  12.863  0.6094 -1.7549  0.0220
18279TIP3   OH276251   1.898   1.944  11.269  0.2698  0.2806 -0.2437
18279TIP3    H176252   1.992   1.928  11.264  0.2164 -1.3282  2.1578
18279TIP3    H276253   1.861   1.892  11.199  1.0994  0.0104 -0.4896
18280TIP3   OH276254   0.407   1.726  12.795 -0.0964 -0.6579  0.3511
18280TIP3    H176255   0.340   1.700  12.858  0.5392 -1.0275  0.8849
18280TIP3    H276256   0.470   1.654  12.795  1.8806  0.9456  2.1074
18281TIP3   OH276257   4.927   4.656   1.605  0.2622  0.8163 -0.0536
18281TIP3    H176258   4.967   4.608   1.678  0.9539  2.1898  0.5004
18281TIP3    H276259   4.880   4.728   1.647 -0.9994  0.4724 -0.8503
18282TIP3   OH276260   4.271   5.729  15.993  0.0729 -0.1523  0.1139
18282TIP3    H176261   4.234   5.800  15.941 -1.7327 -0.6332  0.6831
18282TIP3    H276262   4.212   5.721  16.068  1.3264 -0.9904  1.0474
18283TIP3   OH276263   2.568   0.176  11.783 -0.2597 -0.8312 -0.5470
18283TIP3    H176264   2.650   0.183  11.834 -1.3290  0.1748  1.1329
18283TIP3    H276265   2.515   0.115  11.833 -1.0525 -0.4274 -0.8899
18284TIP3   OH276266   0.158   2.403   3.376 -0.4069  0.0746 -0.0510
18284TIP3    H176267   0.169   2.474   3.313  2.0589 -0.0901  0.0721
18284TIP3    H276268   0.107   2.441   3.447  0.8404  1.7582  0.0081
18285TIP3   OH276269   6.234   0.173   0.641  0.4449  0.2765  0.7285
18285TIP3    H176270   6.257   0.264   0.659  0.0832  0.5242 -0.0071
18285TIP3    H276271   6.265   0.124   0.717  0.1764  1.0856  1.3663
18286TIP3   OH276272   2.412   2.968  17.037 -0.1160  0.1127 -0.4393
18286TIP3    H176273   2.481   3.035  17.033 -0.4643  0.5601  0.7177
18286TIP3    H276274   2.458   2.885  17.023  0.5838  0.4545 -0.1943
18287TIP3   OH276275   5.912   2.412   0.321  0.0283 -0.0404 -0.4733
18287TIP3    H176276   5.888   2.433   0.231  1.4389 -0.0673 -0.8779
18287TIP3    H276277   6.007   2.423   0.324  0.0788 -0.6149  0.8613
18288TIP3   OH276278   3.771   0.596   3.618  0.6267 -0.5861 -0.1213
18288TIP3    H176279   3.688   0.609   3.663  1.1054  2.4044  0.0783
18288TIP3    H276280   3.751   0.607   3.525  0.5707 -1.4197 -0.2189
18289TIP3   OH276281   6.630   2.579  11.456  0.1734  0.1478  0.2308
18289TIP3    H176282   6.589   2.654  11.414 -1.9469 -0.9643  0.1914
18289TIP3    H276283   6.668   2.614  11.537  1.7528  1.7463 -1.1284
18290TIP3   OH276284   4.122   2.120  14.574  0.1351  0.4148  0.1815
18290TIP3    H176285   4.113   2.025  14.567  2.1744  0.2733 -1.2494
18290TIP3    H276286   4.086   2.141  14.660  2.8387 -2.1229  2.1145
18291TIP3   OH276287   2.396   5.452  13.204 -0.2308 -0.6995  0.3632
18291TIP3    H176288   2.444   5.530  13.176 -0.9414 -0.4650 -0.2187
18291TIP3    H276289   2.461   5.382  13.200  0.1312 -0.3398 -0.1669
18292TIP3   OH276290   6.048   6.176  13.132 -0.5238  0.0797  0.1360
18292TIP3    H176291   6.042   6.150  13.224 -0.0135 -2.8519 -0.5455
18292TIP3    H276292   6.141   6.167  13.110 -0.6624  0.5998 -0.7136
18293TIP3   OH276293   5.030   6.015  15.220  0.6885  0.1586  0.5633
18293TIP3    H176294   5.078   6.090  15.185  1.8555  0.5079  2.7382
18293TIP3    H276295   5.037   6.024  15.315 -0.8041 -1.6803  0.9110
18294TIP3   OH276296   5.980   5.864   2.984  0.0672 -0.2049  0.0738
18294TIP3    H176297   5.964   5.847   3.077  0.1466  2.2553  0.5874
18294TIP3    H276298   6.007   5.955   2.980  0.8454 -0.4714 -2.3087
18295TIP3   OH276299   2.772   1.277   3.642  0.1690 -0.2373  0.1874
18295TIP3    H176300   2.736   1.195   3.606 -0.8394  0.7225 -1.0874
18295TIP3    H276301   2.695   1.327   3.668  0.7010  0.8256 -0.2361
18296TIP3   OH276302   0.090   3.280   3.335 -0.3684 -0.5188  0.6915
18296TIP3    H176303   0.161   3.228   3.299 -2.5992 -1.3238 -3.1370
18296TIP3    H276304   0.129   3.365   3.353  1.7454 -1.1937 -0.4284
18297TIP3   OH276305   1.650   6.150   4.498  0.5435  0.2741 -0.3789
18297TIP3    H176306   1.583   6.218   4.509 -0.6868 -1.1293  1.3640
18297TIP3    H276307   1.662   6.114   4.586  2.2562 -0.7872 -0.9999
18298TIP3   OH276308   1.619   1.647  14.900  0.7089  0.6311 -0.0127
18298TIP3    H176309   1.711   1.663  14.924  0.3913  2.2969  0.2563
18298TIP3    H276310   1.616   1.664  14.806  0.3627  2.4779  0.2804
18299TIP3   OH276311   3.431   2.716   0.987  0.1191  0.0733 -0.3903
18299TIP3    H176312   3.428   2.723   0.892  0.8900 -0.0291 -0.4314
18299TIP3    H276313   3.354   2.664   1.011  0.8659 -1.4053 -1.1067
18300TIP3   OH276314   5.686   4.524  15.043 -0.8118 -0.4904  0.1055
18300TIP3    H176315   5.698   4.618  15.030 -1.4703 -0.3374  0.5320
18300TIP3    H276316   5.688   4.487  14.955 -1.9384  0.1024 -0.1847
18301TIP3   OH276317   5.696   5.365  16.055  0.2344 -0.1267 -0.1617
18301TIP3    H176318   5.692   5.361  16.151 -3.3448  0.3316 -0.1572
18301TIP3    H276319   5.754   5.439  16.037  2.7591 -1.5221  1.4721
18302TIP3   OH276320   5.653   4.242  11.220  0.0490  0.2752  0.1936
18302TIP3    H176321   5.684   4.272  11.134 -1.5701  0.4753 -0.3613
18302TIP3    H276322   5.671   4.148  11.220  1.1600  0.4738  0.1438
18303TIP3   OH276323   3.329   0.105   0.295  0.5175 -0.2671  0.1386
18303TIP3    H176324   3.397   0.087   0.360  1.3262  1.6840 -0.1315
18303TIP3    H276325   3.376   0.119   0.213 -0.1145  1.6912  0.0659
18304TIP3   OH276326   0.619   1.785  16.451  0.5947 -0.1465 -0.1466
18304TIP3    H176327   0.585   1.832  16.527  1.2813  0.3043 -0.0997
18304TIP3    H276328   0.543   1.743  16.412  0.0587  0.5116  0.1695
18305TIP3   OH276329   6.626   1.613  11.440 -0.3620  0.3124 -0.3847
18305TIP3    H176330   6.642   1.600  11.347 -2.1456  0.5598 -0.7671
18305TIP3    H276331   6.711   1.641  11.476  0.1555  1.0623 -2.0935
18306TIP3   OH276332   0.333   1.426   0.880 -0.0435  0.4492 -0.4420
18306TIP3    H176333   0.388   1.481   0.937  1.0217 -0.0324 -0.9870
18306TIP3    H276334   0.243   1.456   0.898  0.2089  0.0293  1.7905
18307TIP3   OH276335   1.213   6.642  15.710 -0.4325  0.0853 -0.3568
18307TIP3    H176336   1.120   6.642  15.732 -0.2245  0.4635  0.5597
18307TIP3    H276337   1.255   6.597  15.783  0.2596  1.1898 -0.0512
18308TIP3   OH276338   1.556   1.218  16.008  0.0534  0.7374  0.1595
18308TIP3    H176339   1.539   1.124  15.997  0.0701  0.8798 -1.1549
18308TIP3    H276340   1.507   1.242  16.087 -2.1838  0.1747 -0.9775
18309TIP3   OH276341   5.596   4.740   6.787  0.0655  0.0131 -0.5866
18309TIP3    H176342   5.631   4.824   6.756  1.1916 -0.3392 -0.3157
18309TIP3    H276343   5.613   4.679   6.715 -0.1570 -0.1269 -0.5216
18310TIP3   OH276344   0.544   2.116  16.305  0.2931 -0.3550 -0.0271
18310TIP3    H176345   0.500   2.127  16.220  0.2220  0.8598  0.1503
18310TIP3    H276346   0.483   2.062  16.356 -0.1107 -0.2900 -0.4283
18311TIP3   OH276347   4.525   2.934  15.348  0.2605 -0.4953  0.5145
18311TIP3    H176348   4.439   2.931  15.390 -0.0172 -0.2892 -0.0260
18311TIP3    H276349   4.545   2.843  15.326 -0.0453 -0.4870  0.1973
18312TIP3   OH276350   3.574   2.693   4.539  0.7885  0.1993 -0.7146
18312TIP3    H176351   3.493   2.643   4.531  0.4373  0.5913  0.2395
18312TIP3    H276352   3.562   2.746   4.618  1.9480  0.3179 -0.5984
18313TIP3   OH276353   4.806   6.684   3.731 -0.2742 -0.3205 -0.1244
18313TIP3    H176354   4.843   6.758   3.683 -1.5583  0.2411 -0.2909
18313TIP3    H276355   4.762   6.632   3.664 -0.3618 -0.6093  0.1565
18314TIP3   OH276356   2.022   3.572  10.971 -0.1952 -0.7945  0.0835
18314TIP3    H176357   2.008   3.483  11.001 -0.0078 -0.2217  2.0270
18314TIP3    H276358   1.938   3.615  10.982  0.2763 -0.1481  1.4807
18315TIP3   OH276359   6.451   5.010   5.494  0.0715  0.6396  0.2002
18315TIP3    H176360   6.427   5.103   5.490  0.1773  0.7006  0.8997
18315TIP3    H276361   6.436   4.985   5.585  1.2885  0.3195  0.3341
18316TIP3   OH276362   3.710   0.120   6.257  0.2540 -0.0714 -0.4257
18316TIP3    H176363   3.783   0.153   6.309 -0.5762  2.4126 -0.6861
18316TIP3    H276364   3.739   0.129   6.166 -0.2165  0.6412 -0.5195
18317TIP3   OH276365   1.331   6.689   1.241 -0.5695  0.0324  0.1322
18317TIP3    H176366   1.378   6.760   1.196  0.1575 -0.8299 -0.5089
18317TIP3    H276367   1.283   6.645   1.171 -2.9975  1.3242  0.8580
18318TIP3   OH276368   5.711   2.885  11.431 -0.0861  0.3970 -0.3025
18318TIP3    H176369   5.785   2.945  11.442  0.1264  0.0235  0.3619
18318TIP3    H276370   5.639   2.929  11.475 -0.6053  1.3292 -1.9780
18319TIP3   OH276371   6.027   3.839  12.645 -0.1369 -0.2664  0.1792
18319TIP3    H176372   6.062   3.880  12.567 -0.0577  1.4502  1.0671
18319TIP3    H276373   6.103   3.827  12.702 -0.6489  2.0059  1.4673
18320TIP3   OH276374   4.533   5.543   5.136  0.3276  0.1263  0.3943
18320TIP3    H176375   4.514   5.618   5.080 -2.3516  0.0240  1.0433
18320TIP3    H276376   4.565   5.475   5.076 -1.5872  0.3262 -0.9117
18321TIP3   OH276377   4.972   2.360   1.807 -0.1903  0.2085  0.1305
18321TIP3    H176378   4.920   2.440   1.820  0.5225  1.0360 -1.7286
18321TIP3    H276379   4.923   2.292   1.852 -1.7228  1.3836  0.3184
18322TIP3   OH276380   6.640   5.012   1.571 -0.0137 -0.2223  0.0828
18322TIP3    H176381   6.669   4.926   1.602  0.4881  0.5349  1.8864
18322TIP3    H276382   6.568   5.034   1.629 -0.9951  0.0433 -1.2062
18323TIP3   OH276383   2.268   2.485   5.824 -0.5189 -0.0592 -0.2849
18323TIP3    H176384   2.326   2.546   5.870 -0.1532 -0.3275 -0.3831
18323TIP3    H276385   2.245   2.532   5.743 -2.0579  0.8721  0.6457
18324TIP3   OH276386   6.306   0.507  10.870  0.1659 -0.2477  0.1154
18324TIP3    H176387   6.275   0.423  10.836 -0.9151 -0.0556  0.5947
18324TIP3    H276388   6.231   0.565  10.865  1.6539  1.7089 -3.1719
18325TIP3   OH276389   3.144   4.978   5.087  0.5834  0.4125  0.1247
18325TIP3    H176390   3.122   5.068   5.111  0.8774  0.6093 -0.3318
18325TIP3    H276391   3.233   4.984   5.051  2.0483 -0.5801  3.2702
18326TIP3   OH276392   3.797   3.375  12.704  0.1830  0.4492  0.2813
18326TIP3    H176393   3.805   3.445  12.768 -1.4046  1.3956 -0.4926
18326TIP3    H276394   3.849   3.404  12.629  1.9828 -0.6261  1.0451
18327TIP3   OH276395   6.334   5.500  15.322  0.4052 -0.4341 -0.1205
18327TIP3    H176396   6.355   5.587  15.290  0.0465 -0.0495  0.6586
18327TIP3    H276397   6.302   5.514  15.411 -0.1009 -1.3174 -0.1483
18328TIP3   OH276398   4.049   3.010  12.304 -0.2709  0.0500  0.8805
18328TIP3    H176399   4.091   3.080  12.355 -1.0569 -1.1972  3.3952
18328TIP3    H276400   4.016   2.949  12.370 -0.4233 -2.2482 -1.1951
18329TIP3   OH276401   3.348   0.693   3.254  0.3686 -0.1122 -0.3974
18329TIP3    H176402   3.358   0.611   3.302 -1.8762  0.4606  1.1716
18329TIP3    H276403   3.254   0.710   3.253  0.7516  2.4468 -0.6525
18330TIP3   OH276404   3.713   4.837   2.232 -0.4438  0.5587  0.1937
18330TIP3    H176405   3.724   4.822   2.326 -2.8276 -0.3744  0.4189
18330TIP3    H276406   3.749   4.759   2.191  0.2564  0.7942  0.3582
18331TIP3   OH276407   0.410   5.276  16.984 -0.0492 -0.2490 -1.1260
18331TIP3    H176408   0.329   5.326  16.970  0.1055  0.4684  0.3435
18331TIP3    H276409   0.382   5.195  17.026 -0.0053  0.1147 -0.3716
18332TIP3   OH276410   4.047   3.290  17.048  0.7481 -0.5543  0.4330
18332TIP3    H176411   3.997   3.369  17.071 -1.8712 -1.9095 -0.1461
18332TIP3    H276412   4.046   3.237  17.127 -1.6863 -1.9569 -0.4135
18333TIP3   OH276413   1.797   1.556  13.069  0.0557 -0.1741 -0.6786
18333TIP3    H176414   1.725   1.614  13.044 -0.8425 -0.8681  0.2117
18333TIP3    H276415   1.785   1.541  13.162  0.8409 -1.0167 -0.6944
18334TIP3   OH276416   1.175   3.290   1.843  0.4808  0.4235  0.8579
18334TIP3    H176417   1.267   3.267   1.854  0.4283 -0.0473  0.3609
18334TIP3    H276418   1.127   3.212   1.871  0.3327 -0.6964 -2.1019
18335TIP3   OH276419   4.014   3.693  14.773  0.3649 -0.5899  0.0411
18335TIP3    H176420   3.984   3.618  14.722 -0.5790  0.7472 -1.4799
18335TIP3    H276421   3.938   3.752  14.776  1.1995  0.5005  0.8271
18336TIP3   OH276422   0.904   4.675  11.051  0.2917 -0.3124  0.2104
18336TIP3    H176423   0.982   4.715  11.011  0.7163 -0.4839  0.8451
18336TIP3    H276424   0.875   4.740  11.115 -1.1410  0.5266 -1.2194
18337TIP3   OH276425   3.335   0.072  11.082 -0.0655 -0.2905  0.4614
18337TIP3    H176426   3.254   0.058  11.033 -0.9431 -1.6218  2.1764
18337TIP3    H276427   3.321   0.026  11.164  2.7986 -1.3758  0.4591
18338TIP3   OH276428   5.622   1.078  10.618  0.7143  0.0669  0.7028
18338TIP3    H176429   5.572   1.053  10.540 -0.0474  0.4106  1.0645
18338TIP3    H276430   5.687   1.141  10.586  1.0074 -0.4834  0.2019
18339TIP3   OH276431   0.529   3.854  14.688 -0.0731  0.2235 -0.0272
18339TIP3    H176432   0.486   3.872  14.604 -1.4296  1.4635  0.8830
18339TIP3    H276433   0.622   3.857  14.669 -0.3560  0.4265 -1.4910
18340TIP3   OH276434   6.669   2.989   3.820 -0.2856  0.2120  0.8318
18340TIP3    H176435   6.608   2.926   3.782  1.3153 -0.5766 -0.5893
18340TIP3    H276436   6.614   3.060   3.852 -1.9546 -0.6566  0.0090
18341TIP3   OH276437   2.835   5.046   2.424 -0.0502 -0.1043  0.1688
18341TIP3    H176438   2.860   4.954   2.423  0.6241  0.0765 -1.0056
18341TIP3    H276439   2.908   5.092   2.383 -1.2367  0.7180 -1.1360
18342TIP3   OH276440   5.401   3.598  15.546  0.2081 -0.8603 -0.0654
18342TIP3    H176441   5.479   3.548  15.568  0.6013  1.2022  4.3334
18342TIP3    H276442   5.328   3.543  15.572  0.4685 -0.8167  0.7901
18343TIP3   OH276443   0.733   5.922   3.805  0.7279 -0.0070 -0.0440
18343TIP3    H176444   0.782   5.984   3.860  1.4349 -0.2605 -0.3703
18343TIP3    H276445   0.799   5.860   3.775  0.0403 -0.8985  0.2356
18344TIP3   OH276446   3.546   4.408   0.449 -0.2687 -1.1111  0.2901
18344TIP3    H176447   3.564   4.442   0.537 -0.8441 -2.8033  1.1192
18344TIP3    H276448   3.604   4.457   0.391 -1.0726  1.2333  1.3620
18345TIP3   OH276449   4.790   1.955   5.101  0.3533  0.1733  0.5704
18345TIP3    H176450   4.814   2.013   5.028  0.5866 -0.5417  0.0724
18345TIP3    H276451   4.862   1.893   5.108 -0.5059 -0.8961  0.2119
18346TIP3   OH276452   3.137   0.197   5.055 -0.1366  0.3259 -0.8082
18346TIP3    H176453   3.085   0.207   4.976  0.8388  0.0691 -1.4999
18346TIP3    H276454   3.125   0.279   5.103 -2.1992 -0.2285 -0.2989
18347TIP3   OH276455   6.665   2.758  10.924  0.5013 -0.4116  0.6392
18347TIP3    H176456   6.723   2.747  10.999  0.7282 -0.1259  0.5086
18347TIP3    H276457   6.724   2.757  10.848  0.3352 -0.1128  0.5059
18348TIP3   OH276458   0.098   2.076  14.337  0.0142 -0.6026  0.1651
18348TIP3    H176459   0.055   2.025  14.405  0.0339 -0.6355  0.1525
18348TIP3    H276460   0.039   2.071  14.262 -0.9906  1.0785  0.7891
18349TIP3   OH276461   5.695   0.212   2.784 -0.1478  0.0902  0.4091
18349TIP3    H176462   5.660   0.299   2.762  1.3013  0.7996  0.7581
18349TIP3    H276463   5.776   0.231   2.832 -0.5188 -1.4602  1.7040
18350TIP3   OH276464   4.545   0.289   4.753 -0.5276 -0.5195 -0.4029
18350TIP3    H176465   4.529   0.298   4.847  0.2352  1.0030 -0.3822
18350TIP3    H276466   4.624   0.235   4.747 -0.4622 -0.4541 -0.1487
18351TIP3   OH276467   1.292   4.917   3.587  0.3826  0.5435  0.4456
18351TIP3    H176468   1.323   4.858   3.518  0.7867 -0.2301  1.2666
18351TIP3    H276469   1.355   4.989   3.587 -0.1791  1.0491 -0.6448
18352TIP3   OH276470   4.887   6.253   2.443  0.3849 -0.6962  0.2646
18352TIP3    H176471   4.842   6.195   2.504  0.9141 -1.5379 -0.1241
18352TIP3    H276472   4.907   6.197   2.367  0.8268  0.0181 -0.1585
18353TIP3   OH276473   3.634   0.911  13.880  0.0065 -0.1241 -0.1291
18353TIP3    H176474   3.610   0.829  13.922 -1.2295  0.4041  0.2326
18353TIP3    H276475   3.725   0.926  13.907 -0.2014 -0.6811  0.9139
18354TIP3   OH276476   0.229   0.054  11.368 -0.3522 -0.1728  0.1292
18354TIP3    H176477   0.178   0.020  11.294  0.9606  0.1007 -0.9517
18354TIP3    H276478   0.174   0.123  11.405 -1.2983 -0.7217 -0.2061
18355TIP3   OH276479   1.645   1.561   3.757 -0.0628 -0.4234 -0.3590
18355TIP3    H176480   1.643   1.611   3.675  0.7010  0.3628  0.0931
18355TIP3    H276481   1.603   1.617   3.821  0.0784 -0.6890 -0.0283
18356TIP3   OH276482   1.949   5.556   0.310 -0.7990 -0.1313 -0.1839
18356TIP3    H176483   2.037   5.526   0.289 -2.4608 -3.9435 -2.7726
18356TIP3    H276484   1.945   5.555   0.405  1.9761  0.5207  0.0186
18357TIP3   OH276485   2.309   4.308   3.946 -0.0047  0.4862 -0.3027
18357TIP3    H176486   2.292   4.294   4.039  2.5571 -1.8350 -0.0322
18357TIP3    H276487   2.352   4.393   3.942  2.1404 -0.4180  1.1156
18358TIP3   OH276488   2.215   3.196   4.599  0.1382  0.2014  0.0887
18358TIP3    H176489   2.223   3.236   4.513 -0.1194  0.2271  0.0773
18358TIP3    H276490   2.257   3.110   4.590 -0.2848  0.0243 -0.1794
18359TIP3   OH276491   6.235   1.497  14.061 -0.1822  0.6456 -0.0726
18359TIP3    H176492   6.227   1.545  13.979  1.0507  0.2651 -0.4405
18359TIP3    H276493   6.265   1.409  14.036 -0.1441  0.4070  0.7495
18360TIP3   OH276494   3.508   1.553   0.176  0.0821 -0.5852 -0.2702
18360TIP3    H176495   3.563   1.562   0.254  0.4205 -1.7624 -0.3527
18360TIP3    H276496   3.500   1.458   0.164  0.1137 -0.4182 -1.7156
18361TIP3   OH276497   0.642   3.957  12.347  0.3312 -0.4395  0.0742
18361TIP3    H176498   0.616   3.872  12.384 -1.7313 -0.0505 -0.4117
18361TIP3    H276499   0.641   4.017  12.421  1.5335 -0.7387  0.3664
18362TIP3   OH276500   2.733   0.820  12.447  0.6600 -0.5223 -0.6013
18362TIP3    H176501   2.652   0.827  12.398  2.1790 -3.5314 -3.9769
18362TIP3    H276502   2.781   0.900  12.427 -1.3383  1.3760  1.5819
18363TIP3   OH276503   0.142   3.085  15.339 -0.1058 -0.4410 -0.2644
18363TIP3    H176504   0.093   3.030  15.278 -2.1890  0.5754  0.3772
18363TIP3    H276505   0.074   3.125  15.394  1.5560  0.1524  1.4644
18364TIP3   OH276506   4.090   2.876   5.090  0.5848  0.0803  0.3800
18364TIP3    H176507   4.022   2.929   5.048  0.4052 -0.2754  0.2093
18364TIP3    H276508   4.083   2.791   5.046  0.9885 -0.0266  0.5231
18365TIP3   OH276509   3.572   6.379  12.522  0.4315 -0.7651  0.1654
18365TIP3    H176510   3.581   6.290  12.556 -0.4979 -0.6556  0.7429
18365TIP3    H276511   3.511   6.421  12.583  1.4932  0.5201  0.3751
18366TIP3   OH276512   1.635   0.949   5.476  0.1961 -0.4244 -0.0191
18366TIP3    H176513   1.557   0.895   5.465 -0.3327  0.1885  0.6138
18366TIP3    H276514   1.674   0.920   5.559 -0.4449  0.5693  0.6539
18367TIP3   OH276515   5.477   6.056  13.191 -0.5020  0.2070 -0.1230
18367TIP3    H176516   5.502   6.139  13.151  1.1275  0.2189  0.8182
18367TIP3    H276517   5.391   6.073  13.231 -0.8531  0.9911 -1.1740
18368TIP3   OH276518   3.327   1.996   4.320 -0.3045 -0.3930 -0.7901
18368TIP3    H176519   3.326   1.956   4.234  0.5306 -0.2583 -0.8722
18368TIP3    H276520   3.379   1.936   4.374 -1.7899 -1.0825 -0.0599
18369TIP3   OH276521   3.787   4.281  12.788  0.1180 -0.0635 -0.6571
18369TIP3    H176522   3.691   4.281  12.787  0.0677  1.0972  0.9397
18369TIP3    H276523   3.811   4.351  12.849  1.9991 -0.1218 -1.2552
18370TIP3   OH276524   6.211   3.979   0.366 -0.6621 -0.4418  0.3194
18370TIP3    H176525   6.194   3.894   0.407  1.8353 -1.5423 -0.6894
18370TIP3    H276526   6.292   3.965   0.316  0.2192  2.7502  0.6643
18371TIP3   OH276527   6.134   0.497   6.175 -0.5088 -0.0215  0.5359
18371TIP3    H176528   6.138   0.403   6.156 -0.2135  0.1367 -0.1782
18371TIP3    H276529   6.220   0.518   6.210 -0.3682  0.1186  0.0979
18372TIP3   OH276530   5.952   3.987   2.762  0.1485  0.6114 -0.2445
18372TIP3    H176531   6.025   4.023   2.812 -0.2826 -0.7525  1.4739
18372TIP3    H276532   5.882   3.975   2.826 -0.9861  0.2680 -1.4988
18373TIP3   OH276533   6.460   6.698  12.541 -0.3594  0.0711 -0.1803
18373TIP3    H176534   6.505   6.780  12.518 -0.0740 -0.3748 -1.2450
18373TIP3    H276535   6.525   6.649  12.592 -0.5425  0.5086  0.4896
18374TIP3   OH276536   5.185   6.615   0.852  0.4426  0.2971  0.2159
18374TIP3    H176537   5.162   6.604   0.945  2.4949 -0.0057  0.7299
18374TIP3    H276538   5.184   6.710   0.838  2.4162  0.5021  1.2142
18375TIP3   OH276539   3.251   4.825   0.219  0.1608 -0.0134  0.0439
18375TIP3    H176540   3.210   4.790   0.140  0.8374  0.2594 -0.4395
18375TIP3    H276541   3.249   4.920   0.208 -0.9471  0.0992  0.9846
18376TIP3   OH276542   1.866   0.751   0.414  0.4054  0.1929  0.2807
18376TIP3    H176543   1.870   0.703   0.331  0.0863  2.6449 -1.2613
18376TIP3    H276544   1.777   0.738   0.445  0.7452 -1.3799  0.7103
18377TIP3   OH276545   4.200   6.665   3.253  0.5006  0.9973 -0.1734
18377TIP3    H176546   4.159   6.642   3.170  1.9944 -2.0579 -0.2267
18377TIP3    H276547   4.154   6.613   3.318  0.4198  2.1081  0.6937
18378TIP3   OH276548   3.087   0.741  11.743  0.2677 -0.0737  0.1616
18378TIP3    H176549   3.091   0.666  11.803  1.1338  0.4095  0.7364
18378TIP3    H276550   3.128   0.812  11.792 -2.4976  1.3976  0.5026
18379TIP3   OH276551   0.583   0.643   6.235  0.2736 -0.2991  0.1666
18379TIP3    H176552   0.670   0.673   6.261  0.2623  1.6673 -1.7419
18379TIP3    H276553   0.599   0.586   6.160 -0.0836  2.2015 -1.9620
18380TIP3   OH276554   4.348   6.072   3.559  0.4237  0.5619  0.1969
18380TIP3    H176555   4.347   5.979   3.582  0.0479  0.8184  1.2740
18380TIP3    H276556   4.404   6.113   3.625  1.6732  0.9311 -1.0401
18381TIP3   OH276557   2.557   2.802   1.735  0.4722 -0.3664 -0.3032
18381TIP3    H176558   2.642   2.779   1.697  2.4037 -0.1871  3.4064
18381TIP3    H276559   2.556   2.897   1.735  0.9149 -0.3497  0.8226
18382TIP3   OH276560   6.596   3.293   5.121 -0.4940  0.4428  0.4153
18382TIP3    H176561   6.670   3.296   5.061 -0.6696 -1.5689  0.0359
18382TIP3    H276562   6.615   3.360   5.187  0.7188  1.2427 -0.7141
18383TIP3   OH276563   5.636   6.395  13.371  0.2463  0.5863  0.0166
18383TIP3    H176564   5.652   6.338  13.295  1.0123  0.5696  0.1878
18383TIP3    H276565   5.546   6.376  13.396  1.0608 -2.0358  1.2985
18384TIP3   OH276566   1.539   4.184  13.099  0.3331  0.3639 -0.5885
18384TIP3    H176567   1.519   4.133  13.020  0.3571  1.7044 -1.4840
18384TIP3    H276568   1.473   4.157  13.162  0.6423 -1.1344 -0.8671
18385TIP3   OH276569   4.035   2.901   2.448 -0.2301 -0.0985  0.2148
18385TIP3    H176570   4.054   2.877   2.357 -1.1669 -1.7955  0.4316
18385TIP3    H276571   3.949   2.944   2.444  0.5179  1.4594  0.1038
18386TIP3   OH276572   6.591   1.269  13.442 -0.0444 -0.2372  0.5487
18386TIP3    H176573   6.516   1.258  13.383 -1.2019  0.0497  1.9060
18386TIP3    H276574   6.594   1.187  13.492 -0.2726  0.2332  1.3675
18387TIP3   OH276575   6.163   0.603   4.951  0.2005 -0.3022  0.1343
18387TIP3    H176576   6.240   0.560   4.990  0.9623  0.3644 -0.6077
18387TIP3    H276577   6.101   0.532   4.937  0.6110 -0.8314  0.8948
18388TIP3   OH276578   3.544   4.400   3.760  0.4488  0.3652 -0.0457
18388TIP3    H176579   3.556   4.347   3.839 -1.4523  0.0773  0.0890
18388TIP3    H276580   3.598   4.357   3.694  1.8833  0.4746  1.0063
18389TIP3   OH276581   2.047   3.844   6.791 -0.2471 -0.1865  0.6642
18389TIP3    H176582   1.980   3.863   6.726  0.1913 -0.0064  0.2609
18389TIP3    H276583   2.004   3.785   6.853 -0.6301 -0.4611  0.1448
18390TIP3   OH276584   2.747   4.750   0.240 -0.2135  0.4473  0.2229
18390TIP3    H176585   2.671   4.802   0.267 -0.8350 -0.5017  0.3635
18390TIP3    H276586   2.748   4.756   0.145 -1.7295 -1.1913  0.0479
18391TIP3   OH276587   6.705   2.263   2.246 -0.0728  0.5328 -0.4453
18391TIP3    H176588   6.733   2.246   2.156  3.4297  0.5340  0.4858
18391TIP3    H276589   6.658   2.347   2.241  0.4736  0.7870 -2.1847
18392TIP3   OH276590   3.335   1.362  13.329  0.5135 -0.1880 -0.1355
18392TIP3    H176591   3.365   1.450  13.352  2.6139 -0.9775  0.4132
18392TIP3    H276592   3.307   1.324  13.412  0.6216 -0.4081 -0.2005
18393TIP3   OH276593   4.641   6.527  14.293 -0.0397  0.5722  0.2514
18393TIP3    H176594   4.617   6.620  14.290 -1.1068  0.3022 -0.3088
18393TIP3    H276595   4.588   6.491  14.364 -3.5277 -0.5502 -2.5614
18394TIP3   OH276596   6.532   3.289  12.360  0.0906  0.1746 -0.2641
18394TIP3    H176597   6.617   3.268  12.399 -0.1380 -1.5480 -0.5988
18394TIP3    H276598   6.540   3.379  12.330  0.7328  1.1408  2.5017
18395TIP3   OH276599   0.193   3.229   3.565 -0.3269  0.2459 -0.0768
18395TIP3    H176600   0.122   3.249   3.504 -1.3683 -0.0180  1.0066
18395TIP3    H276601   0.197   3.133   3.568 -0.6983  0.2416  0.7020
18396TIP3   OH276602   5.674   3.526  15.654 -0.4265  0.1366  0.7202
18396TIP3    H176603   5.610   3.580  15.699  1.2099  0.4296  2.8447
18396TIP3    H276604   5.759   3.564  15.676  0.6629 -1.9144  0.4041
18397TIP3   OH276605   1.465   3.230   2.317  0.1923  0.1357 -0.3168
18397TIP3    H176606   1.537   3.292   2.306  0.8684 -0.8636 -1.7307
18397TIP3    H276607   1.387   3.279   2.291  0.2672  1.3063  1.4658
18398TIP3   OH276608   4.364   3.271  10.870  0.4595 -0.1771  0.0037
18398TIP3    H176609   4.401   3.221  10.798 -1.0949 -0.9443 -0.2929
18398TIP3    H276610   4.339   3.355  10.831 -1.8812 -1.1785 -0.7938
18399TIP3   OH276611   0.323   2.857  10.864  0.6549 -0.4645  0.2849
18399TIP3    H176612   0.246   2.805  10.841 -1.9042  2.9574  0.2579
18399TIP3    H276613   0.371   2.866  10.781 -1.3927  0.9564 -0.8299
18400TIP3   OH276614   2.116   0.769   6.294  0.2483 -0.2510 -0.3772
18400TIP3    H176615   2.129   0.789   6.387  0.0036  0.5946 -0.5219
18400TIP3    H276616   2.156   0.682   6.283  0.3335 -0.3347  0.5013
18401TIP3   OH276617   0.186   4.990   0.371  0.0849  0.0611 -0.6131
18401TIP3    H176618   0.219   4.945   0.293  0.4846  1.0483 -1.0320
18401TIP3    H276619   0.099   5.022   0.345  0.7303  1.5028 -1.1296
18402TIP3   OH276620   6.753   0.172   2.476  0.0286 -0.5072 -0.2920
18402TIP3    H176621   6.789   0.200   2.392  0.8939 -2.5687 -0.6668
18402TIP3    H276622   6.659   0.189   2.468  0.4560  2.5084 -0.2983
18403TIP3   OH276623   5.269   3.160   2.702  0.4770  0.4371 -0.6360
18403TIP3    H176624   5.227   3.082   2.665  0.9757 -0.1745  0.0636
18403TIP3    H276625   5.209   3.188   2.771 -0.1774  1.2520 -1.5086
18404TIP3   OH276626   1.960   4.559   1.597 -0.3763  0.1724  0.2372
18404TIP3    H176627   1.873   4.569   1.557 -0.6423 -1.0262  0.4708
18404TIP3    H276628   2.015   4.621   1.550 -0.5274 -1.6179 -2.4947
18405TIP3   OH276629   3.619   1.602  16.014 -0.0508 -0.5948  0.2168
18405TIP3    H176630   3.596   1.683  16.060  0.8755 -0.9591  1.3531
18405TIP3    H276631   3.536   1.555  16.005 -0.5444  0.3133 -0.1533
18406TIP3   OH276632   1.098   3.636  11.179 -0.5742  0.6116 -0.0468
18406TIP3    H176633   1.115   3.676  11.094 -2.4538  0.0644 -0.7174
18406TIP3    H276634   1.124   3.703  11.243 -1.4108  1.9677 -1.0917
18407TIP3   OH276635   2.458   2.438  14.236  0.0660  0.4425 -0.0722
18407TIP3    H176636   2.536   2.477  14.276 -0.6560 -1.5772  3.8200
18407TIP3    H276637   2.472   2.344  14.245 -0.9724 -0.1601 -3.4083
18408TIP3   OH276638   1.858   5.771   1.854 -0.0534  0.1700 -0.6251
18408TIP3    H176639   1.907   5.853   1.847 -0.0630  0.1471 -0.9483
18408TIP3    H276640   1.905   5.710   1.798 -0.3679  0.1061 -0.8194
18409TIP3   OH276641   4.054   6.738  11.712  0.6068  0.1205  0.1491
18409TIP3    H176642   3.974   6.694  11.684 -0.4926  0.3915  2.6293
18409TIP3    H276643   4.033   6.831  11.707  0.6365  0.1856  1.1317
18410TIP3   OH276644   1.553   3.599   3.160  0.2195  0.2995 -0.1202
18410TIP3    H176645   1.503   3.677   3.182 -1.4349 -0.2262 -1.7289
18410TIP3    H276646   1.574   3.609   3.067  2.7378  0.2488  0.3754
18411TIP3   OH276647   1.795   2.731   3.996 -0.1182 -0.2556 -0.7156
18411TIP3    H176648   1.784   2.637   4.012  0.6598 -0.1747  0.4664
18411TIP3    H276649   1.865   2.735   3.930 -0.1197 -0.5118 -0.7376
18412TIP3   OH276650   1.986   4.773   4.112 -0.2742 -0.8097  0.4720
18412TIP3    H176651   2.010   4.864   4.123 -0.8303 -0.5195 -0.5805
18412TIP3    H276652   1.933   4.753   4.189  1.3189 -0.7898  1.6153
18413TIP3   OH276653   1.590   4.093   2.763  0.2345 -0.1100 -0.3957
18413TIP3    H176654   1.579   4.051   2.848  0.4545 -0.4700 -0.5423
18413TIP3    H276655   1.668   4.052   2.726  0.0343 -0.0846 -0.8499
18414TIP3   OH276656   1.795   4.722  12.111  0.2959  0.0968  0.0946
18414TIP3    H176657   1.772   4.813  12.130 -1.7356 -0.3991  0.3079
18414TIP3    H276658   1.750   4.703  12.029  1.6534 -0.4026 -0.5572
18415TIP3   OH276659   3.081   3.118   1.154  0.0075 -0.7988 -0.0810
18415TIP3    H176660   3.135   3.147   1.081  0.1988 -1.5803 -0.2613
18415TIP3    H276661   3.045   3.199   1.191  1.7899 -0.1819  0.4492
18416TIP3   OH276662   4.497   1.170  14.796  0.0118 -0.3313 -0.0111
18416TIP3    H176663   4.416   1.213  14.824  0.6087 -0.5887  2.2788
18416TIP3    H276664   4.543   1.237  14.745 -0.3084  0.8491  1.2047
18417TIP3   OH276665   5.102   1.562   4.239 -0.0917  0.5375 -0.1158
18417TIP3    H176666   5.077   1.508   4.315  0.5245  0.3214 -0.0623
18417TIP3    H276667   5.028   1.621   4.227 -1.1206 -0.7934 -0.6144
18418TIP3   OH276668   2.647   4.985  16.682 -0.0241  0.0279  0.4099
18418TIP3    H176669   2.573   5.042  16.658  0.2298 -0.3871 -1.5722
18418TIP3    H276670   2.606   4.903  16.710 -0.3351  0.3384  0.8780
18419TIP3   OH276671   2.600   0.649   3.809 -0.1591  0.2129 -0.0928
18419TIP3    H176672   2.661   0.583   3.841 -0.4280  0.1658  0.3225
18419TIP3    H276673   2.654   0.705   3.753  0.4805  0.7243  0.9980
18420TIP3   OH276674   2.702   1.759   3.847 -0.0676  0.4583 -0.1243
18420TIP3    H176675   2.663   1.695   3.906  2.1265  0.1186  1.0425
18420TIP3    H276676   2.627   1.803   3.806 -1.6231 -1.9118  0.0267
18421TIP3   OH276677   4.737   3.571  11.182  0.5817 -0.5133  0.6063
18421TIP3    H176678   4.713   3.479  11.196 -0.2729 -0.2691  0.8056
18421TIP3    H276679   4.656   3.614  11.155  1.0784  0.0932  0.0376
18422TIP3   OH276680   3.536   4.963  11.514  0.4419 -0.6128 -0.5621
18422TIP3    H176681   3.495   4.934  11.596  0.9732  1.6062  0.5668
18422TIP3    H276682   3.515   4.894  11.451 -0.4166 -2.1530  1.3028
18423TIP3   OH276683   4.735   0.478  11.392 -0.2201 -0.5352  0.6722
18423TIP3    H176684   4.754   0.570  11.410 -1.3869 -0.2115  0.3166
18423TIP3    H276685   4.812   0.431  11.424  0.1605  0.5144  1.3469
18424TIP3   OH276686   1.705   2.494   2.438 -0.1784 -0.4204 -0.1822
18424TIP3    H176687   1.715   2.569   2.496 -0.1897 -1.7815  1.6901
18424TIP3    H276688   1.642   2.437   2.482  0.2660 -1.7946 -1.2192
18425TIP3   OH276689   4.234   0.186  15.293 -0.4580 -0.1238 -0.1986
18425TIP3    H176690   4.268   0.148  15.213 -0.2965 -0.7156  0.1469
18425TIP3    H276691   4.145   0.150  15.301 -0.7606  0.5336 -0.5065
18426TIP3   OH276692   4.716   3.607  11.903 -0.4388 -0.1613  0.0308
18426TIP3    H176693   4.694   3.686  11.952  0.8649  1.2228 -1.4724
18426TIP3    H276694   4.648   3.544  11.926 -0.7160  0.8898  2.3903
18427TIP3   OH276695   1.317   3.764   3.028  0.2874 -0.5889  0.8004
18427TIP3    H176696   1.272   3.842   3.058 -1.0662 -1.3175  0.7466
18427TIP3    H276697   1.325   3.775   2.933 -0.9987 -1.0395  0.6233
18428TIP3   OH276698   4.453   3.709   2.499  0.0866 -0.7942  0.0087
18428TIP3    H176699   4.543   3.728   2.474  0.0916 -1.2496 -0.3423
18428TIP3    H276700   4.449   3.730   2.593 -0.0455  1.3093 -0.4231
18429TIP3   OH276701   5.131   2.327  13.282  0.2085 -0.0100  1.0481
18429TIP3    H176702   5.158   2.280  13.204  0.5560  1.7217  0.0783
18429TIP3    H276703   5.047   2.367  13.259  0.5015  0.8420  1.4021
18430TIP3   OH276704   0.237   3.627  12.454  0.1528 -0.4242  0.2254
18430TIP3    H176705   0.146   3.655  12.455 -0.5199 -2.4516 -0.0484
18430TIP3    H276706   0.278   3.678  12.384 -1.6886 -2.1002 -2.2057
18431TIP3   OH276707   2.764   1.967   0.326 -0.1014  0.8658 -0.3928
18431TIP3    H176708   2.695   2.003   0.382 -1.5063 -0.4788 -1.1899
18431TIP3    H276709   2.752   2.012   0.242  0.6445  1.3417 -0.2528
18432TIP3   OH276710   3.211   5.543   5.662  0.0343  0.1070 -0.4260
18432TIP3    H176711   3.258   5.562   5.743 -0.1718 -1.2120  0.0366
18432TIP3    H276712   3.121   5.569   5.680  0.2392  1.0782 -0.7284
18433TIP3   OH276713   1.397   1.867   0.496 -0.1558  1.1147  0.4568
18433TIP3    H176714   1.454   1.937   0.466 -0.3126  1.3039  0.5967
18433TIP3    H276715   1.451   1.788   0.491  0.3917  1.4129  1.3897
18434TIP3   OH276716   2.572   3.553  16.892 -0.3565 -0.3637 -0.4466
18434TIP3    H176717   2.611   3.510  16.816 -1.8440 -0.4973 -1.1628
18434TIP3    H276718   2.602   3.503  16.967  1.1268 -0.2399 -0.9338
18435TIP3   OH276719   5.524   1.866   6.147  0.6595 -0.1989 -0.2325
18435TIP3    H176720   5.470   1.881   6.070 -0.3219  2.2496  0.8237
18435TIP3    H276721   5.612   1.890   6.119  0.4333  0.0053 -0.7838
18436TIP3   OH276722   1.134   3.364  11.880  0.1139  0.2873  0.0551
18436TIP3    H176723   1.078   3.352  11.957 -0.0076  0.6745  0.0296
18436TIP3    H276724   1.207   3.417  11.911 -0.1998  0.8849 -0.2119
18437TIP3   OH276725   2.400   0.107  15.471  0.0739 -0.8649  0.8093
18437TIP3    H176726   2.437   0.082  15.386 -0.9237 -1.0577  0.4172
18437TIP3    H276727   2.348   0.185  15.453  2.0611  0.8041  1.7829
18438TIP3   OH276728   1.194   5.527  14.347 -0.2047  0.2375  1.2302
18438TIP3    H176729   1.232   5.491  14.267 -0.9579 -0.0177  0.9773
18438TIP3    H276730   1.099   5.514  14.337 -0.3973  1.1468  1.6969
18439TIP3   OH276731   2.947   2.735   5.223 -0.5507 -0.1024 -0.1375
18439TIP3    H176732   2.984   2.745   5.311  1.5316  0.6872 -1.0326
18439TIP3    H276733   2.994   2.660   5.186 -0.0519  0.6962 -1.1842
18440TIP3   OH276734   4.148   2.496  15.829  0.3552  0.5426 -0.2581
18440TIP3    H176735   4.239   2.527  15.827 -0.1902  2.2486 -0.5522
18440TIP3    H276736   4.155   2.401  15.834  2.1639  0.6688  0.5073
18441TIP3   OH276737   1.655   5.981  14.340  0.0532  0.5313  0.4229
18441TIP3    H176738   1.687   5.969  14.251 -0.4337  0.3287  0.2737
18441TIP3    H276739   1.601   6.060  14.336 -0.9057 -0.1169  0.2768
18442TIP3   OH276740   6.578   2.553   0.594  0.3525  0.2899 -0.0759
18442TIP3    H176741   6.552   2.477   0.542  0.9463 -0.7003  1.0543
18442TIP3    H276742   6.558   2.530   0.684  1.4021  1.0917  0.3908
18443TIP3   OH276743   1.408   3.593  11.434  0.0415 -1.0956  0.2335
18443TIP3    H176744   1.376   3.626  11.518 -2.1664 -0.2647 -0.8459
18443TIP3    H276745   1.365   3.509  11.424 -0.9968 -0.4732 -0.7426
18444TIP3   OH276746   6.073   6.698  17.178 -0.7110  0.1841  0.0061
18444TIP3    H176747   5.987   6.730  17.151 -1.1372 -1.1609 -0.3035
18444TIP3    H276748   6.071   6.604  17.158  0.8270  0.1286 -0.0063
18445TIP3   OH276749   4.148   6.364  14.535 -0.2467  0.3247  0.4238
18445TIP3    H176750   4.061   6.325  14.532 -0.3835  0.6052 -2.6624
18445TIP3    H276751   4.140   6.437  14.596 -2.1816  0.3269  0.2262
18446TIP3   OH276752   0.543   3.597  13.010 -0.1234 -0.9850 -0.1063
18446TIP3    H176753   0.539   3.615  12.916 -1.0517 -1.0439 -0.0829
18446TIP3    H276754   0.566   3.504  13.015 -1.0078 -1.2182 -0.2891
18447TIP3   OH276755   5.293   0.967  16.597 -0.2955 -0.1095  0.4039
18447TIP3    H176756   5.306   1.001  16.509  0.3955  0.5686  0.7628
18447TIP3    H276757   5.375   0.922  16.617 -1.2416 -2.2025 -0.1310
18448TIP3   OH276758   6.538   0.367   5.755 -0.0079  0.2683  0.3185
18448TIP3    H176759   6.531   0.337   5.845 -0.3520 -0.8328 -0.0600
18448TIP3    H276760   6.448   0.365   5.722  0.0524  1.0809  0.0700
18449TIP3   OH276761   1.692   0.922  15.399  0.5851 -0.0170 -0.2242
18449TIP3    H176762   1.651   0.837  15.419  1.0474  0.1874  1.7431
18449TIP3    H276763   1.642   0.955  15.324 -3.9128  0.8578  2.7469
18450TIP3   OH276764   0.142   1.382   5.998  0.0476  0.7952 -0.5958
18450TIP3    H176765   0.232   1.383   6.029 -0.0562 -1.7787  0.0500
18450TIP3    H276766   0.141   1.315   5.929 -1.7080 -0.8099  0.8562
18451TIP3   OH276767   4.929   5.323   4.370 -0.5379 -0.6668 -0.8201
18451TIP3    H176768   4.943   5.297   4.461 -0.4012  0.4782 -0.4936
18451TIP3    H276769   4.992   5.271   4.320  1.5799  0.8387  0.0844
18452TIP3   OH276770   4.961   4.836   2.108  0.5176 -0.0103  0.5280
18452TIP3    H176771   4.884   4.888   2.133  1.0675  0.3643  1.4753
18452TIP3    H276772   4.924   4.756   2.070 -0.3521 -0.0888  1.4987
18453TIP3   OH276773   3.245   4.381   1.477  0.2361 -0.3815 -0.1763
18453TIP3    H176774   3.209   4.299   1.444  0.1894  0.3498 -2.0686
18453TIP3    H276775   3.305   4.355   1.547 -1.8240 -1.8021  1.1755
18454TIP3   OH276776   5.242   4.160  15.855 -0.1448 -0.1469 -0.1636
18454TIP3    H176777   5.166   4.166  15.912  0.9435  1.3178  1.2564
18454TIP3    H276778   5.281   4.248  15.858  1.4895 -0.7940 -0.9437
18455TIP3   OH276779   6.781   5.893  12.083 -0.0538 -0.3860  0.1844
18455TIP3    H176780   6.698   5.921  12.122  1.3176  0.3857  2.7690
18455TIP3    H276781   6.755   5.830  12.015 -2.7447  0.0584  0.6717
18456TIP3   OH276782   1.122   0.345  11.936 -0.1148  0.1162  0.3925
18456TIP3    H176783   1.080   0.379  12.015 -0.8833 -0.8687  0.4202
18456TIP3    H276784   1.115   0.417  11.873 -0.5189  0.4945  0.8557
18457TIP3   OH276785   3.652   1.377  13.202  0.5096 -0.2148 -0.2053
18457TIP3    H176786   3.632   1.471  13.205  1.2331 -0.0793  0.6450
18457TIP3    H276787   3.572   1.337  13.168  0.4572  0.7763 -1.3244
18458TIP3   OH276788   2.308   6.693  17.110  0.0832  0.1286 -0.4028
18458TIP3    H176789   2.309   6.674  17.204 -0.4118  1.0928 -0.1854
18458TIP3    H276790   2.261   6.619  17.071  4.2651 -2.8322 -0.5600
18459TIP3   OH276791   0.436   4.555  15.755  0.2824 -0.4258 -0.7563
18459TIP3    H176792   0.398   4.495  15.819 -1.0041  1.1591  0.0335
18459TIP3    H276793   0.478   4.622  15.808 -1.0411  1.0659 -1.5318
18460TIP3   OH276794   3.039   3.229  15.581 -0.1724  0.0799  0.5543
18460TIP3    H176795   2.950   3.194  15.589  0.7943 -2.5229  0.7789
18460TIP3    H276796   3.054   3.233  15.487  0.2148 -1.6253  0.5174
18461TIP3   OH276797   6.490   3.065  15.530  0.2518  0.0466  0.0622
18461TIP3    H176798   6.434   2.989  15.542 -2.0197  0.5061 -4.8386
18461TIP3    H276799   6.431   3.140  15.535  0.8383  0.7812 -2.3408
18462TIP3   OH276800   5.124   5.596   3.494  0.1308  0.0730  0.5604
18462TIP3    H176801   5.035   5.600   3.459  0.2934  0.3749  0.1791
18462TIP3    H276802   5.172   5.542   3.431 -0.1975 -1.6487  1.6881
18463TIP3   OH276803   0.027   0.668  12.403 -0.0449  0.0669 -0.2549
18463TIP3    H176804   0.084   0.740  12.377 -0.5343  0.2308 -0.8956
18463TIP3    H276805   0.069   0.631  12.480  1.4616 -0.4233 -1.2600
18464TIP3   OH276806   6.166   3.394  13.175  0.6652 -0.1388  0.5063
18464TIP3    H176807   6.120   3.348  13.246  1.2837 -0.4272  0.7200
18464TIP3    H276808   6.096   3.437  13.126 -0.1637 -2.8234 -0.8688
18465TIP3   OH276809   0.347   1.554   3.440 -0.2327 -0.2711 -0.2396
18465TIP3    H176810   0.255   1.534   3.421 -0.2541  0.5606 -1.0458
18465TIP3    H276811   0.356   1.536   3.534 -1.1341 -0.6538 -0.2140
18466TIP3   OH276812   2.515   2.179   2.389  0.7492  0.0003 -0.0726
18466TIP3    H176813   2.466   2.110   2.343  1.0363  0.2008 -0.6880
18466TIP3    H276814   2.560   2.226   2.320  2.1053 -0.4007  0.5138
18467TIP3   OH276815   0.661   0.308   3.342  0.0430  0.2414 -0.1136
18467TIP3    H176816   0.665   0.290   3.248  1.2384  0.4891 -0.1324
18467TIP3    H276817   0.608   0.388   3.348 -1.4417 -0.6776 -0.4097
18468TIP3   OH276818   6.008   5.299  16.594 -0.1501 -0.2219 -0.2189
18468TIP3    H176819   6.034   5.209  16.612 -1.4115 -0.2254  1.9563
18468TIP3    H276820   5.920   5.306  16.633  0.4851  2.3084  0.9308
18469TIP3   OH276821   6.128   3.580  11.213 -0.3897 -0.2420 -0.2126
18469TIP3    H176822   6.120   3.663  11.260 -0.1376  0.9130 -2.1200
18469TIP3    H276823   6.202   3.593  11.153 -1.6874 -1.0395 -2.0849
18470TIP3   OH276824   5.638   0.109  15.817  0.1520 -0.6563 -0.4793
18470TIP3    H176825   5.635   0.194  15.772 -2.2550 -0.2908  0.2069
18470TIP3    H276826   5.720   0.069  15.788  1.9002  2.2997 -0.0708
18471TIP3   OH276827   0.617   0.993   5.139  0.1023 -0.2002 -0.1713
18471TIP3    H176828   0.546   1.043   5.180  0.3286 -0.4925  0.5893
18471TIP3    H276829   0.671   0.963   5.212  0.3781 -0.9470 -0.6678
18472TIP3   OH276830   0.944   0.673  13.836  0.1371  0.2049 -0.4894
18472TIP3    H176831   1.036   0.699  13.829 -0.0589  0.9949 -0.3210
18472TIP3    H276832   0.904   0.744  13.887 -0.3353 -0.7098  0.4414
18473TIP3   OH276833   0.031   4.388   1.675 -0.6994  0.1066  0.5362
18473TIP3    H176834   0.027   4.372   1.581  0.3607 -1.5472  0.7266
18473TIP3    H276835   0.096   4.325   1.707 -1.3952  0.3002  2.4413
18474TIP3   OH276836   0.887   4.781  13.362  1.0143  0.1751  0.0097
18474TIP3    H176837   0.879   4.871  13.392 -0.2822  0.6577 -1.6340
18474TIP3    H276838   0.807   4.738  13.393  2.5407 -1.0460  2.5866
18475TIP3   OH276839   2.049   1.888  14.012 -0.4146  0.3829  0.0108
18475TIP3    H176840   1.981   1.951  13.990 -0.9687 -0.2385 -0.1008
18475TIP3    H276841   2.131   1.930  13.986 -0.6602  1.5212  0.9823
18476TIP3   OH276842   6.580   4.846  15.109 -0.4870  0.0707 -0.1492
18476TIP3    H176843   6.605   4.873  15.197 -1.0774 -0.3148  0.1448
18476TIP3    H276844   6.558   4.928  15.064 -1.8386  0.1443  0.5941
18477TIP3   OH276845   1.662   1.168   0.051 -0.0147  0.2473  0.5191
18477TIP3    H176846   1.665   1.114  -0.028  0.8354  1.7842 -0.5355
18477TIP3    H276847   1.726   1.127   0.110  2.0746  1.1384 -1.0061
18478TIP3   OH276848   2.247   1.538   4.892  0.4630  0.9193  0.5386
18478TIP3    H176849   2.301   1.513   4.817 -1.2533  0.4850 -0.6079
18478TIP3    H276850   2.242   1.458   4.945  0.0022  0.6059  0.0368
18479TIP3   OH276851   0.349   2.154   4.708 -0.2469 -0.8117  0.0085
18479TIP3    H176852   0.419   2.120   4.653 -0.2751 -1.7283  0.5187
18479TIP3    H276853   0.371   2.247   4.721  1.0216 -1.1545  0.4084
18480TIP3   OH276854   1.063   1.218   2.493 -0.9313  0.1265  0.3441
18480TIP3    H176855   1.085   1.267   2.573 -0.4456  1.5866 -0.6385
18480TIP3    H276856   1.135   1.238   2.433 -1.1129 -1.2430 -0.3476
18481TIP3   OH276857   4.336   3.926   3.235 -0.3869  0.6421  0.5969
18481TIP3    H176858   4.368   3.959   3.319  0.2889 -0.8449  0.9495
18481TIP3    H276859   4.265   3.986   3.212 -0.2529  1.3828  1.9767
18482TIP3   OH276860   5.523   5.904   0.831 -0.3316 -0.3719 -0.1385
18482TIP3    H176861   5.568   5.830   0.789  0.1424 -0.8142  1.0990
18482TIP3    H276862   5.439   5.910   0.784  0.3039 -0.6055 -1.3630
18483TIP3   OH276863   6.688   2.116  14.533  0.1055  0.2488  0.0617
18483TIP3    H176864   6.735   2.103  14.616  1.7117 -0.3607 -0.8989
18483TIP3    H276865   6.613   2.057  14.539  0.5645 -0.2910  0.8250
18484TIP3   OH276866   5.412   5.325   3.965  0.0551  0.4414  0.1907
18484TIP3    H176867   5.463   5.378   4.027 -0.6640  0.3465  0.8786
18484TIP3    H276868   5.395   5.384   3.891  1.3911  0.3859 -0.1873
18485TIP3   OH276869   3.792   2.559  13.640 -0.1000 -0.3536 -0.0465
18485TIP3    H176870   3.722   2.514  13.594  0.0896 -0.9925  0.2692
18485TIP3    H276871   3.786   2.650  13.612 -0.4063 -0.6021 -0.8033
18486TIP3   OH276872   4.313   5.536  16.421  0.0433  0.6521  0.2616
18486TIP3    H176873   4.376   5.595  16.380 -0.8073  1.4016  0.0034
18486TIP3    H276874   4.232   5.587  16.427 -0.8034 -0.5844 -0.2216
18487TIP3   OH276875   0.074   0.162   3.288  0.2568  0.3001  0.3590
18487TIP3    H176876   0.037   0.232   3.343 -1.5066 -0.3782  0.0756
18487TIP3    H276877   0.049   0.081   3.332  1.3345 -0.2032  0.0788
18488TIP3   OH276878   4.278   6.382   0.732 -0.0231  0.0551 -0.0194
18488TIP3    H176879   4.272   6.332   0.651 -1.3093  0.2976 -0.0947
18488TIP3    H276880   4.221   6.458   0.718  1.0176  0.9647  0.5140
18489TIP3   OH276881   2.533   4.163  16.775 -0.0236 -0.4107 -0.0056
18489TIP3    H176882   2.588   4.117  16.712  0.1135 -0.7259  0.3353
18489TIP3    H276883   2.450   4.176  16.730  0.2104 -0.2610 -0.3951
18490TIP3   OH276884   3.304   3.973  14.222  0.0440  0.3251 -0.3850
18490TIP3    H176885   3.304   3.950  14.129  2.0999 -0.2899 -0.2863
18490TIP3    H276886   3.222   3.938  14.255  1.2189 -3.5742 -1.0727
18491TIP3   OH276887   3.492   5.148   6.458 -0.5562 -0.2816  0.4814
18491TIP3    H176888   3.403   5.115   6.467 -0.4514 -0.6399  0.2410
18491TIP3    H276889   3.547   5.077   6.492 -0.3423 -0.2395  0.2233
18492TIP3   OH276890   0.139   5.200   5.294  0.4295 -0.2009 -0.0088
18492TIP3    H176891   0.083   5.178   5.369  1.0736 -0.3627  0.4388
18492TIP3    H276892   0.186   5.278   5.321  0.7050 -0.2902 -0.2206
18493TIP3   OH276893   0.304   5.894   2.814  0.1758  0.2148  1.4093
18493TIP3    H176894   0.342   5.806   2.819 -1.9839 -0.9570 -0.9511
18493TIP3    H276895   0.362   5.942   2.754 -1.1422 -1.1266 -1.0637
18494TIP3   OH276896   3.575   0.109   4.859 -0.4020 -0.3145  0.4378
18494TIP3    H176897   3.620   0.190   4.881 -1.1173  0.8924 -2.1548
18494TIP3    H276898   3.637   0.040   4.881  0.7338  0.9888  1.4882
18495TIP3   OH276899   6.547   3.849  13.378 -0.4968 -0.2550  0.0378
18495TIP3    H176900   6.618   3.812  13.430 -1.2143 -1.6856  0.0472
18495TIP3    H276901   6.553   3.944  13.392  2.3365 -0.1829 -1.1556
18496TIP3   OH276902   1.432   4.118  15.024  0.0443  0.0053  0.1039
18496TIP3    H176903   1.351   4.115  15.075 -0.5884  1.2370 -0.7662
18496TIP3    H276904   1.447   4.027  14.998 -0.2625 -0.4540  1.4719
18497TIP3   OH276905   2.586   0.141  11.215 -0.4491 -0.3949  0.0693
18497TIP3    H176906   2.655   0.205  11.201  0.0665 -0.4698  1.9323
18497TIP3    H276907   2.532   0.145  11.136  0.1665  1.5730 -0.2898
18498TIP3   OH276908   5.248   4.169   5.104 -0.4983  0.1722  0.1846
18498TIP3    H176909   5.308   4.117   5.051 -1.4473 -0.7196 -0.0398
18498TIP3    H276910   5.198   4.220   5.041  0.4191  1.3886  0.4042
18499TIP3   OH276911   3.840   4.213   0.190  0.2825 -0.1337 -0.3768
18499TIP3    H176912   3.852   4.304   0.163  0.7090  0.0972  0.5574
18499TIP3    H276913   3.746   4.205   0.206 -0.3026 -0.7358 -3.4347
18500TIP3   OH276914   0.258   5.024  17.028  0.0033  0.1245  0.1813
18500TIP3    H176915   0.338   4.982  16.996 -0.9259 -1.7341  0.2046
18500TIP3    H276916   0.191   5.000  16.965 -0.1037  4.0332 -1.4957
18501TIP3   OH276917   3.398   6.225  11.362 -0.3180  0.4734 -0.3269
18501TIP3    H176918   3.379   6.256  11.274 -0.4526  0.3107 -0.3569
18501TIP3    H276919   3.351   6.141  11.368  0.8982 -0.2590 -0.6261
18502TIP3   OH276920   6.660   1.715   3.329  0.2728  0.2870  0.0479
18502TIP3    H176921   6.735   1.660   3.306 -0.7100 -0.7151 -0.8697
18502TIP3    H276922   6.680   1.801   3.291  0.5074 -0.2565 -1.0946
18503TIP3   OH276923   1.465   5.064   5.498  0.6761  0.0263 -0.6143
18503TIP3    H176924   1.503   5.133   5.444  2.4278 -0.6102 -0.2622
18503TIP3    H276925   1.539   5.026   5.544 -0.3680 -1.4878 -0.0971
18504TIP3   OH276926   5.611   0.048   6.046  0.4271  0.3821  0.5309
18504TIP3    H176927   5.599  -0.043   6.073  1.1834  0.6775  1.9242
18504TIP3    H276928   5.523   0.076   6.018  0.1643 -0.7247  0.1983
18505TIP3   OH276929   3.602   2.394  14.742 -0.4720 -0.3581 -0.1185
18505TIP3    H176930   3.530   2.333  14.754 -1.1629  0.4804  0.0962
18505TIP3    H276931   3.656   2.384  14.820  0.8278 -2.4840 -1.1872
18506TIP3   OH276932   6.414   6.214  12.194 -0.6530  0.2904  0.3622
18506TIP3    H176933   6.376   6.163  12.123  1.7429 -0.6904 -0.2990
18506TIP3    H276934   6.450   6.292  12.152  1.4363 -0.6459  0.2936
18507TIP3   OH276935   1.825   5.413  12.773 -0.1188  0.5498  0.3045
18507TIP3    H176936   1.761   5.451  12.712 -0.5520 -0.6073  0.0057
18507TIP3    H276937   1.821   5.319  12.756  1.3109  0.4051  0.6404
18508TIP3   OH276938   1.692   4.894  15.593 -0.6167  0.3702 -0.2353
18508TIP3    H176939   1.640   4.954  15.540  0.9892  2.7544  0.6962
18508TIP3    H276940   1.684   4.927  15.682  0.6664 -0.5417  0.2540
18509TIP3   OH276941   3.448   3.601  15.708  0.0432 -0.6491 -0.1328
18509TIP3    H176942   3.533   3.625  15.744  0.7692  0.2608 -2.2916
18509TIP3    H276943   3.423   3.677  15.654 -2.1352 -0.8966  0.4499
18510TIP3   OH276944   0.988   4.912   2.637  0.6056 -0.1800  0.0969
18510TIP3    H176945   0.994   4.899   2.732  0.4042 -2.8898 -0.1699
18510TIP3    H276946   0.910   4.966   2.625  0.3218 -0.2384  1.4568
18511TIP3   OH276947   5.742   5.850   1.229 -0.7225 -0.0516  0.0607
18511TIP3    H176948   5.816   5.799   1.263 -0.7072 -0.9185 -1.2180
18511TIP3    H276949   5.737   5.926   1.287  0.4640 -0.5464  0.8480
18512TIP3   OH276950   1.615   5.843  10.555  0.3713  0.1697  0.3157
18512TIP3    H176951   1.694   5.811  10.597 -0.3625 -1.0353  0.8439
18512TIP3    H276952   1.551   5.773  10.567 -1.2901  1.7640  1.3748
18513TIP3   OH276953   4.799   4.228  12.912  0.8220  0.0464 -0.3517
18513TIP3    H176954   4.809   4.239  13.006  1.1600  1.6638 -0.5462
18513TIP3    H276955   4.809   4.316  12.876 -0.4739 -0.3413 -1.8063
18514TIP3   OH276956   1.409   2.669   2.395 -0.5036  1.0978  0.1976
18514TIP3    H176957   1.450   2.754   2.383 -0.5372  1.4329  2.0958
18514TIP3    H276958   1.468   2.608   2.350 -0.7403  2.1329 -1.6085
18515TIP3   OH276959   5.834   0.494   1.908  0.5496 -0.0162  0.1957
18515TIP3    H176960   5.829   0.427   1.840 -0.4291 -1.0864  1.2845
18515TIP3    H276961   5.885   0.452   1.979 -0.2891  0.2757  0.9867
18516TIP3   OH276962   6.152   6.278  16.473  0.0100 -0.4625 -0.5506
18516TIP3    H176963   6.173   6.366  16.442  0.4142 -0.4702 -0.3086
18516TIP3    H276964   6.155   6.285  16.569  2.3141 -1.2444 -0.5011
18517TIP3   OH276965   0.443   4.638  13.742  0.1192 -0.0654 -0.0657
18517TIP3    H176966   0.487   4.569  13.692  0.4963  0.8551 -1.0226
18517TIP3    H276967   0.368   4.594  13.782  0.5322 -1.0981 -0.3942
18518TIP3   OH276968   3.007   1.896  13.359  0.0068  0.4089  0.6177
18518TIP3    H176969   3.100   1.914  13.345 -0.0330  0.0673 -0.1219
18518TIP3    H276970   2.968   1.982  13.374  0.2689  0.6668 -0.1467
18519TIP3   OH276971   3.398   2.583   4.905 -0.0041  0.1288  0.3466
18519TIP3    H176972   3.371   2.540   4.824 -1.7245 -0.1496  1.0307
18519TIP3    H276973   3.326   2.642   4.926  0.2734 -0.0292  1.8272
18520TIP3   OH276974   2.225   4.739   4.400 -0.0670  0.9359 -0.2884
18520TIP3    H176975   2.269   4.807   4.451 -0.1051  1.4185 -0.8927
18520TIP3    H276976   2.132   4.760   4.406 -0.1737  0.3469  0.3605
18521TIP3   OH276977   2.264   1.026   3.188 -0.7475 -0.2103 -0.1003
18521TIP3    H176978   2.170   1.033   3.168 -0.6122  1.3742 -0.3078
18521TIP3    H276979   2.302   1.104   3.149  0.3400  0.2969  1.8750
18522TIP3   OH276980   6.658   1.358  11.620  0.0145  0.0600 -0.4872
18522TIP3    H176981   6.592   1.295  11.648  0.6801 -0.0710  0.8786
18522TIP3    H276982   6.611   1.418  11.561 -1.2295 -0.2148  0.1908
18523TIP3   OH276983   5.620   5.437  12.931 -0.2076  0.0745 -0.3670
18523TIP3    H176984   5.636   5.469  12.842 -1.9993 -0.5689 -0.9438
18523TIP3    H276985   5.672   5.357  12.937  0.1296  0.2593 -0.7344
18524TIP3   OH276986   2.557   0.313   4.276  0.0941  0.0225  0.2938
18524TIP3    H176987   2.621   0.242   4.265 -1.7029 -1.4937 -0.9003
18524TIP3    H276988   2.474   0.275   4.248 -0.9718  2.5884 -0.2881
18525TIP3   OH276989   0.181   6.253  13.747 -0.2114  0.3055  0.0651
18525TIP3    H176990   0.271   6.273  13.772 -0.6474  2.0008  0.3676
18525TIP3    H276991   0.142   6.211  13.824  0.2348 -0.2090  0.0151
18526TIP3   OH276992   6.184   5.955  11.537 -0.3210  0.4358 -0.1294
18526TIP3    H176993   6.095   5.966  11.570 -0.8871 -0.7466 -1.1633
18526TIP3    H276994   6.237   6.015  11.589 -1.4148 -0.1810  1.7894
18527TIP3   OH276995   3.038   0.988   5.950  0.6524  0.3425  0.4501
18527TIP3    H176996   3.105   0.974   6.017  1.8144 -2.1570 -1.0864
18527TIP3    H276997   2.963   1.023   5.998  1.4515 -1.2009  3.0573
18528TIP3   OH276998   2.701   0.835  11.719 -0.1651 -0.6640 -0.4197
18528TIP3    H176999   2.708   0.740  11.713 -0.8902 -0.7126 -0.6093
18528TIP3    H277000   2.660   0.861  11.636 -0.1248 -0.2023 -0.2952
18529TIP3   OH277001   0.924   6.538   1.172  0.0908 -0.0448 -0.5741
18529TIP3    H177002   0.998   6.488   1.207  0.3603  0.1131 -0.9190
18529TIP3    H277003   0.888   6.483   1.103  1.0914  0.7053 -1.7445
18530TIP3   OH277004   0.350   4.005   2.228 -0.3483 -0.3422  0.3074
18530TIP3    H177005   0.264   4.040   2.252 -0.7242 -1.5446  0.7943
18530TIP3    H277006   0.401   4.082   2.203 -1.9383  0.2816 -1.1921
18531TIP3   OH277007   3.131   4.116  11.892  0.1056 -0.0467 -0.3955
18531TIP3    H177008   3.146   4.091  11.984  0.4780  1.3552 -0.0475
18531TIP3    H277009   3.042   4.087  11.874 -1.1534  2.3102  1.4075
18532TIP3   OH277010   2.097   1.527  11.457 -0.1020  0.1920 -0.4086
18532TIP3    H177011   2.143   1.445  11.477 -0.9456 -0.0931  0.4495
18532TIP3    H277012   2.167   1.591  11.446  0.5197 -0.2446  0.8038
18533TIP3   OH277013   0.725   3.405   2.244  0.1130  0.4104 -0.1221
18533TIP3    H177014   0.684   3.322   2.219 -1.7534  1.9149 -2.4986
18533TIP3    H277015   0.654   3.454   2.286  1.1538  0.8920  1.1118
18534TIP3   OH277016   4.130   1.983   0.920 -0.6825  0.0832  0.4281
18534TIP3    H177017   4.036   1.988   0.902 -0.6446  2.0382  0.5435
18534TIP3    H277018   4.163   1.918   0.858 -1.8969  0.4018 -0.5971
18535TIP3   OH277019   6.384   1.333  12.990  0.1216 -0.1909  0.4396
18535TIP3    H177020   6.329   1.408  12.967  0.4485  0.0752  0.5127
18535TIP3    H277021   6.466   1.372  13.021  1.1181 -0.5904 -1.5348
18536TIP3   OH277022   0.856   6.457  12.145  0.1275  0.0079 -0.1415
18536TIP3    H177023   0.926   6.397  12.171  1.5984  1.4490 -0.5906
18536TIP3    H277024   0.784   6.439  12.206  1.3060 -0.7502  1.0677
18537TIP3   OH277025   4.781   6.562   5.723  0.0377  0.4311 -0.3235
18537TIP3    H177026   4.816   6.505   5.654  0.0888  1.1463 -0.9096
18537TIP3    H277027   4.837   6.639   5.720  0.1290  0.4064  0.6394
18538TIP3   OH277028   1.381   5.103   3.152  0.3146  0.0890 -0.4428
18538TIP3    H177029   1.448   5.167   3.128  0.1025  0.9317  1.0751
18538TIP3    H277030   1.420   5.018   3.130  1.7908  0.5744  0.1663
18539TIP3   OH277031   3.385   0.034   5.050 -0.1276  0.0391  0.1847
18539TIP3    H177032   3.432   0.080   4.980 -0.6001  2.7521  1.4946
18539TIP3    H277033   3.300   0.078   5.054 -0.2748 -0.3288  2.1587
18540TIP3   OH277034   4.459   3.050  15.042 -0.1745  0.2998 -0.3180
18540TIP3    H177035   4.451   3.124  14.983 -0.2982  1.5401  1.1954
18540TIP3    H277036   4.392   3.065  15.109 -0.1836 -1.1604  0.0435
18541TIP3   OH277037   4.000   1.258   6.542  0.8948  0.0610  0.6504
18541TIP3    H177038   4.061   1.211   6.484 -1.2028 -0.4614 -1.2709
18541TIP3    H277039   4.001   1.208   6.623  0.8227 -1.7072 -0.3849
18542TIP3   OH277040   6.514   0.087   4.341 -0.1506  0.1735 -0.1418
18542TIP3    H177041   6.576   0.013   4.342 -0.3625 -0.0193 -0.9018
18542TIP3    H277042   6.478   0.089   4.430 -0.7170 -1.1351 -0.3189
18543TIP3   OH277043   5.129   0.591   4.513 -0.4469 -0.1186 -0.0065
18543TIP3    H177044   5.100   0.675   4.550 -1.2424  0.2704 -1.4008
18543TIP3    H277045   5.056   0.564   4.457  1.0033 -0.1844 -1.9808
18544TIP3   OH277046   1.479   3.322   3.149  0.3916  0.4854  0.7019
18544TIP3    H177047   1.420   3.343   3.221  1.8622  0.5672  1.9170
18544TIP3    H277048   1.536   3.398   3.141  0.8080  0.1131  0.0100
18545TIP3   OH277049   2.756   4.996  12.327  0.3652  0.0052 -0.1853
18545TIP3    H177050   2.740   5.025  12.416  3.2381  1.3750 -0.0208
18545TIP3    H277051   2.775   4.903  12.335 -2.0803 -0.5509  0.1741
18546TIP3   OH277052   5.376   3.959   0.422 -0.2260 -0.3018  0.4222
18546TIP3    H177053   5.316   3.897   0.379  0.9188 -0.8301 -0.4673
18546TIP3    H277054   5.462   3.936   0.388  0.3778  1.0314  0.9922
18547TIP3   OH277055   3.606   1.094   5.405 -0.3738 -0.4729  0.0016
18547TIP3    H177056   3.614   1.002   5.428  0.4281 -0.3623  0.1841
18547TIP3    H277057   3.516   1.116   5.427 -0.3024 -0.9732  0.8453
18548TIP3   OH277058   1.211   0.176   4.424 -0.4488 -0.2354 -0.1002
18548TIP3    H177059   1.305   0.174   4.407 -0.6142 -1.2941 -1.0017
18548TIP3    H277060   1.197   0.258   4.472  0.8462  0.2063 -0.4409
18549TIP3   OH277061   5.098   0.538  11.841 -0.4956  0.1789  0.8488
18549TIP3    H177062   5.125   0.449  11.865 -1.2809 -0.4701 -0.5230
18549TIP3    H277063   5.018   0.553  11.891 -0.0315  0.3630  1.5463
18550TIP3   OH277064   3.710   5.584   4.543  0.3987 -0.1267  0.2226
18550TIP3    H177065   3.727   5.520   4.612 -0.0888  0.1430  0.5993
18550TIP3    H277066   3.615   5.581   4.530  0.3963  0.3627  0.0896
18551TIP3   OH277067   1.648   4.636  11.885  0.0336  0.1050 -0.3089
18551TIP3    H177068   1.665   4.562  11.827 -0.1429 -1.4909  1.5779
18551TIP3    H277069   1.609   4.598  11.963 -0.7244  2.2921  0.4765
18552TIP3   OH277070   0.928   1.348   0.750  0.0573  0.3833 -0.4672
18552TIP3    H177071   0.951   1.434   0.784 -0.7608 -0.0074  1.2261
18552TIP3    H277072   0.997   1.290   0.783 -0.0154  0.2071 -0.6235
18553TIP3   OH277073   5.272   0.984   2.405 -0.1991  0.1183 -0.1061
18553TIP3    H177074   5.230   0.943   2.481 -1.7855  0.6440 -0.6514
18553TIP3    H277075   5.277   0.914   2.340 -0.8393  0.1895 -0.2471
18554TIP3   OH277076   0.483   3.679  10.701 -0.3906 -0.0339  0.1331
18554TIP3    H177077   0.389   3.673  10.719 -0.6875  0.4284 -1.1718
18554TIP3    H277078   0.506   3.593  10.666 -0.4083 -0.0204  0.0888
18555TIP3   OH277079   3.336   0.007  14.591 -0.5008 -0.0243 -0.0707
18555TIP3    H177080   3.272   0.066  14.550  1.2892  1.2551 -1.1696
18555TIP3    H277081   3.304  -0.004  14.681 -1.8141  1.2459 -0.3398
18556TIP3   OH277082   6.648   3.888   0.336 -0.4822 -0.2834 -0.0911
18556TIP3    H177083   6.705   3.941   0.392 -0.7641  0.7155 -0.7310
18556TIP3    H277084   6.685   3.897   0.248 -1.9779  0.9509 -0.6507
18557TIP3   OH277085   2.514   1.561   1.882  0.2737 -0.1621  0.1334
18557TIP3    H177086   2.445   1.618   1.914 -0.1701  0.6817 -2.1016
18557TIP3    H277087   2.468   1.485   1.846  0.4421  0.3974 -1.3521
18558TIP3   OH277088   1.134   4.144  12.072  0.1263 -0.4513  0.4023
18558TIP3    H177089   1.133   4.240  12.077  0.0673 -0.4811  1.1450
18558TIP3    H277090   1.045   4.120  12.043  0.4998 -0.2430 -0.9894
18559TIP3   OH277091   3.581   5.383   6.546 -0.0273 -0.1710  0.5803
18559TIP3    H177092   3.548   5.374   6.635 -0.6980  3.3176  0.8362
18559TIP3    H277093   3.560   5.300   6.504 -2.3811 -0.8561  2.8430
18560TIP3   OH277094   3.259   5.448  14.666 -0.8990 -0.4820 -0.2519
18560TIP3    H177095   3.349   5.447  14.700 -1.6765 -0.5394  1.9395
18560TIP3    H277096   3.264   5.504  14.588  1.3448 -1.8377 -1.2153
18561TIP3   OH277097   3.136   1.000  16.757  0.2255  0.6875 -0.5708
18561TIP3    H177098   3.217   0.986  16.708 -0.0368 -0.5280 -0.6941
18561TIP3    H277099   3.066   0.974  16.697 -0.2429  1.3626 -0.3370
18562TIP3   OH277100   5.929   6.635   0.662  0.2342 -0.8535 -0.1360
18562TIP3    H177101   5.923   6.546   0.699 -0.0950 -1.1849 -0.9629
18562TIP3    H277102   6.009   6.633   0.610  0.9403 -0.2499  0.8962
18563TIP3   OH277103   2.651   4.849   5.095 -0.5632 -0.0577  0.1825
18563TIP3    H177104   2.556   4.851   5.103 -0.9039 -2.5148 -1.7588
18563TIP3    H277105   2.679   4.939   5.107 -3.1660  0.7959  0.3825
18564TIP3   OH277106   1.795   0.427   1.321 -0.2238  0.1582 -0.4883
18564TIP3    H177107   1.863   0.403   1.384  0.5161  3.3014  0.0707
18564TIP3    H277108   1.810   0.369   1.246  1.1547 -1.2197  0.7700
18565TIP3   OH277109   4.489   0.641  11.161 -0.2197 -0.0891  0.0544
18565TIP3    H177110   4.425   0.596  11.105  1.4107 -5.3443  1.7689
18565TIP3    H277111   4.565   0.655  11.105 -0.2049 -1.0951 -0.2014
18566TIP3   OH277112   3.542   0.689  12.156 -0.6204  0.3903  0.2653
18566TIP3    H177113   3.633   0.659  12.149 -0.5491  0.1421  1.8095
18566TIP3    H277114   3.510   0.689  12.066  1.5421  2.5670 -0.6344
18567TIP3   OH277115   6.540   1.015  15.276 -0.4148 -0.2762 -0.3869
18567TIP3    H177116   6.470   0.969  15.321 -0.8397 -1.1031 -1.8009
18567TIP3    H277117   6.528   1.107  15.298 -1.3322 -0.5205  0.1725
18568TIP3   OH277118   5.778   3.924   2.148 -0.1381 -0.1655  0.0819
18568TIP3    H177119   5.756   3.890   2.235  0.0109  0.2283  0.2795
18568TIP3    H277120   5.813   4.011   2.165 -0.5671  0.1121 -0.4129
18569TIP3   OH277121   3.580   2.953   2.872  0.2905 -0.0757 -0.2162
18569TIP3    H177122   3.555   2.934   2.782  2.7159  0.5162 -1.0865
18569TIP3    H277123   3.596   3.047   2.874 -0.4560  0.0475  1.0404
18570TIP3   OH277124   0.485   3.097  15.780  0.0990  0.7083  0.4732
18570TIP3    H177125   0.541   3.173  15.795  1.7583 -0.5334  0.9009
18570TIP3    H277126   0.532   3.025  15.821 -0.2760 -0.9836 -1.8938
18571TIP3   OH277127   4.734   3.271  16.597 -0.0569 -0.9008 -0.6372
18571TIP3    H177128   4.668   3.302  16.535  0.6637 -0.1712 -1.0634
18571TIP3    H277129   4.686   3.257  16.678 -0.6057  0.4255 -0.6997
18572TIP3   OH277130   2.861   5.241   1.113 -0.4324  0.0821  0.1892
18572TIP3    H177131   2.826   5.329   1.101 -0.6287  0.1181  0.9617
18572TIP3    H277132   2.948   5.244   1.073  0.1338  1.0381  1.4096
18573TIP3   OH277133   6.035   6.350   3.193 -0.1158  0.0573  0.2159
18573TIP3    H177134   6.131   6.347   3.185 -0.1988  1.2567 -2.2356
18573TIP3    H277135   6.019   6.415   3.261  0.8237  0.5499 -0.0168
18574TIP3   OH277136   2.492   5.641  14.046 -0.9096  0.4222 -0.1007
18574TIP3    H177137   2.554   5.685  13.988 -1.1304  0.8543 -0.0202
18574TIP3    H277138   2.475   5.557  14.005 -0.3103  0.3254 -0.1494
18575TIP3   OH277139   1.646   5.399   4.542 -0.0650 -0.3174  0.1350
18575TIP3    H177140   1.655   5.305   4.558  0.8384 -0.3230 -0.3459
18575TIP3    H277141   1.554   5.411   4.520 -0.6807 -0.7608  2.2448
18576TIP3   OH277142   2.956   5.200   3.362 -0.1143 -0.0697 -0.3067
18576TIP3    H177143   3.046   5.232   3.361 -0.4082  0.9127  0.9489
18576TIP3    H277144   2.963   5.106   3.376  0.6987  0.0874  0.3708
18577TIP3   OH277145   2.047   0.416   0.352  0.2892 -0.7321 -0.5441
18577TIP3    H177146   2.139   0.431   0.332  0.8251 -1.4814  1.2444
18577TIP3    H277147   2.023   0.488   0.410  0.1479 -1.3142  0.1290
18578TIP3   OH277148   3.110   5.951   5.255 -0.3964 -0.3216  0.0325
18578TIP3    H177149   3.102   5.862   5.289  0.9742 -0.1045  0.9785
18578TIP3    H277150   3.042   6.001   5.301  0.3109 -0.4055  1.1857
18579TIP3   OH277151   1.205   6.733  14.795  0.3155  0.0280  0.3164
18579TIP3    H177152   1.292   6.728  14.755 -0.3690  0.0790 -1.2968
18579TIP3    H277153   1.189   6.644  14.828  0.9079 -0.0330  0.4509
18580TIP3   OH277154   0.513   3.719   3.211 -0.0741 -0.8268  0.0079
18580TIP3    H177155   0.597   3.716   3.257  2.1378 -1.5916 -3.6857
18580TIP3    H277156   0.506   3.634   3.167 -1.2227  0.3116 -2.1914
18581TIP3   OH277157   5.201   6.764  15.869 -0.2411 -0.0062 -0.3932
18581TIP3    H177158   5.280   6.712  15.856  0.4226  0.2190  2.0683
18581TIP3    H277159   5.230   6.838  15.923 -1.7925  1.1267 -1.0262
18582TIP3   OH277160   6.342   5.447  13.986 -1.2578 -0.8839  0.2151
18582TIP3    H177161   6.409   5.512  13.965  0.3542 -2.0474  1.4973
18582TIP3    H277162   6.281   5.451  13.912 -1.0574  1.7947  0.0876
18583TIP3   OH277163   5.119   3.410  16.705  0.0988 -0.1113  0.3243
18583TIP3    H177164   5.063   3.409  16.782 -0.3378  0.4534  0.0240
18583TIP3    H277165   5.196   3.359  16.730 -0.9576 -1.7398  0.4290
18584TIP3   OH277166   6.338   4.712  11.066 -0.8714  0.2247 -0.2423
18584TIP3    H177167   6.429   4.716  11.096 -0.5211 -0.4580 -1.1871
18584TIP3    H277168   6.313   4.804  11.055 -0.6451  0.4524  1.0060
18585TIP3   OH277169   1.440   1.597  13.664 -0.0760  0.0106  0.3691
18585TIP3    H177170   1.530   1.630  13.659  0.5582 -1.7495 -0.5949
18585TIP3    H277171   1.432   1.537  13.590 -1.3067 -1.6295  1.7441
18586TIP3   OH277172   0.399   3.411   4.070  0.1531  0.5778 -0.6252
18586TIP3    H177173   0.437   3.471   4.135  0.1188  1.7722 -1.6570
18586TIP3    H277174   0.307   3.403   4.095  0.1642  0.9535 -0.4558
18587TIP3   OH277175   0.760   0.366  16.881 -0.6651  0.3869  0.3893
18587TIP3    H177176   0.731   0.360  16.972  1.3836  0.6495  1.0957
18587TIP3    H277177   0.728   0.285  16.840 -0.7563 -0.1975  1.5889
18588TIP3   OH277178   5.197   6.129   0.600  0.4159  0.0057  0.3695
18588TIP3    H177179   5.186   6.121   0.505  2.2296 -0.6982  0.1794
18588TIP3    H277180   5.249   6.209   0.611  0.1926  0.0960  0.7727
18589TIP3   OH277181   3.312   4.555  14.093 -0.2149  0.3041  0.0967
18589TIP3    H177182   3.337   4.605  14.171 -1.5764  0.5572  0.3901
18589TIP3    H277183   3.346   4.607  14.020  0.3266  0.5000  0.4821
18590TIP3   OH277184   0.761   4.587   0.366  0.1160 -0.4892 -0.5137
18590TIP3    H177185   0.825   4.648   0.403 -1.1171 -0.0179  0.9701
18590TIP3    H277186   0.791   4.501   0.394 -0.2041 -0.2188  0.7179
18591TIP3   OH277187   3.398   6.142  16.626 -0.1124 -0.5561  0.4362
18591TIP3    H177188   3.387   6.070  16.564 -0.9312  0.6601 -0.8908
18591TIP3    H277189   3.453   6.205  16.580 -1.8829  0.9942  0.3211
18592TIP3   OH277190   2.049   1.787  11.932 -0.6654  0.3678  0.2403
18592TIP3    H177191   2.071   1.798  11.839 -2.2474 -0.6389 -0.2928
18592TIP3    H277192   1.954   1.797  11.935 -0.8428 -1.2582  1.4703
18593TIP3   OH277193   4.537   2.552   4.912  0.1745  0.2886 -0.2842
18593TIP3    H177194   4.453   2.535   4.869 -0.2024  1.7423 -0.1808
18593TIP3    H277195   4.514   2.568   5.004  0.8601 -1.7661  0.2961
18594TIP3   OH277196   3.054   0.934   4.985 -0.0393  0.2757  0.2028
18594TIP3    H177197   3.140   0.974   4.966 -0.3216  0.9750  0.3527
18594TIP3    H277198   3.008   1.001   5.036 -0.9818  0.2489 -0.5950
18595TIP3   OH277199   5.605   4.602  10.881 -0.2656 -0.0472 -0.4481
18595TIP3    H177200   5.550   4.665  10.929  2.1597  1.6142  0.3225
18595TIP3    H277201   5.548   4.570  10.811 -2.2886  1.3647  0.4428
18596TIP3   OH277202   1.701   5.027  13.831  0.6831 -0.1223 -0.3558
18596TIP3    H177203   1.621   5.002  13.784  1.5078 -1.3249 -1.1765
18596TIP3    H277204   1.732   4.945  13.870  0.1925  0.7703  2.0953
18597TIP3   OH277205   0.691   1.731  14.169 -0.0946 -0.4460 -0.1285
18597TIP3    H177206   0.599   1.749  14.187  0.5208  2.7536  0.3633
18597TIP3    H277207   0.701   1.750  14.076  0.1919  0.0208 -0.0087
18598TIP3   OH277208   5.672   6.172   5.143 -0.3242 -0.2507  0.3576
18598TIP3    H177209   5.694   6.165   5.235  1.1758  0.5152  0.0930
18598TIP3    H277210   5.686   6.265   5.122 -2.5715  0.0120 -0.1954
18599TIP3   OH277211   5.214   2.880   0.637  0.3631  0.4489  0.0729
18599TIP3    H177212   5.281   2.948   0.629 -0.4370  1.1947 -0.3747
18599TIP3    H277213   5.250   2.819   0.703  1.6792  0.5814 -0.4873
18600TIP3   OH277214   5.712   4.865   1.967  0.9032  0.0060 -0.0817
18600TIP3    H177215   5.691   4.830   2.054  2.0085  0.9806  0.6085
18600TIP3    H277216   5.766   4.942   1.985  0.5098  0.6704 -1.6298
18601TIP3   OH277217   5.397   0.234   4.356 -0.5687  0.1628 -0.0494
18601TIP3    H177218   5.328   0.269   4.299  0.2315 -0.4483 -1.4428
18601TIP3    H277219   5.470   0.296   4.346  0.0723 -0.6826 -0.8179
18602TIP3   OH277220   0.005   4.591   4.201 -1.1823 -0.5084  0.4313
18602TIP3    H177221  -0.051   4.629   4.269 -0.2579  1.5495  0.1257
18602TIP3    H277222  -0.056   4.568   4.130 -1.6545  2.7414 -0.3654
18603TIP3   OH277223   5.934   3.367   0.222 -0.3532 -0.1558 -0.5643
18603TIP3    H177224   5.999   3.307   0.257 -0.9270  0.1870  1.1950
18603TIP3    H277225   5.866   3.310   0.185 -1.7808 -0.7721  2.6968
18604TIP3   OH277226   3.958   6.304  16.522 -0.1432 -0.6831 -0.2685
18604TIP3    H177227   3.968   6.342  16.435 -1.2501 -1.2495 -0.6650
18604TIP3    H277228   3.891   6.358  16.564 -1.0660 -1.5950 -0.5127
18605TIP3   OH277229   6.585   5.211  14.644 -0.2162  0.2835 -0.3828
18605TIP3    H177230   6.528   5.140  14.613 -0.7156 -0.3831  1.8775
18605TIP3    H277231   6.673   5.182  14.622 -0.5215 -0.3401 -0.8118
18606TIP3   OH277232   2.823   1.755  15.327 -0.2969 -0.2942  0.4959
18606TIP3    H177233   2.853   1.690  15.263  0.0345 -0.9051  1.2609
18606TIP3    H277234   2.789   1.703  15.400  1.2180  0.3652  1.7038
18607TIP3   OH277235   2.928   3.511  17.122 -0.3878  0.0985  0.5347
18607TIP3    H177236   2.888   3.464  17.049  0.4243 -0.0107  0.1460
18607TIP3    H277237   2.982   3.578  17.079 -2.3053  2.1075  1.0613
18608TIP3   OH277238   1.858   4.965  16.756  0.1391  0.1055  0.1537
18608TIP3    H177239   1.825   4.942  16.670  0.7261  0.7913 -0.2650
18608TIP3    H277240   1.787   5.016  16.796 -0.4717 -0.9248  0.4195
18609TIP3   OH277241   2.425   1.025   2.494 -0.3946  0.0389 -0.1447
18609TIP3    H177242   2.399   0.963   2.426  0.4180  1.3763 -1.7502
18609TIP3    H277243   2.514   1.000   2.516 -0.2552  0.3020 -0.4062
18610TIP3   OH277244   0.045   6.136   4.536  0.5187  0.4198 -0.3987
18610TIP3    H177245   0.116   6.085   4.498 -0.1024  0.2245 -1.3478
18610TIP3    H277246  -0.034   6.087   4.513  0.0663  0.7101  0.5072
18611TIP3   OH277247   1.945   2.598   3.153  0.3181  0.2060  0.4238
18611TIP3    H177248   2.004   2.576   3.225 -0.4484  0.7636  1.2514
18611TIP3    H277249   1.868   2.635   3.196 -0.9152 -1.0693 -0.5769
18612TIP3   OH277250   4.445   6.373   3.279  0.0185 -0.4968 -0.0989
18612TIP3    H177251   4.420   6.417   3.361 -0.0614 -0.3769 -0.1881
18612TIP3    H277252   4.532   6.408   3.259 -0.6904  0.8244 -1.0120
18613TIP3   OH277253   3.122   0.670  17.128 -0.1686  0.1423 -1.2111
18613TIP3    H177254   3.073   0.727  17.069  0.9905  0.0534 -2.3187
18613TIP3    H277255   3.102   0.703  17.216 -0.5334  1.4308 -1.7511
18614TIP3   OH277256   0.829   3.159   0.092 -0.3687  0.3157  0.1859
18614TIP3    H177257   0.803   3.200   0.009  1.1071  1.4994  0.2730
18614TIP3    H277258   0.910   3.113   0.071 -1.5282 -1.8794  0.3129
18615TIP3   OH277259   2.231   3.277  13.950 -0.2931 -0.6091 -0.1979
18615TIP3    H177260   2.210   3.333  13.875 -1.5314 -0.2066  0.4084
18615TIP3    H277261   2.321   3.249  13.936 -0.2560  0.0853 -1.4356
18616TIP3   OH277262   4.872   3.299  15.941  0.7064 -0.2069 -0.4983
18616TIP3    H177263   4.935   3.331  16.006  1.2200 -1.9561 -0.1034
18616TIP3    H277264   4.823   3.378  15.916  2.2959  0.9986 -0.0097
18617TIP3   OH277265   3.482   0.406   2.687  0.3923  0.0169 -0.7245
18617TIP3    H177266   3.509   0.445   2.604 -0.2686  0.7473 -0.6019
18617TIP3    H277267   3.519   0.317   2.685  2.4547  0.8121 -0.7457
18618TIP3   OH277268   6.488   4.285   6.192  0.1708  0.2669 -0.1789
18618TIP3    H177269   6.486   4.380   6.194  2.4595  0.3993 -0.9386
18618TIP3    H277270   6.582   4.263   6.195 -0.3019 -1.9627  0.1651
18619TIP3   OH277271   0.197   6.466  11.228  0.1243  0.3404  0.0237
18619TIP3    H177272   0.229   6.409  11.158 -1.2628 -0.8545  0.2955
18619TIP3    H277273   0.262   6.457  11.297  0.6560  0.2006 -0.4916
18620TIP3   OH277274   1.219   6.254  14.210 -0.3813  0.5407  0.0812
18620TIP3    H177275   1.136   6.208  14.224 -0.7660  0.4883 -2.0152
18620TIP3    H277276   1.278   6.187  14.175  0.1570  0.8611  0.3566
18621TIP3   OH277277   1.536   2.475   5.031  0.8580 -0.2006 -0.6536
18621TIP3    H177278   1.472   2.442   4.967 -1.1409  1.5433  0.3546
18621TIP3    H277279   1.486   2.487   5.111  1.7866  3.5777 -0.4678
18622TIP3   OH277280   3.405   0.852  14.579  0.5145  0.1580 -0.0421
18622TIP3    H177281   3.320   0.841  14.622  0.7640  1.4831  0.8549
18622TIP3    H277282   3.390   0.916  14.510  0.4176 -0.9593 -1.0987
18623TIP3   OH277283   4.067   4.850  10.917  0.0025  0.2442  0.0554
18623TIP3    H177284   4.030   4.877  10.833  1.5981 -0.1282 -0.7971
18623TIP3    H277285   4.117   4.925  10.947  1.3988 -0.4230 -0.5203
18624TIP3   OH277286   2.744   1.122   3.305 -0.1077 -0.1058 -0.1423
18624TIP3    H177287   2.763   1.215   3.292 -1.6269  0.3286  0.5041
18624TIP3    H277288   2.775   1.080   3.225  1.6917  0.7685  0.0520
18625TIP3   OH277289   2.593   5.670   6.324  0.5249  0.5238 -1.2051
18625TIP3    H177290   2.572   5.714   6.241 -0.7337  1.7953 -0.2706
18625TIP3    H277291   2.544   5.719   6.390  0.8696 -0.9428  0.2080
18626TIP3   OH277292   3.894   0.469   1.478 -0.9172  0.6879  0.0817
18626TIP3    H177293   3.907   0.413   1.555 -1.5580  0.2173 -0.1499
18626TIP3    H277294   3.947   0.547   1.497  1.3197 -0.6440 -0.3055
18627TIP3   OH277295   5.519   5.220  13.714  0.2701 -0.1225  0.5641
18627TIP3    H177296   5.432   5.185  13.692  0.4440  0.8111 -1.8603
18627TIP3    H277297   5.513   5.240  13.808 -1.2533 -2.4628  1.0568
18628TIP3   OH277298   6.557   4.162   6.859 -0.1280  0.4914 -0.7730
18628TIP3    H177299   6.636   4.110   6.843 -0.3049  0.3984 -1.3567
18628TIP3    H277300   6.508   4.112   6.924  0.1045  0.3535 -0.7023
18629TIP3   OH277301   5.363   2.098  14.471 -0.1238 -0.2309 -0.4186
18629TIP3    H177302   5.388   2.158  14.542 -1.3646 -1.2100  0.8888
18629TIP3    H277303   5.269   2.112  14.459 -0.3108 -1.4739 -0.5153
18630TIP3   OH277304   4.725   0.461   1.712  0.3932 -0.3405  0.6927
18630TIP3    H177305   4.768   0.530   1.661 -0.0975  0.1419  0.9189
18630TIP3    H277306   4.651   0.434   1.659  1.9578 -2.4609 -0.5420
18631TIP3   OH277307   4.775   2.972   3.586 -0.1415 -0.3197 -0.1788
18631TIP3    H177308   4.712   3.027   3.540  0.8592  1.5284  0.5065
18631TIP3    H277309   4.730   2.944   3.665 -0.2820  0.6455  0.1032
18632TIP3   OH277310   4.559   1.241  16.032 -0.6217  0.2134  0.7822
18632TIP3    H177311   4.518   1.259  16.117  1.5432 -1.9656  2.4312
18632TIP3    H277312   4.542   1.148  16.017  0.0998  0.2799 -0.5610
18633TIP3   OH277313   3.704   5.657   5.266 -0.0350  0.3749  0.2766
18633TIP3    H177314   3.746   5.692   5.345  1.1690  2.3511 -1.1601
18633TIP3    H277315   3.685   5.733   5.212  0.7070 -0.9872 -2.0875
18634TIP3   OH277316   4.864   5.433   0.029  0.2053  0.0111 -0.0080
18634TIP3    H177317   4.848   5.371   0.101  1.5051 -0.8404 -0.4243
18634TIP3    H277318   4.846   5.382  -0.050  1.2606  0.1550 -0.3536
18635TIP3   OH277319   2.654   5.165   5.385 -0.0208  0.1920 -0.2807
18635TIP3    H177320   2.687   5.249   5.354  0.2626  0.8484  1.6738
18635TIP3    H277321   2.656   5.172   5.481  1.6256 -2.6601 -0.0057
18636TIP3   OH277322   3.252   3.880   4.971 -0.6918 -0.0082 -0.5658
18636TIP3    H177323   3.195   3.956   4.986 -0.3191 -0.2052  2.5078
18636TIP3    H277324   3.204   3.806   5.009  0.6302 -0.5517  0.1187
18637TIP3   OH277325   1.745   3.955   0.918 -0.1616 -0.6669 -0.0663
18637TIP3    H177326   1.724   4.017   0.848 -0.5345 -0.1471  0.4936
18637TIP3    H277327   1.829   3.918   0.893 -0.3261 -0.5410 -0.8290
18638TIP3   OH277328   3.596   6.654   6.262 -0.2108 -0.3857  0.0924
18638TIP3    H177329   3.533   6.645   6.190  2.5474 -2.2181 -2.3609
18638TIP3    H277330   3.630   6.743   6.253  0.6448 -0.8232 -1.4914
18639TIP3   OH277331   0.221   5.306   3.553  0.4660 -0.6284 -0.3301
18639TIP3    H177332   0.284   5.285   3.484  0.1313 -0.6888 -0.6193
18639TIP3    H277333   0.243   5.246   3.625  0.4521 -0.9568 -0.5990
18640TIP3   OH277334   3.549   1.014  15.321  0.2613 -0.0598  0.8184
18640TIP3    H177335   3.601   1.092  15.335 -1.5308  1.3490  0.0573
18640TIP3    H277336   3.530   0.982  15.410 -0.4703  1.4342  1.2359
18641TIP3   OH277337   4.535   6.185  16.977  0.1763  0.3904  0.1649
18641TIP3    H177338   4.502   6.097  16.994 -2.4001  1.0908 -0.7861
18641TIP3    H277339   4.561   6.184  16.885 -1.4319  1.0282 -0.3239
18642TIP3   OH277340   3.994   3.181  11.611 -0.3343  0.0647 -0.3283
18642TIP3    H177341   3.991   3.162  11.705  1.1222 -0.6003 -0.3797
18642TIP3    H277342   3.928   3.248  11.597 -1.4134 -0.6912  0.9668
18643TIP3   OH277343   5.176   4.267   1.954  0.4396 -0.1268  0.5353
18643TIP3    H177344   5.234   4.304   2.020  0.2901  0.8045  0.1677
18643TIP3    H277345   5.209   4.179   1.938  1.9422  0.4948  0.0987
18644TIP3   OH277346   3.830   6.643   5.257  0.4964 -0.3882 -0.2016
18644TIP3    H177347   3.894   6.573   5.260  1.2293  0.2812  0.1045
18644TIP3    H277348   3.746   6.599   5.271  1.1482 -0.9384  2.7958
18645TIP3   OH277349   1.074   4.066  13.935  0.5436 -0.6735 -0.1042
18645TIP3    H177350   1.092   3.996  13.998  1.8806  0.9482  1.4307
18645TIP3    H277351   1.075   4.147  13.988 -2.4342  0.4408 -1.5159
18646TIP3   OH277352   4.947   5.913  14.443 -0.0904 -0.1809 -0.3551
18646TIP3    H177353   4.904   5.828  14.439  1.0145 -0.7212 -1.3176
18646TIP3    H277354   5.040   5.893  14.452 -0.0173  0.9421  3.6083
18647TIP3   OH277355   1.714   3.326   5.687  0.5652  0.0805  0.3222
18647TIP3    H177356   1.643   3.381   5.654 -0.9063 -0.1604  2.8623
18647TIP3    H277357   1.785   3.338   5.623 -0.7378  2.5622 -0.8054
18648TIP3   OH277358   6.312   2.146   3.926  0.5009 -0.1203  0.4220
18648TIP3    H177359   6.272   2.063   3.955 -0.1499  0.1144  0.2205
18648TIP3    H277360   6.254   2.213   3.962 -1.4311  0.1779 -2.8297
18649TIP3   OH277361   3.548   3.549  11.170 -0.0549  0.8345 -0.0542
18649TIP3    H177362   3.528   3.461  11.202  2.0995  0.4941  0.5072
18649TIP3    H277363   3.601   3.589  11.240 -1.0982  2.6489 -0.2356
18650TIP3   OH277364   1.809   0.031   1.506 -0.2935  0.1674 -0.5366
18650TIP3    H177365   1.758  -0.019   1.442  0.4299 -1.3444  0.0143
18650TIP3    H277366   1.744   0.062   1.569 -0.7610 -0.0916 -0.8844
18651TIP3   OH277367   1.358   2.323   2.854  0.3201 -0.2321  0.1057
18651TIP3    H177368   1.417   2.294   2.785 -0.5834  1.2738 -1.3562
18651TIP3    H277369   1.286   2.367   2.808 -1.8375 -1.7116  1.8151
18652TIP3   OH277370   1.503   5.274  13.884 -0.2509 -0.3214  0.2305
18652TIP3    H177371   1.449   5.308  13.812 -2.3255 -1.3110  1.2218
18652TIP3    H277372   1.503   5.179  13.871  0.2240 -0.4248  0.9536
18653TIP3   OH277373   1.029   1.493  14.523  0.3179 -0.2510  0.0173
18653TIP3    H177374   0.991   1.530  14.443 -0.3276 -1.2539 -0.1549
18653TIP3    H277375   1.014   1.399  14.516 -0.2097 -0.3113  1.5506
18654TIP3   OH277376   4.612   4.936   2.122 -0.3586 -0.0593  0.2330
18654TIP3    H177377   4.540   4.895   2.073  0.8721 -1.4031 -0.5146
18654TIP3    H277378   4.675   4.961   2.054 -0.3971  1.7398  0.8174
18655TIP3   OH277379   4.736   0.102   3.527  0.2966 -0.5591 -0.6151
18655TIP3    H177380   4.794   0.030   3.507 -0.9016 -1.3650 -1.3285
18655TIP3    H277381   4.701   0.130   3.442  0.0927  0.3013 -0.2697
18656TIP3   OH277382   1.806   2.917   4.186  0.2096  0.9730 -0.5790
18656TIP3    H177383   1.792   2.894   4.278 -1.7637  1.7997 -0.6225
18656TIP3    H277384   1.819   2.832   4.142 -2.5040  0.1886 -0.0618
18657TIP3   OH277385   2.933   5.718   1.074 -0.5274 -0.1300 -0.6124
18657TIP3    H177386   2.867   5.676   1.018  1.1079 -0.1574 -2.6428
18657TIP3    H277387   3.000   5.650   1.086 -0.5350  0.1064  0.8641
18658TIP3   OH277388   5.052   5.575   4.322 -0.4882  0.1166 -0.8062
18658TIP3    H177389   5.136   5.530   4.315  0.0899  1.1584 -0.6379
18658TIP3    H277390   4.988   5.508   4.297  0.1361 -1.5587  1.6308
18659TIP3   OH277391   0.040   2.801  12.802 -0.6275  0.4253  0.0694
18659TIP3    H177392   0.025   2.878  12.858  2.4690 -0.4839  2.4579
18659TIP3    H277393  -0.002   2.729  12.849 -2.7096  0.3959 -1.6866
18660TIP3   OH277394   4.262   2.158  12.491  0.1806 -0.1021 -0.1142
18660TIP3    H177395   4.187   2.196  12.536  0.2817  0.6330 -0.5470
18660TIP3    H277396   4.296   2.092  12.551 -1.2530 -0.9568 -0.2251
18661TIP3   OH277397   4.748   3.926   5.577 -0.0432 -0.3660  0.5510
18661TIP3    H177398   4.763   3.855   5.640 -1.3283  0.3551  1.7560
18661TIP3    H277399   4.707   3.883   5.502  0.8648 -1.1484  0.4865
18662TIP3   OH277400   4.263   2.039  16.651  0.1508 -0.0575 -0.3981
18662TIP3    H177401   4.182   2.066  16.695  0.0317  1.1240 -1.2996
18662TIP3    H277402   4.303   1.976  16.711 -0.9910  0.0167  0.4687
18663TIP3   OH277403   2.135   0.418   1.648  0.3162 -0.6087  0.2152
18663TIP3    H177404   2.077   0.352   1.608  0.9323 -1.8931  1.3415
18663TIP3    H277405   2.147   0.387   1.737  0.8441  0.9378  0.7069
18664TIP3   OH277406   0.238   1.542   1.689 -0.6143 -0.2437  0.1164
18664TIP3    H177407   0.313   1.587   1.727 -1.0501 -0.4713  1.2592
18664TIP3    H277408   0.163   1.597   1.711 -0.7134  0.5057 -1.8566
18665TIP3   OH277409   1.086   0.687  14.462  0.4547  0.5624 -0.1274
18665TIP3    H177410   1.125   0.628  14.398 -1.9583 -1.5539  0.1811
18665TIP3    H277411   1.059   0.764  14.411  1.3328  0.2745 -1.0453
18666TIP3   OH277412   0.899   2.909   1.211 -0.0284 -0.3061 -0.4233
18666TIP3    H177413   0.813   2.933   1.246 -0.7052 -1.1913 -1.4239
18666TIP3    H277414   0.962   2.950   1.271 -1.1372 -0.9046  1.2090
18667TIP3   OH277415   1.794   4.955  12.355  0.2725 -0.3915 -0.2121
18667TIP3    H177416   1.842   5.035  12.377  1.0961 -0.7009 -0.8609
18667TIP3    H277417   1.758   4.972  12.268 -0.6727 -0.2271  0.1999
18668TIP3   OH277418   1.321   0.518   3.441  0.3547  0.3275 -0.4978
18668TIP3    H177419   1.324   0.526   3.346 -1.2298 -0.6863 -0.6698
18668TIP3    H277420   1.312   0.607   3.473 -0.5721  0.5756 -1.3937
18669TIP3   OH277421   3.971   1.972   0.592  0.5525  0.2451  0.3469
18669TIP3    H177422   4.028   2.049   0.594  0.4640  0.3137  0.2412
18669TIP3    H277423   3.916   1.981   0.670 -0.9286  1.4106 -0.7801
18670TIP3   OH277424   0.250   1.872   6.083  0.5136 -0.4453 -0.7257
18670TIP3    H177425   0.266   1.800   6.021  1.1645 -0.1849 -0.8712
18670TIP3    H277426   0.337   1.892   6.119  0.2335 -0.1846 -0.1756
18671TIP3   OH277427   5.173   2.664  15.252 -0.0219 -0.1802 -0.4843
18671TIP3    H177428   5.182   2.621  15.167 -0.7576  0.6268 -0.9872
18671TIP3    H277429   5.134   2.597  15.309  1.7301 -1.1655 -0.3862
18672TIP3   OH277430   4.983   6.235   5.727 -0.3142  0.1550 -0.5322
18672TIP3    H177431   5.048   6.181   5.771  0.2922  0.4261 -1.0883
18672TIP3    H277432   4.943   6.177   5.662 -0.2027  0.1604 -0.6050
18673TIP3   OH277433   0.472   5.646  14.875 -0.0422  0.0364 -0.4552
18673TIP3    H177434   0.548   5.622  14.928  0.3295  0.1134 -0.9371
18673TIP3    H277435   0.439   5.564  14.840  0.0075  0.0322 -0.4923
18674TIP3   OH277436   2.631   1.803   2.592  0.0177  0.5427 -0.2837
18674TIP3    H177437   2.569   1.856   2.542 -0.7562  0.4507  0.5626
18674TIP3    H277438   2.689   1.867   2.633 -0.0464  0.6695 -0.3906
18675TIP3   OH277439   0.419   0.045  16.049 -0.2332 -0.2482 -0.9431
18675TIP3    H177440   0.363   0.084  16.116  1.0077 -1.6608  1.0184
18675TIP3    H277441   0.503   0.090  16.059 -0.0036 -0.5491 -1.4803
18676TIP3   OH277442   2.810   0.682  14.663  0.7087  0.1786 -0.4124
18676TIP3    H177443   2.871   0.744  14.702 -0.2845 -0.2057  1.9217
18676TIP3    H277444   2.727   0.699  14.708 -0.6667 -0.0424 -2.7187
18677TIP3   OH277445   4.921   0.019  15.893 -0.0896  0.3373  0.1098
18677TIP3    H177446   5.006  -0.020  15.873 -1.0974 -0.3860 -3.4134
18677TIP3    H277447   4.942   0.108  15.922  1.8719  0.1649 -0.6380
18678TIP3   OH277448   1.764   4.300   5.999  0.9431  0.4860  0.2083
18678TIP3    H177449   1.722   4.271   6.079 -0.7804 -0.0956 -0.8615
18678TIP3    H277450   1.810   4.380   6.023 -0.0955  0.6819  1.6135
18679TIP3   OH277451   3.436   4.043   2.006  0.1934  0.2214  0.2634
18679TIP3    H177452   3.389   3.973   1.962  0.6630 -0.1433  0.3417
18679TIP3    H277453   3.431   4.021   2.099 -1.2810  1.2792  0.4838
18680TIP3   OH277454   3.621   5.283   0.429  0.0692  0.5622  0.3712
18680TIP3    H177455   3.587   5.233   0.354 -0.5145  0.8718  0.4236
18680TIP3    H277456   3.660   5.361   0.389  0.8748  0.1398  0.2991
18681TIP3   OH277457   1.324   5.387  14.567 -0.6258  0.6369 -0.3870
18681TIP3    H177458   1.286   5.436  14.494  0.4618  1.4481 -0.4364
18681TIP3    H277459   1.382   5.449  14.610  0.5123 -0.4923 -0.2144
18682TIP3   OH277460   2.966   0.644   5.490 -0.0177 -0.8802 -0.6264
18682TIP3    H177461   3.044   0.592   5.470  1.7748  1.9534 -1.5785
18682TIP3    H277462   2.993   0.735   5.476 -2.9705  0.3731  0.8707
18683TIP3   OH277463   5.488   1.868   4.426 -0.4971  1.1356  0.6097
18683TIP3    H177464   5.500   1.916   4.344 -0.4512  1.2895  0.7063
18683TIP3    H277465   5.430   1.796   4.403 -0.3674  1.0941  0.4084
18684TIP3   OH277466   3.956   3.168   0.871 -0.2761  0.4822  0.2996
18684TIP3    H177467   4.035   3.113   0.874  0.3333  1.2763 -0.4669
18684TIP3    H277468   3.929   3.176   0.962  0.7066  0.4186  0.6144
18685TIP3   OH277469   1.410   6.663   4.441 -0.3482  0.1577 -0.0565
18685TIP3    H177470   1.450   6.749   4.453 -0.8902  0.4509 -0.3300
18685TIP3    H277471   1.354   6.673   4.365 -0.0036 -0.5926 -0.4175
18686TIP3   OH277472   6.280   1.466  13.622 -0.0859  0.1343  0.2110
18686TIP3    H177473   6.369   1.479  13.593  0.0177 -2.1004 -0.6856
18686TIP3    H277474   6.232   1.542  13.590  1.7268  2.1900  2.0821
18687TIP3   OH277475   2.030   1.199  15.836  0.5979  0.2447  0.0191
18687TIP3    H177476   1.938   1.225  15.833  0.6267  1.3097  3.8634
18687TIP3    H277477   2.035   1.133  15.905  2.5718 -0.8906 -1.0885
18688TIP3   OH277478   4.323   5.907  14.497  0.3325 -0.0019  0.0357
18688TIP3    H177479   4.238   5.899  14.540  0.1935  1.5826  0.0895
18688TIP3    H277480   4.386   5.906  14.569  0.3334 -0.6304  0.0326
18689TIP3   OH277481   2.044   6.332  13.039  0.1030  0.7207 -0.2101
18689TIP3    H177482   1.998   6.413  13.019  0.3673  0.8004 -0.5104
18689TIP3    H277483   1.979   6.277  13.083 -1.0441 -0.0869 -2.6960
18690TIP3   OH277484   0.802   4.203   5.465 -0.1737  0.0512 -0.0203
18690TIP3    H177485   0.778   4.234   5.552  2.9128  1.2607  0.5373
18690TIP3    H277486   0.800   4.282   5.410  1.3221  0.0329 -0.1501
18691TIP3   OH277487   4.120   5.438  15.198 -0.5322 -0.3219  0.5696
18691TIP3    H177488   4.139   5.529  15.222 -0.2997 -0.6488  1.6894
18691TIP3    H277489   4.035   5.442  15.155 -1.0096  0.3046  1.5472
18692TIP3   OH277490   6.647   6.022  12.745  0.2417 -0.1334  0.2194
18692TIP3    H177491   6.583   5.976  12.692 -0.0085  0.4365  0.0204
18692TIP3    H277492   6.643   5.979  12.831  2.6940 -3.0222 -0.9119
18693TIP3   OH277493   2.885   0.842  15.338 -0.3460 -0.5563  0.9740
18693TIP3    H177494   2.871   0.854  15.432 -0.6537 -2.9768  1.2914
18693TIP3    H277495   2.980   0.833  15.329 -0.0821  1.8107  0.6991
18694TIP3   OH277496   3.093   1.884  12.186 -0.2169 -0.2595  0.4931
18694TIP3    H177497   3.138   1.815  12.138 -0.1641 -0.0553  0.2444
18694TIP3    H277498   3.123   1.874  12.276  0.6982  0.1637  0.2510
18695TIP3   OH277499   2.473   1.858  13.090 -0.4792  0.1192  0.2378
18695TIP3    H177500   2.488   1.952  13.090  0.7930 -0.0085 -1.8395
18695TIP3    H277501   2.441   1.839  13.002  0.4848 -1.5245  0.2015
18696TIP3   OH277502   6.719   0.685   3.403  0.1851 -0.7104 -0.5821
18696TIP3    H177503   6.746   0.736   3.327 -0.0506 -1.0966 -0.9319
18696TIP3    H277504   6.660   0.618   3.367 -3.7910  1.8978  0.4441
18697TIP3   OH277505   6.343   2.660   4.450  1.2326  0.0665 -0.6712
18697TIP3    H177506   6.278   2.720   4.413  0.1095  0.1512  1.2733
18697TIP3    H277507   6.333   2.579   4.401  0.5889  0.5103 -1.2842
18698TIP3   OH277508   2.066   4.583  15.480  0.1731  0.1049 -0.1287
18698TIP3    H177509   2.018   4.665  15.467  1.2551  0.6237 -1.0399
18698TIP3    H277510   2.057   4.564  15.574  0.1872  1.4422  0.1600
18699TIP3   OH277511   1.358   5.923   3.799 -0.2707 -0.1631 -0.2068
18699TIP3    H177512   1.264   5.909   3.806 -0.8572  3.1767  0.4631
18699TIP3    H277513   1.376   5.993   3.861  2.6275 -0.4453 -0.5927
18700TIP3   OH277514   1.122   4.509   4.772  0.1937  0.1419  0.2047
18700TIP3    H177515   1.164   4.444   4.829 -0.0464 -0.6699 -0.5077
18700TIP3    H277516   1.139   4.593   4.814  0.8194 -0.3519  0.9744
18701TIP3   OH277517   6.147   2.230   2.370  0.5015 -0.4584  0.3589
18701TIP3    H177518   6.185   2.317   2.384 -0.1516  0.0251 -0.7296
18701TIP3    H277519   6.056   2.247   2.348  0.4902 -1.3892 -0.3814
18702TIP3   OH277520   0.552   1.474  13.344  0.4400  0.0791  0.0635
18702TIP3    H177521   0.604   1.410  13.296 -0.6876 -0.3743 -0.5909
18702TIP3    H277522   0.598   1.558  13.330  1.2996 -0.3892 -0.0049
18703TIP3   OH277523   0.996   0.262   1.435  0.5518  0.2801  1.1051
18703TIP3    H177524   1.063   0.255   1.503  0.1648 -2.0567  1.2982
18703TIP3    H277525   1.032   0.215   1.360 -0.6983 -0.7086  1.0948
18704TIP3   OH277526   0.064   5.324  11.451  0.1225  0.1815  0.2510
18704TIP3    H177527  -0.023   5.359  11.468 -0.1848 -0.3621 -0.1993
18704TIP3    H277528   0.049   5.235  11.418  0.8972 -0.6469  1.9530
18705TIP3   OH277529   0.187   4.034   5.603 -0.0811 -0.4834  0.2899
18705TIP3    H177530   0.126   4.049   5.530  0.1010 -1.8782 -0.1653
18705TIP3    H277531   0.200   4.121   5.641  1.4756  0.7006 -2.6315
18706TIP3   OH277532   0.834   0.891   0.427 -0.1421 -0.5377  0.0673
18706TIP3    H177533   0.856   0.847   0.345  2.7522 -0.0266  0.4304
18706TIP3    H277534   0.903   0.956   0.438 -1.7156  0.9305  1.8331
18707TIP3   OH277535   1.134   3.565   1.016 -0.7287 -0.0112 -0.2259
18707TIP3    H177536   1.102   3.478   1.039 -0.5491  0.2165  0.9508
18707TIP3    H277537   1.226   3.551   0.992 -1.1401 -0.3725 -1.6615
18708TIP3   OH277538   1.580   2.622  11.426 -0.2307 -0.0147  0.0991
18708TIP3    H177539   1.638   2.550  11.401  1.7443  0.9962  1.4020
18708TIP3    H277540   1.515   2.627  11.357  1.9236 -0.5267 -2.0933
18709TIP3   OH277541   2.807   4.818   2.072 -0.2346  0.1038 -0.3370
18709TIP3    H177542   2.787   4.907   2.043 -0.7176 -0.0706 -0.5591
18709TIP3    H277543   2.790   4.763   1.996 -1.6240 -0.3714  0.2775
18710TIP3   OH277544   2.649   1.373  14.053  0.3696  0.1935  0.1438
18710TIP3    H177545   2.696   1.314  13.994 -0.1242 -0.6705  0.6055
18710TIP3    H277546   2.619   1.445  13.996 -1.9641 -1.6549 -1.1248
18711TIP3   OH277547   3.097   1.095  12.077 -0.1081  0.3763  0.2692
18711TIP3    H177548   3.093   1.190  12.079 -0.7416  0.3730 -0.2643
18711TIP3    H277549   3.024   1.069  12.020  0.3980 -0.3977 -0.0535
18712TIP3   OH277550   2.938   0.851   6.184  0.2662 -0.0961 -0.1396
18712TIP3    H177551   2.907   0.926   6.234  0.2100 -0.0165 -0.2906
18712TIP3    H277552   3.032   0.865   6.174  0.1195  0.4215 -0.9320
18713TIP3   OH277553   1.435   0.905  17.092 -0.2385 -0.6335  0.2961
18713TIP3    H177554   1.458   0.921  17.183 -2.1912  0.3299  0.6684
18713TIP3    H277555   1.508   0.942  17.042 -0.6029  1.8079  1.4139
18714TIP3   OH277556   3.428   5.400  16.184  0.5437  0.5204  0.1516
18714TIP3    H177557   3.384   5.416  16.268  0.1267 -1.1838  0.3001
18714TIP3    H277558   3.415   5.480  16.134 -0.8380  0.8718  1.0262
18715TIP3   OH277559   6.459   4.324   2.067 -0.1413 -0.1023  0.3241
18715TIP3    H177560   6.406   4.369   2.133  1.1111 -0.2683  1.4722
18715TIP3    H277561   6.500   4.252   2.114 -0.5131 -1.2246 -1.0370
18716TIP3   OH277562   3.707   2.785   1.114 -0.9085 -0.3941  0.7500
18716TIP3    H177563   3.684   2.743   1.032 -1.5057 -0.5822  1.0133
18716TIP3    H277564   3.802   2.800   1.107 -1.0824  0.3739 -0.3224
18717TIP3   OH277565   5.378   0.724   5.486  0.4186 -0.5453 -0.0050
18717TIP3    H177566   5.351   0.667   5.414  2.4180 -1.6892  0.0655
18717TIP3    H277567   5.474   0.725   5.481  0.5043  2.0259  0.6355
18718TIP3   OH277568   5.351   1.859  14.176  1.0468  0.0532 -0.0953
18718TIP3    H177569   5.284   1.866  14.243 -0.8146  1.0509 -1.9574
18718TIP3    H277570   5.408   1.788  14.207 -0.5202 -0.4497  1.8406
18719TIP3   OH277571   3.867   3.962  13.344 -0.0393  0.7266 -0.5044
18719TIP3    H177572   3.912   4.005  13.271 -0.0400 -1.0496 -1.6125
18719TIP3    H277573   3.775   3.963  13.320  0.0446 -0.5662 -0.9367
18720TIP3   OH277574   5.660   2.582  12.196  0.2917 -0.3539 -0.5288
18720TIP3    H177575   5.585   2.641  12.202  1.6347  1.6061 -1.7029
18720TIP3    H277576   5.677   2.556  12.287 -0.7876  0.5161 -0.0562
18721TIP3   OH277577   3.116   0.948   6.686 -0.0064 -0.1143 -0.0134
18721TIP3    H177578   3.154   0.878   6.633 -0.4742  0.5118 -1.2036
18721TIP3    H277579   3.124   0.917   6.776  1.2720 -0.9755 -0.4058
18722TIP3   OH277580   0.693   0.492   1.836 -0.3058  0.1768 -0.0403
18722TIP3    H177581   0.740   0.413   1.864 -0.5150 -0.0928 -0.4456
18722TIP3    H277582   0.634   0.462   1.768 -0.9626  0.5456  0.3562
18723TIP3   OH277583   1.272   2.279  13.606 -0.4600  0.1498 -0.4087
18723TIP3    H177584   1.309   2.291  13.693  0.3073  0.4154 -0.7595
18723TIP3    H277585   1.221   2.359  13.590  0.8654  0.9221 -0.9048
18724TIP3   OH277586   3.714   4.574  14.484  0.1899 -0.0547 -0.3244
18724TIP3    H177587   3.701   4.666  14.461 -0.9529  0.0088  0.5307
18724TIP3    H277588   3.670   4.525  14.414 -1.3484  0.1076  0.4908
18725TIP3   OH277589   0.153   1.089   3.246  0.2003 -0.2033  0.2098
18725TIP3    H177590   0.246   1.075   3.231  0.4542  1.1176  0.4278
18725TIP3    H277591   0.139   1.065   3.337  0.5697  0.6102  0.4967
18726TIP3   OH277592   4.170   5.417   3.780 -0.4271 -0.9627 -0.6575
18726TIP3    H177593   4.114   5.465   3.719  1.8657  0.8713 -1.5074
18726TIP3    H277594   4.239   5.381   3.725  2.8089  2.3312  0.7836
18727TIP3   OH277595   3.575   4.190  11.541  1.0445  0.1476  0.2141
18727TIP3    H177596   3.661   4.158  11.513 -0.0588 -0.8371 -2.3998
18727TIP3    H277597   3.593   4.242  11.619  3.6966 -2.0574  1.2687
18728TIP3   OH277598   6.304   0.780   0.207  0.0255  0.0862 -0.6981
18728TIP3    H177599   6.327   0.828   0.287 -0.9006  0.8063 -0.8428
18728TIP3    H277600   6.209   0.771   0.211  0.1137 -1.1238 -1.0369
18729TIP3   OH277601   2.900   3.605  14.602  0.1590 -0.3682 -0.2135
18729TIP3    H177602   2.836   3.544  14.566 -1.2830  1.6088 -1.1847
18729TIP3    H277603   2.981   3.585  14.556 -0.7687 -0.2845 -1.9363
18730TIP3   OH277604   4.672   4.999  13.339  0.3181  0.6065  0.8373
18730TIP3    H177605   4.608   5.040  13.281  0.2124  1.3468  1.4529
18730TIP3    H277606   4.652   4.906  13.334  0.4862  0.6200 -0.5088
18731TIP3   OH277607   5.014   5.654  16.526  0.0189  0.0006  0.3581
18731TIP3    H177608   5.027   5.717  16.597 -4.3277  0.7618  0.7256
18731TIP3    H277609   5.018   5.568  16.569 -0.0007  0.3225  1.0120
18732TIP3   OH277610   5.470   6.210   6.857 -0.2136 -0.0615 -0.1255
18732TIP3    H177611   5.421   6.224   6.775 -2.4214  0.4180  1.1987
18732TIP3    H277612   5.562   6.214   6.830 -0.7389  3.3665 -2.1363
18733TIP3   OH277613   5.683   4.974  13.389 -0.3008 -0.2012  0.3037
18733TIP3    H177614   5.658   4.957  13.480  0.4731 -1.9007  0.2439
18733TIP3    H277615   5.706   5.067  13.387 -0.4969 -0.0943  1.7963
18734TIP3   OH277616   0.051   2.713  14.260 -0.2450 -0.8064 -0.3165
18734TIP3    H177617   0.120   2.647  14.255  0.8166  0.1689  0.8634
18734TIP3    H277618   0.086   2.787  14.209 -0.6557 -0.5157 -0.1770
18735TIP3   OH277619   3.821   1.955  11.278  0.2609 -0.5121  0.5851
18735TIP3    H177620   3.870   2.013  11.336 -1.9903  1.5326  0.5711
18735TIP3    H277621   3.856   1.973  11.191  0.6207 -0.3264  0.7644
18736TIP3   OH277622   4.927   0.984  10.750 -0.2492 -0.6345  0.1544
18736TIP3    H177623   4.983   1.021  10.681 -1.1150  0.5713  0.0628
18736TIP3    H277624   4.927   0.890  10.733  0.9153 -0.5480 -0.4549
18737TIP3   OH277625   2.368   0.768   2.342 -0.1352 -0.5529  0.3245
18737TIP3    H177626   2.412   0.707   2.402 -1.6689 -0.7963  1.2572
18737TIP3    H277627   2.336   0.712   2.270  1.5998 -0.2783 -0.7114
18738TIP3   OH277628   4.006   0.609  16.322 -0.0880  0.0020  0.1275
18738TIP3    H177629   4.063   0.654  16.260 -0.2328 -0.1332 -0.1037
18738TIP3    H277630   4.029   0.646  16.407 -1.6826  2.1229 -0.2636
18739TIP3   OH277631   5.407   0.579   4.828 -0.3951 -0.2178 -0.6220
18739TIP3    H177632   5.426   0.602   4.919  1.3309 -1.3316 -0.6645
18739TIP3    H277633   5.314   0.600   4.817 -0.6600 -0.1299  1.4104
18740TIP3   OH277634   2.798   4.746   0.713  0.1130 -0.6924 -0.7181
18740TIP3    H177635   2.823   4.655   0.733  0.5318 -1.2296 -3.3087
18740TIP3    H277636   2.877   4.797   0.730 -0.3534 -0.6269  1.5191
18741TIP3   OH277637   4.880   3.522  17.088  0.5609 -0.0400 -0.2689
18741TIP3    H177638   4.923   3.457  17.032  0.8383 -1.7438  1.7843
18741TIP3    H277639   4.869   3.477  17.172 -2.2427  1.4834  0.2842
18742TIP3   OH277640   6.692   3.822   4.148 -0.8728 -0.4755  0.0140
18742TIP3    H177641   6.605   3.861   4.152 -0.0841  1.3869 -0.0647
18742TIP3    H277642   6.702   3.777   4.232 -0.9166  1.5915  1.1933
18743TIP3   OH277643   5.099   1.747  13.699 -0.6290  0.4788  0.2038
18743TIP3    H177644   5.098   1.784  13.787  0.4195 -0.3636  0.5971
18743TIP3    H277645   5.054   1.812  13.645 -2.5938  0.3670  1.5896
18744TIP3   OH277646   3.917   6.762  12.358  0.0011 -0.1899 -0.5221
18744TIP3    H177647   3.994   6.708  12.338  0.2035 -0.0839 -0.0424
18744TIP3    H277648   3.858   6.749  12.284  0.1206 -0.9372 -0.4905
18745TIP3   OH277649   4.596   5.108  11.811 -1.0159 -0.4892  0.3813
18745TIP3    H177650   4.602   5.203  11.802 -0.0739 -0.2906  2.4666
18745TIP3    H277651   4.519   5.094  11.866 -3.1482 -1.2160 -2.5936
18746TIP3   OH277652   1.230   2.865  14.174 -0.2748 -0.2822  0.0697
18746TIP3    H177653   1.186   2.950  14.170 -1.4213 -0.8213  0.6100
18746TIP3    H277654   1.298   2.876  14.240  1.4335  0.9901 -1.7936
18747TIP3   OH277655   1.982   3.716   6.230 -0.0071  0.1255  0.0262
18747TIP3    H177656   2.073   3.747   6.225  0.0299  0.0198  0.0460
18747TIP3    H277657   1.946   3.759   6.308  0.1520 -0.1670  0.2580
18748TIP3   OH277658   1.253   5.156   4.586  0.4678  0.5498  0.4918
18748TIP3    H177659   1.289   5.244   4.573  1.1164  0.1864 -0.2743
18748TIP3    H277660   1.207   5.136   4.504 -2.4474  1.4059  1.8049
18749TIP3   OH277661   0.877   6.729  12.960 -0.0449  0.2295  0.7060
18749TIP3    H177662   0.823   6.653  12.983  0.7273  0.2603  2.8613
18749TIP3    H277663   0.963   6.709  12.995  0.4422  1.6682  0.4021
18750TIP3   OH277664   2.190   3.750   1.380 -0.2512  0.3424 -0.1129
18750TIP3    H177665   2.137   3.674   1.404  1.6843  0.1094  4.7655
18750TIP3    H277666   2.127   3.822   1.372 -1.7377 -0.8607  0.3308
18751TIP3   OH277667   0.390   4.271  11.751 -0.0991 -0.2943 -0.5127
18751TIP3    H177668   0.344   4.191  11.728 -0.3607 -0.8845  1.8455
18751TIP3    H277669   0.331   4.341  11.725 -1.1425 -0.9576  0.0227
18752TIP3   OH277670   1.063   5.762  12.921 -0.2700 -0.1879  0.0268
18752TIP3    H177671   1.132   5.765  12.987  0.0985  0.1768 -0.3712
18752TIP3    H277672   1.087   5.687  12.865 -0.7135 -0.6474  0.4472
18753TIP3   OH277673   3.690   0.807   3.322 -0.2785  0.2510  0.2838
18753TIP3    H177674   3.642   0.823   3.241  1.0394 -2.8114 -1.2899
18753TIP3    H277675   3.763   0.868   3.319 -1.2759  1.4770  0.1710
18754TIP3   OH277676   5.109   1.421   5.167 -0.3468  0.6992 -0.4395
18754TIP3    H177677   5.024   1.383   5.144  0.6098 -2.6889  0.9583
18754TIP3    H277678   5.145   1.450   5.083 -2.4902  1.4932 -1.1670
18755TIP3   OH277679   6.725   3.799   3.747 -0.3438 -0.3472 -0.1003
18755TIP3    H177680   6.756   3.864   3.809  0.9797 -0.1923 -0.8815
18755TIP3    H277681   6.673   3.849   3.684 -3.4261 -0.7792  1.8914
18756TIP3   OH277682   3.944   3.849  11.498  0.0034  0.0352  0.0475
18756TIP3    H177683   3.922   3.792  11.572 -1.4894  2.5689  1.7171
18756TIP3    H277684   4.039   3.857  11.501  0.1432 -1.4803  0.4073
18757TIP3   OH277685   1.601   3.956   5.962 -0.0463 -0.3657  0.2096
18757TIP3    H177686   1.554   3.875   5.983 -2.4818  0.7741 -0.5093
18757TIP3    H277687   1.583   4.014   6.036 -1.5017  0.7494 -0.9529
18758TIP3   OH277688   5.205   4.387  12.638 -0.4597  0.0525 -0.4245
18758TIP3    H177689   5.282   4.346  12.601  0.1022 -0.7571  1.4910
18758TIP3    H277690   5.131   4.344  12.594  0.1444 -1.7612  0.2260
18759TIP3   OH277691   5.778   3.919  15.806 -0.2604 -0.2224  0.0786
18759TIP3    H177692   5.736   3.994  15.848 -0.9930  0.2116 -1.3525
18759TIP3    H277693   5.706   3.859  15.787 -0.1318  0.0720 -1.4807
18760TIP3   OH277694   1.829   0.473  13.389  0.0844  0.5766  0.1452
18760TIP3    H177695   1.837   0.533  13.463 -2.6486 -1.2888  2.1558
18760TIP3    H277696   1.793   0.393  13.427  0.5442 -1.2419 -2.9123
18761TIP3   OH277697   0.677   6.565   2.615  0.4247  0.3231  0.7736
18761TIP3    H177698   0.654   6.571   2.523  0.5535  1.9982  0.8169
18761TIP3    H277699   0.773   6.564   2.617  0.4294 -1.3046  0.8383
18762TIP3   OH277700   1.533   1.696   4.305  0.1640  0.0596  0.2754
18762TIP3    H177701   1.532   1.611   4.261  0.3469  0.2250 -0.0498
18762TIP3    H277702   1.443   1.728   4.297  0.4651  0.6250 -1.0342
18763TIP3   OH277703   4.360   1.183  11.441  0.2607 -0.1312 -0.7849
18763TIP3    H177704   4.402   1.128  11.508  1.2555 -0.8694 -1.9868
18763TIP3    H277705   4.337   1.263  11.488 -0.0117 -1.0280  0.6928
18764TIP3   OH277706   3.679   6.325  13.421 -0.7229 -0.7186 -0.2469
18764TIP3    H177707   3.720   6.267  13.486  0.9974 -0.5617 -1.1387
18764TIP3    H277708   3.656   6.266  13.349  1.1281 -0.3337 -1.2013
18765TIP3   OH277709   6.004   5.279  12.038  0.4177  0.2082 -0.2352
18765TIP3    H177710   6.032   5.261  11.948  1.5182  0.7822 -0.0220
18765TIP3    H277711   5.923   5.328  12.029  0.8709  0.8491 -0.9403
18766TIP3   OH277712   1.814   1.582  15.694  0.4644 -0.2631 -0.1169
18766TIP3    H177713   1.906   1.605  15.681  0.7111 -0.9980  0.2288
18766TIP3    H277714   1.817   1.493  15.730 -0.3269  0.1576  1.0587
18767TIP3   OH277715   3.702   5.607  12.718  0.0910 -0.1725  0.1679
18767TIP3    H177716   3.658   5.625  12.635 -2.1933 -0.5038  1.2221
18767TIP3    H277717   3.748   5.688  12.739 -0.6858  0.4872 -0.6082
18768TIP3   OH277718   1.368   4.424   4.249  0.0083  0.0130 -0.1185
18768TIP3    H177719   1.377   4.490   4.318  0.5346 -0.9718  0.7836
18768TIP3    H277720   1.283   4.443   4.209  0.7334  2.0641 -0.7860
18769TIP3   OH277721   2.491   6.764  11.408 -0.3234  0.4065  0.3588
18769TIP3    H177722   2.491   6.672  11.381  2.6731 -0.3812  2.5787
18769TIP3    H277723   2.544   6.808  11.342  2.8516 -0.6099  2.0171
18770TIP3   OH277724   1.853   4.620   3.902 -0.1235 -0.3264 -0.1094
18770TIP3    H177725   1.859   4.547   3.964 -0.3262 -0.5003 -0.2922
18770TIP3    H277726   1.898   4.692   3.946 -2.1073  0.2073  1.2203
18771TIP3   OH277727   5.937   1.056  11.997 -0.0737 -0.2815 -0.4785
18771TIP3    H177728   5.939   1.082  11.905 -1.1622  0.9997 -0.1791
18771TIP3    H277729   5.862   1.103  12.034  2.2405  1.9846  1.8227
18772TIP3   OH277730   1.077   2.686   1.679 -0.0080 -0.0754  0.1118
18772TIP3    H177731   1.076   2.714   1.771  0.0711  0.8314 -0.1578
18772TIP3    H277732   1.082   2.590   1.684  3.0574  0.0172  1.0753
18773TIP3   OH277733   0.601   5.376  15.363 -0.2158  0.0515 -0.2468
18773TIP3    H177734   0.555   5.323  15.428  3.8697 -1.1973  2.0247
18773TIP3    H277735   0.546   5.453  15.351 -2.5967 -1.0584  2.4517
18774TIP3   OH277736   3.128   1.159   5.600 -0.5841  0.4466  0.4483
18774TIP3    H177737   3.064   1.094   5.629  0.3236 -0.7216 -0.0545
18774TIP3    H277738   3.078   1.220   5.546 -0.9734 -1.6415 -1.7220
18775TIP3   OH277739   0.601   0.898  12.166  0.3956 -0.3334 -0.0334
18775TIP3    H177740   0.600   0.849  12.083 -1.1852  2.5697 -1.9230
18775TIP3    H277741   0.676   0.957  12.157 -0.6221  0.9816 -0.0862
18776TIP3   OH277742   3.987   6.648   4.051 -0.0643  0.2278  0.0908
18776TIP3    H177743   3.945   6.585   4.108  0.6425  1.2643  1.8372
18776TIP3    H277744   4.080   6.642   4.072  0.7078 -1.3893 -3.0594
18777TIP3   OH277745   3.408   0.274  11.810 -0.0658  0.2066 -0.3934
18777TIP3    H177746   3.396   0.340  11.741 -2.1772  0.3009 -0.0038
18777TIP3    H277747   3.409   0.324  11.891 -1.0651 -0.1445 -0.1425
18778TIP3   OH277748   5.008   1.328  12.975  0.1672 -0.1853 -0.7413
18778TIP3    H177749   5.051   1.254  12.932  1.2855  0.9518 -1.6367
18778TIP3    H277750   4.915   1.307  12.972  0.5175 -2.0807  0.0514
18779TIP3   OH277751   2.922   3.330  11.453  0.2777  0.6457  0.2215
18779TIP3    H177752   2.907   3.399  11.389 -2.2736  0.9713  1.0657
18779TIP3    H277753   2.881   3.362  11.533 -1.0000 -1.7948  0.6411
18780TIP3   OH277754   5.105   4.677  15.436  0.4987  0.6668  0.6627
18780TIP3    H177755   5.099   4.772  15.438  1.4357  0.7421  0.2847
18780TIP3    H277756   5.132   4.652  15.525  2.5335  0.9471  0.1650
18781TIP3   OH277757   2.698   4.003   4.807 -0.1334  0.1226 -0.0645
18781TIP3    H177758   2.714   3.908   4.801 -0.7201 -0.0219  0.5686
18781TIP3    H277759   2.609   4.014   4.775 -0.2716  0.3876  0.4059
18782TIP3   OH277760   6.079   1.330   1.787 -0.5768 -0.3807  0.1250
18782TIP3    H177761   6.047   1.306   1.700  0.1590 -1.2383  0.0805
18782TIP3    H277762   6.172   1.351   1.773 -0.8983  1.3444  0.3786
18783TIP3   OH277763   3.194   4.327  17.145 -0.3402 -0.2495  0.3135
18783TIP3    H177764   3.112   4.293  17.181  0.1730 -0.6056  1.1968
18783TIP3    H277765   3.260   4.261  17.169 -0.2286 -1.4650 -2.8944
18784TIP3   OH277766   1.305   1.359  12.532  1.1438 -0.1800 -0.1092
18784TIP3    H177767   1.265   1.445  12.516 -0.9608 -1.0617  0.0184
18784TIP3    H277768   1.377   1.354  12.470  0.7800  1.3495 -0.6975
18785TIP3   OH277769   5.927   3.522  16.923 -0.3309 -0.1142 -0.0241
18785TIP3    H177770   5.906   3.475  16.842 -0.4946 -1.7784  0.9264
18785TIP3    H277771   5.985   3.593  16.896 -1.8960  0.5586 -1.8340
18786TIP3   OH277772   4.257   1.544  12.267 -0.0957 -0.2553  0.0387
18786TIP3    H177773   4.333   1.601  12.279 -1.3799  1.1044  2.4753
18786TIP3    H277774   4.187   1.603  12.238 -0.4464 -1.3673 -1.5029
18787TIP3   OH277775   0.333   3.341   2.404 -0.2897  0.1348 -0.5072
18787TIP3    H177776   0.371   3.416   2.450  0.3373  0.7506 -1.9612
18787TIP3    H277777   0.372   3.265   2.445 -0.8707  0.5890  0.9423
18788TIP3   OH277778   3.717   1.959  13.266  0.2165  0.2975  0.2186
18788TIP3    H177779   3.794   1.912  13.233 -0.2097 -0.9965  0.9965
18788TIP3    H277780   3.667   1.893  13.314 -1.7155  0.9529 -0.7951
18789TIP3   OH277781   1.773   0.251  16.295 -0.7301 -0.1149  0.0604
18789TIP3    H177782   1.719   0.273  16.371  0.9457 -3.0532  2.3201
18789TIP3    H277783   1.861   0.280  16.318  0.0166 -2.0002 -0.2038
18790TIP3   OH277784   5.201   4.230  11.563  0.0715 -0.3608 -0.0590
18790TIP3    H177785   5.180   4.252  11.472  0.1541  0.0585  0.0198
18790TIP3    H277786   5.187   4.312  11.611 -0.4981 -0.7139  0.3940
18791TIP3   OH277787   5.570   2.112   3.032  0.0397  0.2534 -0.3407
18791TIP3    H177788   5.600   2.149   3.115  0.9638  1.4189 -1.1683
18791TIP3    H277789   5.651   2.097   2.982 -0.5029 -0.4904 -1.0147
18792TIP3   OH277790   3.790   4.869  13.768  0.2082 -0.5847  0.1042
18792TIP3    H177791   3.836   4.784  13.772  2.3433  0.5333  0.9178
18792TIP3    H277792   3.714   4.857  13.825  2.7688 -0.7759  3.9439
18793TIP3   OH277793   6.491   0.224  14.375  0.1493 -0.4713  0.1332
18793TIP3    H177794   6.474   0.193  14.463 -2.9983  1.8916  0.5268
18793TIP3    H277795   6.543   0.304  14.387 -1.5517  0.6947  0.0410
18794TIP3   OH277796   3.601   0.578  14.880 -0.1448  0.2584 -0.0335
18794TIP3    H177797   3.624   0.634  14.955 -0.6390  2.1082 -1.2103
18794TIP3    H277798   3.611   0.634  14.804 -1.7888 -0.9190 -1.1858
18795TIP3   OH277799   1.625   2.768   5.680  0.1547  0.3992 -0.1108
18795TIP3    H177800   1.555   2.794   5.740 -0.3310  0.4392 -0.6821
18795TIP3    H277801   1.671   2.698   5.727  0.4671  1.1643  0.7528
18796TIP3   OH277802   6.591   4.188   4.046  0.3895 -0.1060  0.7696
18796TIP3    H177803   6.555   4.113   4.091  0.7784 -1.7054 -1.4080
18796TIP3    H277804   6.516   4.245   4.030 -0.3601 -1.1602  0.4184
18797TIP3   OH277805   2.563   6.776  15.675  0.2192 -0.2097  0.5354
18797TIP3    H177806   2.642   6.759  15.623 -0.4237 -0.4543 -0.3746
18797TIP3    H277807   2.518   6.846  15.628  0.1491  0.3168  1.3517
18798TIP3   OH277808   0.907   2.978  16.520  0.5174  0.7744 -0.0005
18798TIP3    H177809   0.989   3.014  16.486 -0.3977  2.4205 -0.5745
18798TIP3    H277810   0.858   2.953  16.442  0.4510 -0.1861  0.3421
18799TIP3   OH277811   2.849   6.239   1.226 -0.3856  0.0875  0.9362
18799TIP3    H177812   2.889   6.312   1.273 -1.6700 -0.5360  3.1484
18799TIP3    H277813   2.782   6.278   1.171 -0.0707  0.6863  0.9736
18800TIP3   OH277814   4.760   1.245  15.832 -0.1445  0.0684 -0.0326
18800TIP3    H177815   4.702   1.234  15.907  0.6108  0.1111  0.5730
18800TIP3    H277816   4.721   1.191  15.763 -1.1619  0.4868  0.1985
18801TIP3   OH277817   1.134   1.926  12.319 -1.0027 -0.3743  0.7735
18801TIP3    H177818   1.182   1.979  12.383  0.2131  0.0719 -0.4665
18801TIP3    H277819   1.052   1.974  12.305 -0.4263  0.5590  0.5436
18802TIP3   OH277820   3.330   0.476  13.648 -0.4838  0.5273 -0.5699
18802TIP3    H177821   3.314   0.546  13.585 -1.5268  0.1235 -0.7732
18802TIP3    H277822   3.343   0.398  13.594  0.3644  0.4999 -0.3349
18803TIP3   OH277823   1.101   5.944  11.536  0.2006  0.1679 -0.0659
18803TIP3    H177824   1.175   5.884  11.537  0.2945  0.0464 -3.2080
18803TIP3    H277825   1.038   5.906  11.596  1.1924 -1.8037 -0.1954
18804TIP3   OH277826   0.053   5.888  13.999  0.3657 -0.4046  0.2377
18804TIP3    H177827   0.056   5.802  14.041  0.8084 -0.5495 -0.0755
18804TIP3    H277828  -0.039   5.902  13.978  0.1282 -0.3068  1.2965
18805TIP3   OH277829   0.868   4.000   5.275 -0.1621  0.7471  0.7743
18805TIP3    H177830   0.864   4.080   5.327  0.8630  1.1923  0.1900
18805TIP3    H277831   0.948   3.956   5.304  0.7416  1.2844 -0.7930
18806TIP3   OH277832   5.766   4.708   5.426 -0.5171 -0.0481 -0.0402
18806TIP3    H177833   5.688   4.659   5.397 -0.1039 -1.1154  0.5664
18806TIP3    H277834   5.823   4.640   5.462  0.3881  0.8234  0.1793
18807TIP3   OH277835   1.592   1.061   5.009  0.5079 -0.4187  0.0313
18807TIP3    H177836   1.593   1.053   5.105 -1.1625 -0.6279  0.0733
18807TIP3    H277837   1.568   1.152   4.993  4.0480  0.5997 -0.2892
18808TIP3   OH277838   2.489   5.412  13.902 -0.3092 -0.0566 -0.4620
18808TIP3    H177839   2.476   5.318  13.887 -1.3425  0.1965 -1.2982
18808TIP3    H277840   2.542   5.441  13.827  0.7716 -0.1160  0.2541
18809TIP3   OH277841   5.536   1.546  10.656 -0.4611 -0.0096 -0.2634
18809TIP3    H177842   5.444   1.568  10.672 -0.4024  0.5900 -0.7129
18809TIP3    H277843   5.535   1.488  10.580 -0.4376  0.3134 -0.5109
18810TIP3   OH277844   6.049   3.874   4.223  0.3526 -0.4029 -0.2069
18810TIP3    H177845   6.136   3.880   4.182  0.5757 -3.3598 -0.3831
18810TIP3    H277846   5.989   3.908   4.156  1.2341  0.7086 -0.4777
18811TIP3   OH277847   0.488   6.613  13.328 -0.3223 -0.2334  0.0045
18811TIP3    H177848   0.448   6.681  13.274  4.0511  2.0641 -0.7702
18811TIP3    H277849   0.515   6.545  13.265 -2.4618 -1.6643  0.4985
18812TIP3   OH277850   3.442   0.162   6.475  0.6775 -0.2244  0.1871
18812TIP3    H177851   3.351   0.133   6.484  0.7195  0.1234  2.0983
18812TIP3    H277852   3.494   0.082   6.481  0.5422 -0.3588 -0.3454
18813TIP3   OH277853   0.056   4.532  17.100 -0.1670  0.2849  0.2342
18813TIP3    H177854   0.015   4.599  17.046 -1.2483 -0.4250  0.1451
18813TIP3    H277855   0.147   4.530  17.072 -0.4455  0.7463 -0.7229
18814TIP3   OH277856   5.943   3.796   3.588  0.1959 -0.7205  0.0233
18814TIP3    H177857   5.874   3.845   3.633 -1.4211 -1.5807 -1.3829
18814TIP3    H277858   5.935   3.824   3.496 -0.1546 -2.8734 -0.6478
18815TIP3   OH277859   5.725   0.067  16.102  0.2588  0.4639  0.0119
18815TIP3    H177860   5.783   0.052  16.027 -0.3010 -3.1809  0.0848
18815TIP3    H277861   5.677   0.147  16.080  1.1649  0.3468 -2.8282
18816TIP3   OH277862   2.492   6.189  12.177  0.2393  0.0252  0.1787
18816TIP3    H177863   2.529   6.101  12.171 -0.2444 -0.1924  0.2582
18816TIP3    H277864   2.517   6.221  12.264 -0.9586 -0.6962  0.8253
18817TIP3   OH277865   2.835   6.481   0.793 -0.3124  0.6945  0.6950
18817TIP3    H177866   2.740   6.489   0.797 -0.2894  0.6603  1.6235
18817TIP3    H277867   2.866   6.571   0.780 -0.5315  0.4663 -1.9716
18818TIP3   OH277868   3.394   4.671   2.172  0.4100  0.8318 -0.2205
18818TIP3    H177869   3.414   4.759   2.204  1.5675  0.8387 -0.8867
18818TIP3    H277870   3.354   4.627   2.247  1.7171  1.2891  0.8027
18819TIP3   OH277871   1.281   3.793  16.853 -0.1309 -0.0405  0.0209
18819TIP3    H177872   1.204   3.782  16.909  0.4594  0.2861  0.9172
18819TIP3    H277873   1.308   3.884  16.867  0.0720  0.0279 -0.7521
18820TIP3   OH277874   0.890   1.670  13.127 -0.3682  0.2090  0.1855
18820TIP3    H177875   0.925   1.734  13.065 -2.1257  0.8942 -0.1543
18820TIP3    H277876   0.813   1.634  13.084  0.4093 -1.9562  0.5013
18821TIP3   OH277877   3.791   6.505  13.791  0.1363 -0.0319  0.2984
18821TIP3    H177878   3.734   6.529  13.718  1.0722 -1.3508 -0.9187
18821TIP3    H277879   3.844   6.583  13.807 -0.0434  0.2462 -0.4546
18822TIP3   OH277880   2.826   0.012   1.762  0.3817  0.0790  0.3439
18822TIP3    H177881   2.806   0.032   1.854 -0.3509  0.4453  0.1100
18822TIP3    H277882   2.743   0.020   1.717  0.7952  0.2191 -0.4144
18823TIP3   OH277883   1.471   2.924  16.294  0.7544 -0.3366 -0.4700
18823TIP3    H177884   1.541   2.871  16.331  0.0551 -1.1727 -0.3252
18823TIP3    H277885   1.451   2.989  16.361 -0.5963 -1.9241  0.7329
18824TIP3   OH277886   0.751   2.856   5.109  0.9020  0.0909 -0.0311
18824TIP3    H177887   0.796   2.825   5.187  0.7534  1.0493  0.4416
18824TIP3    H277888   0.711   2.939   5.135  0.5071  0.2193 -1.0033
18825TIP3   OH277889   5.489   0.200   0.425  0.1876 -0.3921 -0.0091
18825TIP3    H177890   5.545   0.260   0.376 -0.5607 -0.2817 -0.7634
18825TIP3    H277891   5.548   0.156   0.486  0.8598  0.6553  0.1223
18826TIP3   OH277892   3.669   3.658   1.155 -0.2427 -0.1525  0.3806
18826TIP3    H177893   3.623   3.725   1.104 -0.6067 -2.2604 -2.3016
18826TIP3    H277894   3.602   3.595   1.180  0.4803 -0.9211  0.4464
18827TIP3   OH277895   1.957   3.503   2.380  0.2647 -0.0515 -0.0603
18827TIP3    H177896   1.950   3.448   2.458 -0.7595 -0.5072 -0.4650
18827TIP3    H277897   2.026   3.463   2.328  0.9623  0.2616  0.6048
18828TIP3   OH277898   5.456   6.124  16.960 -0.0076  0.5016  0.1864
18828TIP3    H177899   5.367   6.100  16.937 -0.4966  1.4491  0.9944
18828TIP3    H277900   5.509   6.047  16.937 -1.3770 -1.0965  2.0480
18829TIP3   OH277901   6.467   4.853   0.392 -0.2540 -0.4275 -0.1650
18829TIP3    H177902   6.560   4.832   0.401 -0.5220 -1.5090  0.3527
18829TIP3    H277903   6.453   4.925   0.454  0.3365  0.1082 -0.6378
18830TIP3   OH277904   1.273   1.277   3.429  0.4897  0.2202 -0.7034
18830TIP3    H177905   1.181   1.253   3.441  0.3317  1.3507  0.5222
18830TIP3    H277906   1.321   1.195   3.444 -0.3076 -0.3968 -1.4386
18831TIP3   OH277907   3.570   1.020   1.566  0.4068 -0.0140  0.2667
18831TIP3    H177908   3.535   1.061   1.645  2.8881  0.9249  0.9982
18831TIP3    H277909   3.607   0.937   1.597  1.0244  0.1666  0.0313
18832TIP3   OH277910   3.970   2.198  12.794 -0.6796 -0.4551  0.0673
18832TIP3    H177911   3.908   2.164  12.730 -0.3420  0.5878 -0.8540
18832TIP3    H277912   3.997   2.283  12.758  1.8659 -1.2084  0.0239
18833TIP3   OH277913   6.712   0.769   0.648  0.2217  0.5638 -0.1486
18833TIP3    H177914   6.771   0.844   0.639  0.0860  0.9033  1.4894
18833TIP3    H277915   6.739   0.709   0.579  2.7071  0.5735  0.7273
18834TIP3   OH277916   6.223   0.866  16.907  0.2497 -0.2106  0.4013
18834TIP3    H177917   6.265   0.817  16.977  1.1086 -3.7904 -2.2960
18834TIP3    H277918   6.296   0.909  16.861 -0.0207  0.1869  0.3381
18835TIP3   OH277919   5.237   3.715   4.734 -0.8423  0.0827  0.1381
18835TIP3    H177920   5.307   3.650   4.722 -0.9502 -0.1351  0.6515
18835TIP3    H277921   5.247   3.744   4.825 -0.2297  1.4552 -0.3316
18836TIP3   OH277922   0.485   3.628   4.258 -0.5857 -0.1895  0.4051
18836TIP3    H177923   0.557   3.568   4.278  0.1479  0.5241  0.0092
18836TIP3    H277924   0.523   3.715   4.272 -1.9546  0.2007  2.1082
18837TIP3   OH277925   3.667   2.538   4.922 -0.3695  0.0290 -0.2718
18837TIP3    H177926   3.577   2.568   4.928 -0.1472  0.4476  1.6289
18837TIP3    H277927   3.661   2.445   4.898 -1.2662  0.1346 -0.4796
18838TIP3   OH277928   0.026   2.343  17.083  0.4587 -0.3824 -0.0637
18838TIP3    H177929  -0.048   2.317  17.137  0.1776  0.0642 -0.2208
18838TIP3    H277930   0.021   2.439  17.081  2.4535 -0.1848  1.8929
18839TIP3   OH277931   0.750   2.084  11.178 -0.3115 -0.4741 -0.2097
18839TIP3    H177932   0.782   2.143  11.247  2.4374 -1.8063 -0.2057
18839TIP3    H277933   0.816   2.091  11.109 -1.1870 -1.7648 -1.2151
18840TIP3   OH277934   1.162   5.915   6.165 -0.1222 -0.7905 -0.5942
18840TIP3    H177935   1.118   5.870   6.237  1.6492 -0.8466  0.5152
18840TIP3    H277936   1.244   5.946   6.202 -0.9715  2.9488 -1.4346
18841TIP3   OH277937   1.393   0.119  10.839 -0.2318 -0.1246  0.0337
18841TIP3    H177938   1.343   0.084  10.765 -0.8624  0.2866  0.2534
18841TIP3    H277939   1.386   0.214  10.830 -0.3938 -0.0718  0.6702
18842TIP3   OH277940   4.963   4.589   5.135  0.3755 -0.1795  0.0279
18842TIP3    H177941   5.010   4.617   5.214  1.1459 -1.5998  0.0927
18842TIP3    H277942   5.023   4.611   5.063 -0.0595  0.5345 -0.1277
18843TIP3   OH277943   2.480   1.299  16.157  0.2284 -0.1797 -0.5753
18843TIP3    H177944   2.567   1.311  16.118  1.0855 -1.7462  0.7359
18843TIP3    H277945   2.424   1.273  16.083  1.4761 -1.6570 -1.0509
18844TIP3   OH277946   2.479   3.152   4.007 -0.5546  0.4764 -0.1837
18844TIP3    H177947   2.415   3.088   3.977 -4.4187  2.6204  2.6171
18844TIP3    H277948   2.494   3.131   4.099  1.6125  0.9977 -0.3738
18845TIP3   OH277949   3.146   5.382   3.062  0.2918 -0.1347  0.4307
18845TIP3    H177950   3.210   5.361   3.131 -0.5968 -1.0052  1.0083
18845TIP3    H277951   3.067   5.408   3.110  0.4503  1.8043 -0.2765
18846TIP3   OH277952   3.616   5.806  14.285 -0.3887  0.2078 -0.3133
18846TIP3    H177953   3.633   5.840  14.373 -0.3376 -2.7913  0.9568
18846TIP3    H277954   3.646   5.715  14.289 -2.1651 -0.5838 -2.8542
18847TIP3   OH277955   1.133   6.321   0.543  0.1686 -0.1635 -0.4151
18847TIP3    H177956   1.062   6.294   0.486  0.2977  1.8165 -1.5961
18847TIP3    H277957   1.100   6.398   0.589  1.4109  0.6251 -0.7772
18848TIP3   OH277958   4.680   6.080  13.127  0.1467  0.0885  0.3625
18848TIP3    H177959   4.646   6.159  13.084 -1.5589  0.0983  1.5916
18848TIP3    H277960   4.686   6.015  13.057  0.3986  0.9537 -0.4435
18849TIP3   OH277961   6.466   2.106   4.419 -0.3512 -0.0834  0.6748
18849TIP3    H177962   6.441   2.178   4.477 -1.1614  0.4053 -0.2543
18849TIP3    H277963   6.502   2.148   4.341  0.4480 -0.7251  0.6884
18850TIP3   OH277964   3.667   2.072  16.004 -0.3116  0.2158 -1.0209
18850TIP3    H177965   3.691   2.147  15.950  0.3974  0.1512 -0.8009
18850TIP3    H277966   3.573   2.060  15.987 -0.8623  2.2082  0.2472
18851TIP3   OH277967   6.181   4.075  13.779 -0.0303  0.3231 -0.1244
18851TIP3    H177968   6.166   4.166  13.803  1.4615  1.1322 -1.9977
18851TIP3    H277969   6.234   4.040  13.850  1.8415  1.7937 -0.7073
18852TIP3   OH277970   4.378   3.387  11.605  0.6788 -0.5293 -0.5437
18852TIP3    H177971   4.361   3.381  11.511  0.5344 -1.0677 -0.4845
18852TIP3    H277972   4.441   3.317  11.623  0.1966 -0.8609 -0.1211
18853TIP3   OH277973   0.118   3.153   1.868  0.2384 -0.0225 -0.5410
18853TIP3    H177974   0.209   3.179   1.879 -0.4291  1.9562  0.8057
18853TIP3    H277975   0.107   3.146   1.773  2.2817 -2.4185 -0.6907
18854TIP3   OH277976   6.027   4.725  16.057  0.5999 -0.4573  0.1533
18854TIP3    H177977   5.973   4.667  16.111 -0.3926  2.2731  2.2990
18854TIP3    H277978   6.116   4.711  16.088  0.3555 -0.7181  0.7533
18855TIP3   OH277979   1.102   2.995  12.986 -0.4149 -0.5969 -0.2083
18855TIP3    H177980   1.083   3.088  13.003 -0.5137 -0.5768 -0.4234
18855TIP3    H277981   1.017   2.952  12.991 -0.4675 -0.5648 -0.8112
18856TIP3   OH277982   6.632   2.546   5.227 -0.5562 -0.2193 -0.5241
18856TIP3    H177983   6.666   2.462   5.196  0.8713  0.7643 -1.7964
18856TIP3    H277984   6.572   2.574   5.158  1.4165  1.2394 -1.7555
18857TIP3   OH277985   1.118   3.460   5.171 -0.2181 -0.2322  0.1089
18857TIP3    H177986   1.168   3.461   5.089 -0.2369 -0.8572  0.0838
18857TIP3    H277987   1.143   3.541   5.215 -0.8236  0.5184 -0.8808
18858TIP3   OH277988   4.662   5.071   2.669  0.2059 -0.4810 -0.2004
18858TIP3    H177989   4.668   5.158   2.629 -0.3398  1.6910  3.8758
18858TIP3    H277990   4.570   5.063   2.696  0.5557 -1.7020  0.7238
18859TIP3   OH277991   1.277   3.056   2.568  0.0129  0.5989  0.0914
18859TIP3    H177992   1.182   3.043   2.566 -0.0667  1.1841 -1.6135
18859TIP3    H277993   1.288   3.145   2.602  0.0894 -0.1227  2.1202
18860TIP3   OH277994   3.048   3.582   5.384  0.2587 -0.3214  0.4629
18860TIP3    H177995   2.987   3.656   5.387 -0.0936 -0.6322  1.3730
18860TIP3    H277996   3.121   3.613   5.330 -2.1971 -1.0944 -3.8418
18861TIP3   OH277997   4.363   0.896   3.560  0.1982  0.0868  0.2447
18861TIP3    H177998   4.399   0.983   3.575  0.3210 -0.0974  1.0352
18861TIP3    H277999   4.293   0.887   3.625 -1.1580  0.3535 -1.1066
18862TIP3   OH278000   5.401   4.386  15.882  0.5211  0.3185  0.6791
18862TIP3    H178001   5.420   4.476  15.856  0.7135  0.1998  0.4113
18862TIP3    H278002   5.461   4.332  15.831  1.6381  0.1417  2.1190
18863TIP3   OH278003   4.856   5.439   3.667  0.1553  0.1609  0.3395
18863TIP3    H178004   4.930   5.385   3.695  0.3030 -1.3136 -2.5256
18863TIP3    H278005   4.890   5.491   3.594 -1.3456  0.1783 -0.3879
18864TIP3   OH278006   2.556   6.345  16.607 -0.1199  0.0698  0.0398
18864TIP3    H178007   2.491   6.415  16.599 -0.7078 -0.5563 -0.8366
18864TIP3    H278008   2.558   6.305  16.520 -0.1896 -1.3571  0.6851
18865TIP3   OH278009   5.160   6.593  13.779  0.5171 -0.3333  0.1284
18865TIP3    H178010   5.182   6.619  13.868  0.0249  0.0068  0.1543
18865TIP3    H278011   5.165   6.498  13.779 -1.2103 -0.4447  0.9869
18866TIP3   OH278012   0.811   1.274   3.653 -0.4041 -0.0844 -0.2746
18866TIP3    H178013   0.887   1.264   3.711 -0.1612  0.2409 -0.5278
18866TIP3    H278014   0.849   1.293   3.567 -0.7700 -0.0121 -0.4230
18867TIP3   OH278015   6.188   2.274  11.190  0.4290  0.1780 -0.4394
18867TIP3    H178016   6.124   2.213  11.226 -0.5085  0.8772 -0.8766
18867TIP3    H278017   6.266   2.261  11.243 -0.3717 -0.0330  0.7086
18868TIP3   OH278018   2.148   0.509   1.314  0.4062  0.2988  0.4770
18868TIP3    H178019   2.096   0.540   1.387 -0.3383  1.6569 -0.5816
18868TIP3    H278020   2.085   0.470   1.254  1.0114 -0.8513  0.5558
18869TIP3   OH278021   2.863   4.944  14.698  0.6600  0.2062  1.1292
18869TIP3    H178022   2.832   5.001  14.768 -0.0135  0.4304  0.6590
18869TIP3    H278023   2.809   4.865  14.706 -0.0297  0.5799  0.3367
18870TIP3   OH278024   0.379   2.790   2.543  0.1197  0.3354 -0.4466
18870TIP3    H178025   0.347   2.841   2.617 -0.0018 -1.1975  0.5932
18870TIP3    H278026   0.301   2.768   2.493 -0.0412 -0.3722  0.1133
18871TIP3   OH278027   0.017   3.971   1.010  0.2107 -0.3804 -0.1659
18871TIP3    H178028  -0.065   3.936   0.973 -0.1830  2.2446 -2.0375
18871TIP3    H278029   0.083   3.951   0.944  0.6180 -0.4478  0.2628
18872TIP3   OH278030   6.179   5.696   2.879  0.6730 -0.1141  0.0917
18872TIP3    H178031   6.263   5.741   2.886  1.1898 -1.3094  3.3247
18872TIP3    H278032   6.114   5.765   2.891  0.9886  1.0316 -3.6414
18873TIP3   OH278033   5.014   4.556  16.645 -0.5117 -0.1119  0.5472
18873TIP3    H178034   5.068   4.590  16.573 -1.4352  1.8743  0.7482
18873TIP3    H278035   4.988   4.469  16.616 -3.3896  1.6864 -3.0330
18874TIP3   OH278036   2.358   6.382   3.660 -0.6008 -0.0712  0.1288
18874TIP3    H178037   2.451   6.405   3.660 -0.5014 -0.4760 -0.3496
18874TIP3    H278038   2.313   6.467   3.667 -0.2059  0.1556 -0.0517
18875TIP3   OH278039   6.245   4.846  13.423 -0.1969  0.0889  0.4548
18875TIP3    H178040   6.236   4.803  13.508  0.9728  1.5587  1.3781
18875TIP3    H278041   6.212   4.935  13.438 -0.4393  0.2262 -0.7805
18876TIP3   OH278042   1.043   2.505  16.615 -0.3052 -0.2528  0.6906
18876TIP3    H178043   1.112   2.553  16.570 -0.1940 -1.1607 -0.1473
18876TIP3    H278044   1.087   2.429  16.654 -0.6968 -0.4236  0.8103
18877TIP3   OH278045   6.738   1.425  15.212  0.2045  0.4553 -0.7255
18877TIP3    H178046   6.777   1.343  15.182 -1.1473 -0.5877  0.2405
18877TIP3    H278047   6.678   1.449  15.142 -2.2922 -1.5102  0.5704
18878TIP3   OH278048   3.458   2.735   5.185  0.2841  0.7305  0.4922
18878TIP3    H178049   3.499   2.813   5.148 -0.0939  1.2425  1.1271
18878TIP3    H278050   3.365   2.758   5.193 -0.1778 -0.4399 -0.9922
18879TIP3   OH278051   1.057   5.304   4.287 -0.3906  0.7395 -0.1567
18879TIP3    H178052   1.065   5.211   4.304  0.1414  0.5210 -1.4657
18879TIP3    H278053   1.031   5.342   4.371 -0.9795 -0.6222  0.3106
18880TIP3   OH278054   3.183   3.369  14.696  0.1197 -0.0581  0.3721
18880TIP3    H178055   3.241   3.426  14.746  1.7679 -0.3839 -1.0884
18880TIP3    H278056   3.163   3.420  14.617  1.1947 -1.2427 -0.7093
18881TIP3   OH278057   4.979   3.548  12.386  0.2118 -0.2391  0.1561
18881TIP3    H178058   4.949   3.591  12.306  2.4297  1.4512  0.1332
18881TIP3    H278059   4.899   3.537  12.438 -0.7509  2.5017 -0.5531
18882TIP3   OH278060   4.159   3.964  11.741 -0.6427  0.1736  0.3772
18882TIP3    H178061   4.179   3.966  11.834 -0.4762  0.4114  0.3343
18882TIP3    H278062   4.206   3.887  11.708 -0.8979 -0.0544  0.5315
18883TIP3   OH278063   5.125   1.324  12.206  0.2269 -0.2583 -0.0711
18883TIP3    H178064   5.101   1.304  12.296  0.2499  0.3491  0.0695
18883TIP3    H278065   5.203   1.378  12.213  1.9430 -2.5099 -0.5190
18884TIP3   OH278066   4.122   4.013   1.249 -0.2154 -0.7570 -0.1785
18884TIP3    H178067   4.156   4.053   1.329 -0.8678 -0.2740 -0.1396
18884TIP3    H278068   4.030   3.995   1.267 -0.0424 -1.8959 -0.3502
18885TIP3   OH278069   1.974   2.002   4.125  0.5280  0.2689  0.0695
18885TIP3    H178070   1.971   1.939   4.053  0.2076 -0.3672  0.6314
18885TIP3    H278071   1.975   1.948   4.204  1.7216  0.9349  0.5443
18886TIP3   OH278072   0.617   6.109  11.810  0.5066 -0.1047  0.1984
18886TIP3    H178073   0.542   6.160  11.839  0.8107  0.4063  0.1022
18886TIP3    H278074   0.692   6.166  11.824  0.7905 -0.2984 -0.4692
18887TIP3   OH278075   0.207   4.397  15.419 -0.0433 -0.0955  0.0959
18887TIP3    H178076   0.141   4.341  15.460  0.4252 -0.4641  0.3500
18887TIP3    H278077   0.206   4.372  15.326 -1.8589  1.4676 -0.3893
18888TIP3   OH278078   4.710   5.694   1.272 -0.2876 -0.2129 -0.4220
18888TIP3    H178079   4.689   5.766   1.213 -1.0999  0.0812  0.2131
18888TIP3    H278080   4.648   5.703   1.344  0.1104 -1.0927  0.0440
18889TIP3   OH278081   4.444   2.804  11.353  0.3601 -0.2990 -0.2000
18889TIP3    H178082   4.522   2.827  11.303  0.4013  1.3848  0.5489
18889TIP3    H278083   4.372   2.845  11.305  0.3963  1.2876  1.0169
18890TIP3   OH278084   3.565   3.508  13.267  0.2133 -0.2937  0.5178
18890TIP3    H178085   3.509   3.571  13.312  0.5347  0.2098  0.2268
18890TIP3    H278086   3.504   3.442  13.233 -0.7371  1.9285 -2.6625
18891TIP3   OH278087   4.221   6.762  12.190 -0.5485 -0.4423 -0.4447
18891TIP3    H178088   4.164   6.796  12.121  0.3013  0.9758 -0.4929
18891TIP3    H278089   4.249   6.840  12.238 -1.6969 -1.4454  2.0118
18892TIP3   OH278090   5.791   1.577   1.015  0.5364  0.1873  0.0613
18892TIP3    H178091   5.701   1.546   1.022  0.4835 -0.3317 -2.0421
18892TIP3    H278092   5.840   1.525   1.078 -0.6463  0.6280  1.3899
18893TIP3   OH278093   1.985   0.781   1.990  0.0818 -0.2449 -0.2966
18893TIP3    H178094   1.949   0.865   2.016  0.9588 -0.1610  0.7116
18893TIP3    H278095   1.960   0.721   2.061  2.2662 -0.0791  0.6805
18894TIP3   OH278096   0.171   1.366   3.176  0.1257 -0.0962  0.7656
18894TIP3    H178097   0.209   1.392   3.092 -0.5593 -0.1608  0.4295
18894TIP3    H278098   0.153   1.273   3.167 -1.5261  0.2288  0.3411
18895TIP3   OH278099   6.430   2.629  11.031 -0.1544  0.5828 -0.3567
18895TIP3    H178100   6.459   2.541  11.009  0.3769 -0.2394  3.1038
18895TIP3    H278101   6.508   2.684  11.019  0.7152 -0.2149  1.3484
18896TIP3   OH278102   1.082   3.685  12.196 -0.1785  0.3382 -0.0164
18896TIP3    H178103   1.020   3.754  12.173 -0.4765  0.5696  1.4004
18896TIP3    H278104   1.090   3.690  12.292  2.1960  0.4580 -0.1617
18897TIP3   OH278105   1.697   2.791   1.435 -0.5573 -0.2967  0.0812
18897TIP3    H178106   1.602   2.779   1.433 -0.7222  0.8148 -2.3968
18897TIP3    H278107   1.710   2.876   1.476 -0.6565 -0.1850 -0.1220
18898TIP3   OH278108   2.029   6.754   2.798  0.3624 -0.4068 -0.2774
18898TIP3    H178109   1.979   6.673   2.790  0.9924 -0.8991  0.6344
18898TIP3    H278110   2.074   6.763   2.714  0.5293 -1.1636 -0.2720
18899TIP3   OH278111   1.504   0.557  14.624  0.6537 -0.3270 -0.6110
18899TIP3    H178112   1.469   0.495  14.560  0.8679 -0.0131 -1.0362
18899TIP3    H278113   1.441   0.555  14.696 -0.8087  0.9890 -1.7929
18900TIP3   OH278114   1.983   0.008   1.190 -0.5609 -0.2616 -0.2076
18900TIP3    H178115   1.901  -0.027   1.155 -0.6451 -0.7381  0.4558
18900TIP3    H278116   1.995  -0.037   1.273  0.1379  0.1497 -0.0783
18901TIP3   OH278117   6.054   1.430  14.635 -1.0211  0.5340 -0.6767
18901TIP3    H178118   5.979   1.485  14.658 -1.8448 -0.5277 -0.7383
18901TIP3    H278119   6.048   1.421  14.540 -1.0564  0.1100 -0.6351
18902TIP3   OH278120   0.590   2.087  11.999  0.1001 -0.7935  0.5891
18902TIP3    H178121   0.558   2.121  12.082 -1.6197  0.2455 -0.4327
18902TIP3    H278122   0.522   2.025  11.971 -0.0198 -0.1417 -0.6413
18903TIP3   OH278123   3.086   4.636   2.128  0.6731  0.3606 -0.2743
18903TIP3    H178124   3.124   4.693   2.195  0.2778  0.2379  0.0597
18903TIP3    H278125   3.087   4.688   2.048 -1.6808  1.6996  0.4573
18904TIP3   OH278126   4.714   2.371  13.174 -0.0571 -0.3862 -0.6157
18904TIP3    H178127   4.674   2.412  13.098  0.3023  0.8852 -0.1404
18904TIP3    H278128   4.782   2.314  13.138 -1.1200 -1.2485 -1.3242
18905TIP3   OH278129   4.603   4.770   3.517  0.8163 -0.0401  0.0379
18905TIP3    H178130   4.684   4.820   3.520  0.4151  0.6239  0.1466
18905TIP3    H278131   4.553   4.802   3.592  0.8146 -1.0859  0.5039
18906TIP3   OH278132   5.711   4.603   4.806 -0.3163 -0.2377 -0.4745
18906TIP3    H178133   5.684   4.522   4.761  0.9012 -2.0353  1.7758
18906TIP3    H278134   5.807   4.597   4.810 -0.2637  0.8914  0.4711
18907TIP3   OH278135   2.873   3.320   5.301  0.0199  0.2317  0.4327
18907TIP3    H178136   2.790   3.274   5.288 -0.7433  1.2715  1.4024
18907TIP3    H278137   2.855   3.410   5.272  0.7663  0.5120  0.8174
18908TIP3   OH278138   3.682   0.127  13.964  0.2244 -0.4802 -0.3138
18908TIP3    H178139   3.615   0.063  13.987  0.1177 -0.5218 -0.7320
18908TIP3    H278140   3.637   0.190  13.908  0.2772  0.0830  0.2662
18909TIP3   OH278141   1.455   1.141  10.480  0.6109  0.2663 -0.1481
18909TIP3    H178142   1.385   1.132  10.546 -1.4019  2.4497 -1.7862
18909TIP3    H278143   1.482   1.233  10.487 -0.5366  0.9308 -3.0719
18910TIP3   OH278144   4.999   5.829   3.597  0.0554 -0.0838  0.0059
18910TIP3    H178145   5.023   5.916   3.564 -3.7410  1.1865  0.0041
18910TIP3    H278146   5.053   5.768   3.546  2.2291  2.2087 -0.6160
18911TIP3   OH278147   2.266   0.650   4.203  0.0453 -0.2516 -0.1692
18911TIP3    H178148   2.222   0.678   4.123 -1.1615 -1.0119  0.2085
18911TIP3    H278149   2.300   0.563   4.183  0.4057 -0.1335 -0.0890
18912TIP3   OH278150   4.118   0.717   6.643 -0.1795 -0.3416 -0.0795
18912TIP3    H178151   4.082   0.752   6.561  0.1949 -1.6910 -0.8411
18912TIP3    H278152   4.203   0.759   6.651 -0.0932 -0.4221 -0.5392
18913TIP3   OH278153   1.126   4.546   0.446 -0.1298 -0.0629 -0.4454
18913TIP3    H178154   1.165   4.514   0.527 -0.6580 -0.8637 -0.4956
18913TIP3    H278155   1.034   4.520   0.452  0.0540 -1.1442 -1.7786
18914TIP3   OH278156   1.657   6.622   4.668  0.2643  0.1457 -0.4081
18914TIP3    H178157   1.752   6.626   4.683  0.4016 -0.6346 -0.9949
18914TIP3    H278158   1.623   6.702   4.708  1.4183  1.5072 -1.9998
18915TIP3   OH278159   5.285   5.025   3.784  0.4565 -0.3049  0.4378
18915TIP3    H178160   5.235   4.991   3.859  0.0042  1.1113  0.8036
18915TIP3    H278161   5.368   5.053   3.821  0.7801 -0.8797  0.1576
18916TIP3   OH278162   6.446   4.576   5.033  0.6340  0.0217 -0.2193
18916TIP3    H178163   6.476   4.582   5.123  0.9194  2.2483 -0.4012
18916TIP3    H278164   6.525   4.591   4.981  0.5549 -1.6594 -0.8707
18917TIP3   OH278165   4.478   5.712   3.443  0.2170  0.4953  0.2610
18917TIP3    H178166   4.566   5.741   3.420  1.2663 -1.4936  1.5026
18917TIP3    H278167   4.461   5.752   3.529  0.1352  0.4124  0.2840
18918TIP3   OH278168   6.422   6.562  12.320  0.2419 -0.6991 -0.1131
18918TIP3    H178169   6.450   6.625  12.387  1.8951 -0.8343 -0.6262
18918TIP3    H278170   6.369   6.498  12.368  1.3757 -0.7832  1.0994
18919TIP3   OH278171   3.663   5.583  14.563 -0.3677  0.7438 -0.0271
18919TIP3    H178172   3.720   5.509  14.585  0.4874  1.7450  1.2131
18919TIP3    H278173   3.664   5.585  14.467  0.3473 -0.2686 -0.0635
18920TIP3   OH278174   4.475   3.824  11.795 -0.2949 -0.5209 -0.2812
18920TIP3    H178175   4.423   3.769  11.736 -1.1158  1.9758 -2.0259
18920TIP3    H278176   4.561   3.830  11.753 -0.1369 -0.6476  0.0218
18921TIP3   OH278177   0.794   3.826  14.735  0.3433  0.2428 -0.0286
18921TIP3    H178178   0.855   3.846  14.664  2.0129 -1.2695  0.8791
18921TIP3    H278179   0.844   3.841  14.815 -0.4273 -1.0723  0.7506
18922TIP3   OH278180   0.148   4.183   3.268 -0.2260 -0.0990  0.5462
18922TIP3    H178181   0.150   4.089   3.285  1.1975 -0.7205 -2.4721
18922TIP3    H278182   0.220   4.218   3.321  0.7049 -1.0988 -0.0087
18923TIP3   OH278183   5.375   0.355   5.682  0.7968 -0.4377  0.2092
18923TIP3    H178184   5.291   0.399   5.688  1.5138  1.1079 -0.4917
18923TIP3    H278185   5.435   0.410   5.732  1.6327 -0.8519 -0.3063
18924TIP3   OH278186   1.868   4.968   0.336 -0.1626  0.2157  0.5125
18924TIP3    H178187   1.789   4.961   0.283 -0.5125  0.8963  0.9331
18924TIP3    H278188   1.854   4.909   0.409 -0.0280 -0.1049  0.2822
18925TIP3   OH278189   0.781   3.663  14.308 -0.1996  0.2235 -0.0675
18925TIP3    H178190   0.712   3.634  14.369 -0.5990 -0.4588 -0.8210
18925TIP3    H278191   0.748   3.744  14.271  0.5698  1.2836  1.4737
18926TIP3   OH278192   6.338   0.798   0.542 -0.1860 -0.3486  0.5459
18926TIP3    H178193   6.385   0.722   0.576 -0.1994 -0.2168  0.8692
18926TIP3    H278194   6.247   0.770   0.536 -0.1488 -0.4392  0.4244
18927TIP3   OH278195   5.611   4.062   6.651 -0.4624 -0.1749  0.0835
18927TIP3    H178196   5.546   4.131   6.642 -1.0629 -0.8062 -0.5809
18927TIP3    H278197   5.572   4.001   6.714 -0.7569 -0.8053 -0.6904
18928TIP3   OH278198   4.120   6.371  15.265  0.0156  0.5384  0.2371
18928TIP3    H178199   4.136   6.462  15.238  0.4878  0.4218  0.1163
18928TIP3    H278200   4.171   6.360  15.345  1.2534 -0.0892 -0.6133
18929TIP3   OH278201   0.224   4.735   5.791 -0.3851 -0.0283  0.5203
18929TIP3    H178202   0.164   4.660   5.795  0.6691 -1.0147 -1.1290
18929TIP3    H278203   0.290   4.715   5.858 -0.9035  0.1939  1.1155
18930TIP3   OH278204   2.272   2.370   0.702  1.1243 -0.0310 -0.4981
18930TIP3    H178205   2.225   2.436   0.753  1.4555 -0.0077 -0.2192
18930TIP3    H278206   2.235   2.287   0.731  2.3866 -0.1394  0.9611
18931TIP3   OH278207   2.779   0.223   4.681  0.0506  0.3005 -0.0754
18931TIP3    H178208   2.813   0.276   4.608  1.1181  0.5153  0.5576
18931TIP3    H278209   2.712   0.168   4.641 -0.6944  1.7131 -0.8750
18932TIP3   OH278210   4.834   3.878  16.185  0.4070  0.4130  0.0090
18932TIP3    H178211   4.901   3.813  16.160  2.4989  2.5475 -0.3094
18932TIP3    H278212   4.767   3.870  16.117  0.7836 -1.1303 -0.2272
18933TIP3   OH278213   6.346   5.091   4.294  0.1745  0.0006  0.1212
18933TIP3    H178214   6.329   5.068   4.385 -0.8770  2.2577  0.5465
18933TIP3    H278215   6.260   5.091   4.252  0.6455 -0.9903 -0.9020
18934TIP3   OH278216   1.771   6.198   0.173  0.2931 -0.1287  0.2139
18934TIP3    H178217   1.829   6.273   0.179  1.3798 -0.6380 -2.4144
18934TIP3    H278218   1.782   6.151   0.256  2.1878  0.8011  0.5344
18935TIP3   OH278219   2.318   6.221  13.988 -0.0989 -0.5744  0.4312
18935TIP3    H178220   2.393   6.206  14.046 -0.4395 -1.1598  0.7338
18935TIP3    H278221   2.353   6.274  13.917  0.6924 -1.1476  0.3790
18936TIP3   OH278222   3.835   0.958  15.190  0.4150  0.0905 -0.3217
18936TIP3    H178223   3.898   0.901  15.145 -0.7245 -1.4303 -0.0600
18936TIP3    H278224   3.756   0.953  15.136  0.5381  2.1578 -0.7754
18937TIP3   OH278225   2.611   6.492   3.694 -0.1111  0.1746 -0.2097
18937TIP3    H178226   2.694   6.518   3.735  1.1260 -3.0560 -0.3965
18937TIP3    H278227   2.632   6.482   3.601 -1.6441  2.5144 -0.9039
18938TIP3   OH278228   4.373   2.609   0.054  0.4101 -0.3491 -0.2336
18938TIP3    H178229   4.411   2.521   0.047 -0.4902 -0.6547 -1.5126
18938TIP3    H278230   4.404   2.655  -0.024 -0.0836  0.0939 -0.1719
18939TIP3   OH278231   1.084   1.581  13.296  0.2756  0.5353  0.3969
18939TIP3    H178232   1.026   1.582  13.220  1.5955 -1.3637 -0.7062
18939TIP3    H278233   1.107   1.673  13.310  0.0086  0.9191 -1.4900
18940TIP3   OH278234   2.115   6.518  15.212 -0.3356 -0.1174  0.1906
18940TIP3    H178235   2.062   6.597  15.204 -0.2636 -0.1043 -0.1750
18940TIP3    H278236   2.051   6.447  15.216 -0.4293 -0.4391 -3.6193
18941TIP3   OH278237   3.253   2.484  11.404  0.2306 -0.5625 -0.2194
18941TIP3    H178238   3.302   2.460  11.483 -1.5960 -0.9773  0.8272
18941TIP3    H278239   3.271   2.412  11.343  0.0383 -1.2891  0.5587
18942TIP3   OH278240   1.554   3.160   0.429  0.4349 -0.7152 -0.3263
18942TIP3    H178241   1.490   3.227   0.407  0.9450  0.0931  0.5372
18942TIP3    H278242   1.638   3.205   0.424  0.6597 -0.6763  2.2101
18943TIP3   OH278243   6.687   5.780   3.587 -0.3381 -0.0208  0.3225
18943TIP3    H178244   6.631   5.748   3.516 -0.7230  0.4755  0.4024
18943TIP3    H278245   6.763   5.722   3.584  0.2775  0.8035 -1.3648
18944TIP3   OH278246   5.449   3.857   3.127  1.1254 -0.3357 -0.2475
18944TIP3    H178247   5.540   3.831   3.109  1.0013 -1.0852  0.1932
18944TIP3    H278248   5.419   3.896   3.045  1.6957 -0.5211 -0.5500
18945TIP3   OH278249   4.131   2.485  14.010 -0.1571 -0.0170 -0.4065
18945TIP3    H178250   4.138   2.456  14.101  2.4293 -0.0207 -0.5466
18945TIP3    H278251   4.037   2.477  13.990 -0.8094 -0.0202  2.2261
18946TIP3   OH278252   0.043   3.371  11.796  0.2959 -0.0982 -0.5183
18946TIP3    H178253   0.060   3.368  11.702 -0.6608 -1.1011 -0.6707
18946TIP3    H278254   0.045   3.280  11.824 -0.8569  0.0729  0.1644
18947TIP3   OH278255   0.187   3.983  12.785 -0.0320 -0.5005 -0.2494
18947TIP3    H178256   0.104   3.960  12.742 -1.7814  5.4997 -0.9794
18947TIP3    H278257   0.161   4.003  12.875  1.6429 -2.8442  0.8346
18948TIP3   OH278258   3.729   3.025   4.580  0.6106  0.0151 -0.0350
18948TIP3    H178259   3.639   3.013   4.611  1.0219  1.5978  1.9429
18948TIP3    H278260   3.720   3.051   4.489 -0.8831 -0.6757 -0.1112
18949TIP3   OH278261   1.526   1.107   1.904 -0.2925  0.1002  0.1939
18949TIP3    H178262   1.482   1.057   1.974  1.1065 -1.1510  0.2435
18949TIP3    H278263   1.538   1.043   1.834  1.1079  0.5038  0.0494
18950TIP3   OH278264   2.665   2.040  14.560 -0.2787 -0.3963 -0.2040
18950TIP3    H178265   2.738   2.048  14.499 -0.4282 -1.5243 -0.5539
18950TIP3    H278266   2.705   2.042  14.647 -0.1079  1.6988 -0.2874
18951TIP3   OH278267   3.689   5.940  12.827  0.0857  0.2839  0.4089
18951TIP3    H178268   3.731   5.917  12.744  0.3918  1.6589  0.1541
18951TIP3    H278269   3.757   5.983  12.878 -0.3461  0.2735  1.0106
18952TIP3   OH278270   1.624   0.732  16.180  0.0196 -0.1181  0.5607
18952TIP3    H178271   1.646   0.687  16.261  2.4241 -0.5185 -0.2416
18952TIP3    H278272   1.619   0.824  16.204  3.0798  0.0859  0.8546
18953TIP3   OH278273   0.855   6.208  14.711 -0.1631  0.2230 -0.1531
18953TIP3    H178274   0.892   6.208  14.799  0.7760  1.4621 -0.5120
18953TIP3    H278275   0.767   6.173  14.722  0.3337 -0.7098  1.0884
18954TIP3   OH278276   2.253   3.013  10.479  0.4884  0.2134 -0.1593
18954TIP3    H178277   2.314   3.080  10.510  3.0970 -1.0507 -2.1451
18954TIP3    H278278   2.278   2.934  10.526 -0.5367 -0.0596 -0.0504
18955TIP3   OH278279   6.319   3.259   5.016 -0.4239  0.0441  0.1757
18955TIP3    H178280   6.344   3.297   4.931 -0.2978 -1.3577 -0.4399
18955TIP3    H278281   6.398   3.264   5.069 -0.5988  1.2525  0.3599
18956TIP3   OH278282   0.035   2.443   3.629  0.0496  0.8085  0.1352
18956TIP3    H178283  -0.033   2.378   3.648  0.3554 -0.0951 -1.6563
18956TIP3    H278284   0.100   2.429   3.698 -0.1368 -0.4587  0.0873
18957TIP3   OH278285   5.164   0.470   2.089 -0.1150 -0.3377  0.1523
18957TIP3    H178286   5.157   0.374   2.085 -0.7346 -0.2712 -0.8497
18957TIP3    H278287   5.155   0.498   1.998 -0.8436  0.7285  0.5376
18958TIP3   OH278288   2.754   4.018  16.012 -0.0982 -0.1889 -0.3220
18958TIP3    H178289   2.848   4.035  16.004 -0.5642  2.4773 -1.0244
18958TIP3    H278290   2.738   4.012  16.106  0.6217  0.4814 -0.1487
18959TIP3   OH278291   3.823   2.156  12.565  0.0662 -0.1222 -0.1263
18959TIP3    H178292   3.759   2.093  12.531  1.9679 -3.6122  2.1571
18959TIP3    H278293   3.892   2.159  12.498 -0.6949  0.7882 -0.9072
18960TIP3   OH278294   5.858   5.112  11.474  0.1097  0.0115  0.6374
18960TIP3    H178295   5.816   5.072  11.550  0.8357 -3.9392 -0.7782
18960TIP3    H278296   5.800   5.090  11.400  0.5591  1.7438 -0.2820
18961TIP3   OH278297   6.453   2.390  14.047 -0.4377 -0.1106  0.2444
18961TIP3    H178298   6.443   2.294  14.047 -0.1409 -0.1694 -1.0271
18961TIP3    H278299   6.547   2.404  14.057 -0.2720 -0.0282 -1.2173
18962TIP3   OH278300   6.308   5.334  12.000  0.0162  0.6368 -0.2224
18962TIP3    H178301   6.307   5.371  12.088 -0.5308 -1.6707  0.8361
18962TIP3    H278302   6.223   5.358  11.963 -0.1142  0.8675  0.2219
18963TIP3   OH278303   5.515   0.562   3.284 -0.4195  0.5054  0.1699
18963TIP3    H178304   5.457   0.599   3.351 -0.6800  0.6290 -0.1190
18963TIP3    H278305   5.505   0.621   3.209 -3.2383 -1.7510 -1.4570
18964TIP3   OH278306   6.010   6.739   3.036  0.6718 -0.2006 -0.2572
18964TIP3    H178307   5.944   6.690   3.086  1.3537 -0.9978 -0.1203
18964TIP3    H278308   6.058   6.790   3.101  0.3748  0.1672 -0.3238
18965TIP3   OH278309   2.805   1.573  12.309 -0.4070  0.2892 -0.2895
18965TIP3    H178310   2.759   1.524  12.377  2.4105  0.3670  1.8350
18965TIP3    H278311   2.845   1.507  12.254 -0.8726  0.2345 -0.5699
18966TIP3   OH278312   6.234   0.355  13.712  0.3962 -0.8090 -0.0836
18966TIP3    H178313   6.241   0.334  13.619 -0.0175 -0.6282 -0.1620
18966TIP3    H278314   6.248   0.272  13.757  1.7600 -0.6901 -0.2500
18967TIP3   OH278315   2.747   5.448   6.197 -0.0406  0.1701  0.5336
18967TIP3    H178316   2.816   5.510   6.173 -0.1410  0.1105  0.0776
18967TIP3    H278317   2.684   5.501   6.246  0.5609  0.1202  1.3835
18968TIP3   OH278318   0.439   1.428  17.082  0.3447 -0.5383  0.4681
18968TIP3    H178319   0.379   1.399  17.151  0.0116 -0.9568  0.0112
18968TIP3    H278320   0.494   1.351  17.064 -1.5176 -1.4811 -1.7984
18969TIP3   OH278321   1.479   2.428  11.895  0.2381 -0.0463  0.1791
18969TIP3    H178322   1.427   2.454  11.818  1.2777  2.0552  0.1076
18969TIP3    H278323   1.549   2.493  11.899  1.0708 -0.9919  2.0691
18970TIP3   OH278324   5.202   5.576  15.839 -0.2196  0.3303 -0.3001
18970TIP3    H178325   5.238   5.643  15.781  0.6546  0.4631  0.3707
18970TIP3    H278326   5.133   5.534  15.788  0.7083  0.2629 -1.5320
18971TIP3   OH278327   4.023   2.525   2.949 -0.4701  0.1925  0.1974
18971TIP3    H178328   4.007   2.606   2.901  0.4935 -0.2376 -0.8883
18971TIP3    H278329   4.074   2.471   2.889 -1.0202 -1.1942  0.9364
18972TIP3   OH278330   0.133   3.360  14.472  0.1940 -0.4230  0.1584
18972TIP3    H178331   0.127   3.269  14.442  0.9008  0.1365 -1.8739
18972TIP3    H278332   0.162   3.353  14.563  1.6020 -2.2359 -0.3543
18973TIP3   OH278333   0.740   4.212  16.589  0.1622  0.2243  0.4730
18973TIP3    H178334   0.807   4.253  16.534  1.3453  0.6486  2.1674
18973TIP3    H278335   0.762   4.119  16.587 -0.6265  0.0284 -0.8083
18974TIP3   OH278336   1.653   1.629  10.610  0.0677 -0.1387  0.0382
18974TIP3    H178337   1.743   1.596  10.615  0.6320  1.0989 -1.3116
18974TIP3    H278338   1.637   1.668  10.696  1.3374  0.8625 -0.1430
18975TIP3   OH278339   6.628   1.918   2.708 -0.1453  0.5522  0.3227
18975TIP3    H178340   6.703   1.915   2.649 -0.7762  0.0429 -0.4901
18975TIP3    H278341   6.553   1.895   2.652 -0.4009 -3.0829  1.8800
18976TIP3   OH278342   6.198   4.436   5.025 -0.6083 -0.1806 -0.1372
18976TIP3    H178343   6.274   4.493   5.018 -1.5312  1.0224 -0.6665
18976TIP3    H278344   6.235   4.347   5.025  0.8572  0.3984  0.8653
18977TIP3   OH278345   6.369   5.872  11.023 -0.1297  0.3077 -0.0377
18977TIP3    H178346   6.348   5.959  11.056  2.1566  0.7835  0.2876
18977TIP3    H278347   6.371   5.883  10.928  0.1915  0.6383  0.0034
18978TIP3   OH278348   5.157   0.152  15.603 -0.2768 -0.0943  0.7294
18978TIP3    H178349   5.140   0.245  15.616 -1.3599  0.0608 -1.3509
18978TIP3    H278350   5.203   0.125  15.682 -0.0966  2.1511  1.4699
18979TIP3   OH278351   6.571   3.813   6.392 -0.4099  0.1763 -0.5792
18979TIP3    H178352   6.664   3.817   6.415  0.1235  1.1813 -2.7264
18979TIP3    H278353   6.527   3.802   6.476  1.5730  0.7055  0.6058
18980TIP3   OH278354   2.711   1.123  14.822 -0.5516  1.1319  0.0235
18980TIP3    H178355   2.617   1.109  14.816 -0.4966  1.3380 -2.0283
18980TIP3    H278356   2.723   1.216  14.799  0.2995  0.5275 -2.2110
18981TIP3   OH278357   3.668   5.636   1.486 -0.3438  1.1301  0.4098
18981TIP3    H178358   3.605   5.565   1.473  0.7350  0.4445 -1.5890
18981TIP3    H278359   3.705   5.651   1.399 -0.0676  3.7325  0.8927
18982TIP3   OH278360   2.014   2.712   4.928  0.4740 -0.1079 -0.8215
18982TIP3    H178361   2.056   2.728   5.013  0.6674  0.6655 -1.0504
18982TIP3    H278362   1.962   2.633   4.940  0.4427  0.0428  0.0384
18983TIP3   OH278363   4.215   6.354  12.650  0.7531  0.3312 -1.0029
18983TIP3    H178364   4.288   6.323  12.596  1.2529 -1.5111  0.6035
18983TIP3    H278365   4.138   6.339  12.596  1.4463  1.4694 -2.3799
18984TIP3   OH278366   5.155   4.035  16.533 -0.9281 -0.1434 -0.3468
18984TIP3    H178367   5.164   4.117  16.484 -2.1111 -0.2181 -0.7155
18984TIP3    H278368   5.150   3.967  16.467 -0.8145 -0.4241 -0.0704
18985TIP3   OH278369   5.321   3.302   1.554 -0.9866 -0.2236 -0.5954
18985TIP3    H178370   5.227   3.291   1.564 -0.9687  0.1812  0.0721
18985TIP3    H278371   5.359   3.246   1.622 -0.7711  0.2172 -0.3476
18986TIP3   OH278372   2.643   1.026  14.114  0.0164 -0.3390  0.2330
18986TIP3    H178373   2.597   1.088  14.057 -0.3296 -0.1066  0.7622
18986TIP3    H278374   2.575   0.969  14.148 -0.3268  1.5162  2.9596
18987TIP3   OH278375   1.850   0.738   0.753  0.3879 -0.3603 -0.1427
18987TIP3    H178376   1.788   0.753   0.682  0.0287  2.8899  0.6633
18987TIP3    H278377   1.800   0.687   0.818 -0.5105 -0.1903 -0.6786
18988TIP3   OH278378   1.218   6.465   1.923  0.0253 -0.2449 -0.4259
18988TIP3    H178379   1.215   6.526   1.849  0.1970 -1.0234 -1.1006
18988TIP3    H278380   1.296   6.412   1.907  1.1171  0.7633  1.3113
18989TIP3   OH278381   1.279   6.254   0.774 -0.4916  0.0320  0.3058
18989TIP3    H178382   1.224   6.266   0.697  0.9392  0.5640 -0.6699
18989TIP3    H278383   1.298   6.160   0.775  1.4748  0.3619 -1.4493
18990TIP3   OH278384   5.486   3.948  12.436 -0.1750 -0.7247  0.7922
18990TIP3    H178385   5.442   4.018  12.388 -0.1790 -1.0735  0.2730
18990TIP3    H278386   5.555   3.992  12.485 -1.3647 -0.0971  1.9912
18991TIP3   OH278387   2.981   0.271  12.836  0.0461  0.3364 -0.3491
18991TIP3    H178388   2.910   0.215  12.804 -0.5279 -0.7661  2.5665
18991TIP3    H278389   2.940   0.356  12.851 -0.3546  0.0776  0.0519
18992TIP3   OH278390   2.475   1.696  12.237 -0.6011 -0.3354  0.0234
18992TIP3    H178391   2.531   1.752  12.291  0.3697 -0.0924 -1.1843
18992TIP3    H278392   2.387   1.704  12.275  0.4652 -2.4159  3.3216
18993TIP3   OH278393   6.365   1.232  11.030  0.2369  0.2983  0.1056
18993TIP3    H178394   6.335   1.268  11.114 -0.7033 -1.5693  0.6456
18993TIP3    H278395   6.415   1.154  11.055 -2.7030 -2.1539 -1.0480
18994TIP3   OH278396   4.379   2.161  16.436  0.1873 -0.0058  0.3077
18994TIP3    H178397   4.323   2.219  16.383 -0.6707 -1.7283 -0.7684
18994TIP3    H278398   4.318   2.119  16.497  0.5856 -0.6561  0.2612
18995TIP3   OH278399   1.947   2.067  16.943  0.1958  0.2438 -0.2734
18995TIP3    H178400   1.914   2.147  16.903 -2.1137 -0.0322  0.8993
18995TIP3    H278401   2.032   2.053  16.903  0.6499  3.2348 -0.5584
18996TIP3   OH278402   4.156   3.939   6.405 -0.2562 -0.8117  0.1635
18996TIP3    H178403   4.222   3.930   6.337 -0.0561 -0.0782  0.2602
18996TIP3    H278404   4.165   3.859   6.457 -2.0865 -2.6384 -2.0899
18997TIP3   OH278405   5.337   6.037   3.216  0.2266  0.4081  0.5477
18997TIP3    H178406   5.309   6.125   3.242 -0.3690  0.0394  1.1970
18997TIP3    H278407   5.425   6.028   3.252 -0.5324 -0.0436  2.4442
18998TIP3   OH278408   4.126   4.255   5.718  0.4886  0.7719 -0.2786
18998TIP3    H178409   4.076   4.336   5.711 -1.9555 -0.4864  1.4371
18998TIP3    H278410   4.212   4.282   5.752  0.0850  2.7121 -0.7294
18999TIP3   OH278411   3.246   1.349  14.273  0.3717  0.5081  0.6339
18999TIP3    H178412   3.238   1.302  14.356 -0.2242  1.8852  1.4014
18999TIP3    H278413   3.261   1.281  14.208 -0.1497 -0.6983  1.7264
19000TIP3   OH278414   1.947   0.435  15.600 -0.0832 -0.2550  0.1225
19000TIP3    H178415   1.856   0.405  15.604 -0.1585 -0.3118 -1.4769
19000TIP3    H278416   1.999   0.354  15.600 -0.1549 -0.3176 -1.2906
19001TIP3   OH278417   6.683   1.164   4.547 -0.3959 -0.2044 -0.1594
19001TIP3    H178418   6.675   1.069   4.542 -1.5798 -0.1607  0.7077
19001TIP3    H278419   6.593   1.196   4.554  0.0542  0.8393  1.5825
19002TIP3   OH278420   6.460   5.238   0.568  0.3683  0.2578 -0.1443
19002TIP3    H178421   6.428   5.230   0.658 -0.2504  1.2211 -0.2747
19002TIP3    H278422   6.518   5.314   0.570  2.2382 -1.0913 -0.0533
19003TIP3   OH278423   1.160   1.974  14.854 -0.3929 -0.6865  0.4622
19003TIP3    H178424   1.243   1.935  14.881  0.3313  0.8601  0.6003
19003TIP3    H278425   1.160   1.966  14.758 -0.5014 -1.4689  0.5237
19004TIP3   OH278426   6.497   6.099   4.409  0.4117  0.2702 -0.3950
19004TIP3    H178427   6.571   6.038   4.418 -0.8358 -1.2947 -0.3410
19004TIP3    H278428   6.463   6.082   4.321 -0.5660  0.1474 -0.0011
19005TIP3   OH278429   5.797   1.209   1.355 -0.1542  0.2424 -0.8900
19005TIP3    H178430   5.865   1.186   1.417 -1.8188 -1.7371  0.3170
19005TIP3    H278431   5.718   1.219   1.408 -1.1872  0.7523 -2.4330
19006TIP3   OH278432   5.939   4.052  16.962  0.4094  0.4138  0.2058
19006TIP3    H178433   5.872   4.005  17.012  1.4805 -0.5409  0.7750
19006TIP3    H278434   5.924   4.144  16.984 -0.5929  0.2025  0.4708
19007TIP3   OH278435   6.294   3.745   1.928  0.5024  0.0608  0.8909
19007TIP3    H178436   6.232   3.677   1.955  1.1562 -1.1021 -0.4165
19007TIP3    H278437   6.363   3.743   1.995  0.8255 -1.0050  0.5395
19008TIP3   OH278438   1.469   3.144   1.039  0.9951  0.5418  0.4588
19008TIP3    H178439   1.514   3.209   1.095  2.1011 -0.0995  0.3499
19008TIP3    H278440   1.423   3.087   1.101  2.0328 -0.0305  0.7367
19009TIP3   OH278441   5.406   3.143  16.561  0.1483 -0.0453 -0.3936
19009TIP3    H178442   5.501   3.152  16.568  0.1314 -0.5468  0.6109
19009TIP3    H278443   5.372   3.177  16.644 -0.5429 -0.0370 -0.6716
19010TIP3   OH278444   0.301   4.823   0.883  0.2767 -0.3241 -0.5237
19010TIP3    H178445   0.277   4.812   0.791  2.3567 -0.2373 -1.1236
19010TIP3    H278446   0.262   4.906   0.909  0.0360 -0.1338 -1.4708
19011TIP3   OH278447   4.008   1.945   0.110  0.3445  0.7686  1.0679
19011TIP3    H178448   4.035   1.984   0.027  0.5178  1.3978  1.4144
19011TIP3    H278449   4.089   1.910   0.148  0.6848  2.5216  2.0351
19012TIP3   OH278450   2.265   3.265  10.257 -0.4263  0.7674  0.2787
19012TIP3    H178451   2.239   3.336  10.316  3.0315  2.1166  0.4068
19012TIP3    H278452   2.233   3.186  10.301 -0.6923  1.9369  2.3612
19013TIP3   OH278453   6.527   0.557  13.942 -0.5034  0.1848 -0.0352
19013TIP3    H178454   6.474   0.509  14.006  1.9291 -1.3754  0.9488
19013TIP3    H278455   6.615   0.520  13.951  0.1827  0.5370 -3.6432
19014TIP3   OH278456   4.078   0.768  16.541 -0.2380  0.5968  0.1951
19014TIP3    H178457   3.990   0.798  16.518 -0.5323  1.6989  2.5194
19014TIP3    H278458   4.118   0.843  16.585  1.5303 -0.2124  0.0480
19015TIP3   OH278459   3.842   6.432  14.740  0.0597 -1.5382 -0.3104
19015TIP3    H178460   3.842   6.372  14.665 -0.5538 -0.4820 -1.1826
19015TIP3    H278461   3.922   6.483  14.730 -0.7496 -0.3875 -1.1015
19016TIP3   OH278462   0.688   0.458  12.767 -0.0945 -0.1105 -0.2917
19016TIP3    H178463   0.596   0.478  12.749  0.1328  1.0897 -0.1714
19016TIP3    H278464   0.710   0.513  12.842  1.3008  1.1980 -1.6047
19017TIP3   OH278465   5.768   6.567  15.134 -0.1086  0.6572  0.1774
19017TIP3    H178466   5.767   6.480  15.093  1.9773  1.6640 -2.2212
19017TIP3    H278467   5.681   6.574  15.174 -1.1148 -1.7208 -1.3020
19018TIP3   OH278468   0.418   2.372   1.439 -0.8504 -0.2799  0.5223
19018TIP3    H178469   0.372   2.292   1.417 -0.9230 -0.1769  0.2948
19018TIP3    H278470   0.452   2.357   1.528  0.4262 -1.1477 -0.0832
19019TIP3   OH278471   5.102   2.372   3.839 -0.2612  0.4277  0.7498
19019TIP3    H178472   5.048   2.302   3.876  3.1407 -3.1622 -0.3534
19019TIP3    H278473   5.142   2.413   3.916 -1.4565  0.4267  1.3955
19020TIP3   OH278474   1.576   0.719   2.449 -0.7409  0.0928 -0.2846
19020TIP3    H178475   1.621   0.682   2.526  2.6596  1.4190 -1.4810
19020TIP3    H278476   1.528   0.644   2.412  2.9893 -2.3888 -0.6133
19021TIP3   OH278477   1.577   0.408   1.900  0.2538 -0.2797 -0.0445
19021TIP3    H178478   1.554   0.320   1.928  0.7360 -0.2246  0.5417
19021TIP3    H278479   1.665   0.399   1.862 -1.3348 -0.8803 -4.1230
19022TIP3   OH278480   5.435   4.518  12.992 -0.0236  0.2560 -0.3032
19022TIP3    H178481   5.434   4.556  12.904  1.3188  1.1700  0.0333
19022TIP3    H278482   5.521   4.543  13.027 -1.0883  1.2233  1.8113
19023TIP3   OH278483   3.942   3.216   5.753  0.0765 -0.1530 -0.0214
19023TIP3    H178484   3.876   3.274   5.791  0.0239  0.0357 -0.3980
19023TIP3    H278485   4.014   3.216   5.816 -0.0061  0.1657  0.0727
19024TIP3   OH278486   4.965   5.803  13.591  0.3993 -0.0491 -0.1427
19024TIP3    H178487   5.036   5.806  13.526  1.3186  0.2601  0.8533
19024TIP3    H278488   4.885   5.805  13.538  1.0927 -1.6210 -1.3708
19025TIP3   OH278489   2.558   5.606   3.269  0.8993 -0.7129  0.1730
19025TIP3    H178490   2.558   5.530   3.327 -0.1675 -0.8691 -0.0105
19025TIP3    H278491   2.544   5.681   3.327 -1.0509 -0.9446  0.0751
19026TIP3   OH278492   3.929   0.650  15.003 -0.1250 -0.2365  0.1635
19026TIP3    H178493   3.858   0.673  15.063 -0.7320  1.1447 -1.0268
19026TIP3    H278494   3.951   0.732  14.959  1.1751 -0.9525 -0.5901
19027TIP3   OH278495   3.867   4.432   2.900  0.2762 -0.3781  0.4303
19027TIP3    H178496   3.909   4.486   2.834  0.6089 -1.3972 -0.2187
19027TIP3    H278497   3.787   4.480   2.923 -1.1228 -1.0536 -2.4730
19028TIP3   OH278498   0.448   3.526   5.044  0.0375  0.4751  1.2144
19028TIP3    H178499   0.528   3.514   4.993 -0.2841 -0.4105  0.8905
19028TIP3    H278500   0.462   3.607   5.093  0.5272  1.1197  0.0411
19029TIP3   OH278501   0.578   2.832  12.788 -0.2254 -0.4712  0.1467
19029TIP3    H178502   0.519   2.860  12.858  1.2901  0.2091  1.2086
19029TIP3    H278503   0.622   2.755  12.824  0.5157 -0.1515 -0.0572
19030TIP3   OH278504   0.456   6.398  11.063  0.0087  0.1040  0.0176
19030TIP3    H178505   0.513   6.337  11.110 -0.7802 -0.4933  0.2251
19030TIP3    H278506   0.393   6.342  11.018  0.8130  0.6543 -1.8822
19031TIP3   OH278507   2.596   1.194  13.717 -0.2582  0.3992  0.1297
19031TIP3    H178508   2.516   1.205  13.768 -0.6142 -0.0873 -0.3208
19031TIP3    H278509   2.592   1.105  13.684  0.5267  0.3303  0.1922
19032TIP3   OH278510   2.183   6.716   5.374  0.6527  0.1148  0.7842
19032TIP3    H178511   2.194   6.806   5.344  0.9296  0.3603  1.6065
19032TIP3    H278512   2.211   6.663   5.299 -2.9203  0.6106 -1.1063
19033TIP3   OH278513   3.653   1.224  14.410 -0.3595  0.0408  0.2810
19033TIP3    H178514   3.702   1.305  14.395  0.3390 -0.2249  1.0222
19033TIP3    H278515   3.606   1.240  14.492  0.3369 -0.5501  0.8014
19034TIP3   OH278516   2.594   1.237   2.945  0.0490  0.1223  0.2458
19034TIP3    H178517   2.650   1.188   2.884 -1.4985  0.5697 -1.6558
19034TIP3    H278518   2.649   1.254   3.021  2.5068  0.5325 -1.5146
19035TIP3   OH278519   6.731   5.855   3.857 -0.1619  0.2940  0.7459
19035TIP3    H178520   6.818   5.865   3.819  1.4455  1.1047  4.2230
19035TIP3    H278521   6.680   5.809   3.790  2.8940 -0.2104 -1.4318
19036TIP3   OH278522   5.795   5.911   5.687 -0.3105  0.6131 -0.4747
19036TIP3    H178523   5.877   5.867   5.711 -0.5469  0.2674 -0.3142
19036TIP3    H278524   5.794   5.989   5.743 -0.8403 -0.1674  0.6344
19037TIP3   OH278525   2.951   4.248   2.432  0.4638 -0.4580  0.0068
19037TIP3    H178526   3.005   4.271   2.357  2.4319  0.9383  1.7129
19037TIP3    H278527   2.866   4.288   2.415  1.3263  1.0915 -0.8112
19038TIP3   OH278528   3.665   4.001   2.479  0.6197 -0.3336  0.2821
19038TIP3    H178529   3.739   4.051   2.444  1.1058 -1.1014  0.2014
19038TIP3    H278530   3.591   4.063   2.476  0.7399 -0.2296 -1.6953
19039TIP3   OH278531   0.896   0.332  10.851 -0.4673 -0.0284  0.1030
19039TIP3    H178532   0.850   0.345  10.934 -0.4960 -0.9923  0.2507
19039TIP3    H278533   0.873   0.409  10.799  0.5359  1.2109  1.4196
19040TIP3   OH278534   3.516   4.070   0.851  0.7712 -0.7264 -0.4704
19040TIP3    H178535   3.462   3.999   0.817  1.6796 -1.9668  0.5879
19040TIP3    H278536   3.606   4.037   0.847  1.3824  0.8666 -1.1536
19041TIP3   OH278537   2.237   1.992   0.053 -0.4215 -0.2731 -0.2077
19041TIP3    H178538   2.145   2.013   0.064 -0.6861 -2.0952  1.8926
19041TIP3    H278539   2.280   2.029   0.131 -0.0845 -2.6515  0.8353
19042TIP3   OH278540   1.332   0.702   4.326 -0.1287  0.1046  0.5659
19042TIP3    H178541   1.364   0.659   4.246  0.8812  1.3092  0.2881
19042TIP3    H278542   1.286   0.779   4.294 -2.5214 -1.0495  1.0246
19043TIP3   OH278543   4.594   3.789  16.358  0.7313  0.6046 -0.3676
19043TIP3    H178544   4.506   3.824  16.348  0.9788  1.1345 -0.6962
19043TIP3    H278545   4.649   3.865  16.377  1.0266  0.2071  0.4324
19044TIP3   OH278546   6.386   5.514   4.543  0.0643  0.3205 -0.8894
19044TIP3    H178547   6.290   5.516   4.539  0.0666  0.9032 -0.7956
19044TIP3    H278548   6.413   5.468   4.464 -0.2786  0.6038 -1.1736
19045TIP3   OH278549   5.904   3.099   5.756 -0.0195  0.5820 -0.3493
19045TIP3    H178550   5.976   3.075   5.698  0.4315 -0.2097  0.5230
19045TIP3    H278551   5.934   3.180   5.799  1.1022 -0.6249  1.2471
19046TIP3   OH278552   1.599   0.961   2.922 -0.0599 -0.0167  0.5008
19046TIP3    H178553   1.673   0.944   2.865  0.9095 -2.7956  2.3312
19046TIP3    H278554   1.524   0.923   2.876  0.6318 -1.8266  0.7446
19047TIP3   OH278555   0.931   1.627  16.955  0.4569 -0.0530  0.3457
19047TIP3    H178556   0.901   1.717  16.968 -0.9710 -0.0475 -2.2521
19047TIP3    H278557   0.869   1.590  16.892  1.2484 -2.7467  1.0361
19048TIP3   OH278558   4.682   3.461   5.189  0.0086  0.2112 -0.3016
19048TIP3    H178559   4.626   3.427   5.119 -0.5782 -0.4843  0.4773
19048TIP3    H278560   4.754   3.398   5.195  0.5366  0.7501 -0.8619
19049TIP3   OH278561   3.947   6.003   0.474 -0.4491 -0.1840  0.1700
19049TIP3    H178562   3.957   6.067   0.404 -1.3083 -1.8599 -1.5582
19049TIP3    H278563   3.892   6.047   0.539  1.5860  1.9531  0.6074
19050TIP3   OH278564   6.338   0.182   2.832 -0.3904 -0.4099 -0.0533
19050TIP3    H178565   6.310   0.129   2.757 -1.5159  1.2495 -0.8722
19050TIP3    H278566   6.367   0.118   2.897  1.2532 -1.9306 -2.0958
19051TIP3   OH278567   1.748   6.416   6.379 -0.6068 -0.4290 -0.2265
19051TIP3    H178568   1.808   6.442   6.309 -0.1149  0.4870  0.4970
19051TIP3    H278569   1.704   6.497   6.404 -1.6004 -0.9551 -0.2250
19052TIP3   OH278570   3.958   0.642  17.160  0.4556  0.3394  0.3596
19052TIP3    H178571   3.916   0.664  17.076  2.9908 -0.4426 -1.2117
19052TIP3    H278572   4.040   0.599  17.135 -0.4455 -3.5268  3.2353
19053TIP3   OH278573   1.312   4.181   4.659 -0.2616  0.0449 -0.1837
19053TIP3    H178574   1.317   4.254   4.598  0.5468  1.4840  1.4983
19053TIP3    H278575   1.221   4.180   4.689 -0.7853 -0.9738 -1.6917
19054TIP3   OH278576   5.545   3.409  14.784 -0.0812 -0.0564  0.7744
19054TIP3    H178577   5.456   3.377  14.802 -0.1699  1.2286  3.0596
19054TIP3    H278578   5.602   3.345  14.826  0.2193 -1.4394 -1.5586
19055TIP3   OH278579   3.229   6.513  13.624  0.5001  0.2327  0.2141
19055TIP3    H178580   3.295   6.486  13.560 -0.1294  0.8387 -0.7339
19055TIP3    H278581   3.146   6.500  13.579  0.1154  2.6797  0.0630
19056TIP3   OH278582   0.771   0.715   0.802  0.2333  0.1250  0.2535
19056TIP3    H178583   0.760   0.644   0.739  1.0981 -1.1733  1.5118
19056TIP3    H278584   0.814   0.784   0.752  0.8162 -0.8369 -0.6160
19057TIP3   OH278585   1.995   2.991   4.540  0.6250 -0.6189 -0.4014
19057TIP3    H178586   2.073   2.957   4.585  1.3825  0.2320 -1.0217
19057TIP3    H278587   1.924   2.932   4.566  0.8052  0.3735  2.5894
19058TIP3   OH278588   1.024   6.303  15.801  0.1718  0.3999  0.5823
19058TIP3    H178589   1.084   6.232  15.824 -0.4867  0.0987  1.4217
19058TIP3    H278590   1.051   6.377  15.855  1.2302  1.0174 -0.7085
19059TIP3   OH278591   0.921   5.090   0.923  0.5906 -0.2108  0.2986
19059TIP3    H178592   0.922   4.999   0.952  2.2396  0.2137  1.7243
19059TIP3    H278593   0.885   5.138   0.997  2.2523  0.5722  0.6444
19060TIP3   OH278594   3.284   1.214  15.978  0.0030 -0.3470  0.3541
19060TIP3    H178595   3.264   1.155  15.905  1.1980 -1.5082  0.9238
19060TIP3    H278596   3.238   1.295  15.957 -0.4104 -0.9629 -1.2345
19061TIP3   OH278597   2.952   4.110   5.411 -0.0974  0.2421 -0.1528
19061TIP3    H178598   2.971   4.041   5.474  3.3907  0.6924 -0.5257
19061TIP3    H278599   2.937   4.188   5.464 -0.8153 -0.0925  0.1601
19062TIP3   OH278600   3.575   3.502   4.337  0.6443 -0.4986 -0.1299
19062TIP3    H178601   3.658   3.468   4.305  0.9587 -1.1908  1.3451
19062TIP3    H278602   3.543   3.558   4.266  0.6038 -3.0115 -2.2562
19063TIP3   OH278603   6.599   6.318   5.902  0.2376 -0.4910  0.4979
19063TIP3    H178604   6.597   6.312   5.998 -0.0804  1.5657  0.6561
19063TIP3    H278605   6.655   6.245   5.876  1.4315 -0.3270  2.3437
19064TIP3   OH278606   5.621   5.457  14.934 -0.1774  0.1601 -0.4788
19064TIP3    H178607   5.677   5.380  14.941  1.2166  1.2133  0.2693
19064TIP3    H278608   5.576   5.445  14.850  1.0593 -0.7773 -1.0396
19065TIP3   OH278609   3.517   4.491  15.581  0.4672  0.1089 -0.2837
19065TIP3    H178610   3.472   4.541  15.649 -2.0298 -0.6300 -1.2731
19065TIP3    H278611   3.572   4.429  15.630  0.2819  0.9353  1.0158
19066TIP3   OH278612   3.357   1.522  16.503 -0.2355  0.2479  0.6929
19066TIP3    H178613   3.280   1.520  16.559 -0.8461 -0.4324 -0.1495
19066TIP3    H278614   3.343   1.595  16.444  0.1871  0.6671  1.0977
19067TIP3   OH278615   3.130   0.385   3.889  0.2417 -0.1895 -0.1490
19067TIP3    H178616   3.123   0.423   3.976  2.9807 -0.5881  0.3421
19067TIP3    H278617   3.100   0.454   3.830 -0.3344  0.5967  1.0271
19068TIP3   OH278618   6.455   6.789   0.036 -0.3613  0.6487 -0.1870
19068TIP3    H178619   6.544   6.824   0.043 -0.4423  0.8308 -0.0592
19068TIP3    H278620   6.456   6.737  -0.044 -0.3229  1.1884 -0.5432
19069TIP3   OH278621   4.495   5.364  12.144  0.5506 -0.3901 -0.1890
19069TIP3    H178622   4.437   5.354  12.068 -0.5192 -0.2751  0.5881
19069TIP3    H278623   4.579   5.328  12.115 -0.6841 -3.3625 -0.4227
19070TIP3   OH278624   3.788   5.006  13.407 -0.0031 -0.1004  0.4746
19070TIP3    H178625   3.835   5.022  13.326  1.2434 -0.3738  1.1260
19070TIP3    H278626   3.830   4.929  13.445 -0.1420  0.3911  1.6846
19071TIP3   OH278627   5.153   1.778   1.368  1.0658  0.2362 -0.5824
19071TIP3    H178628   5.166   1.780   1.274  1.2013  1.1655 -0.5466
19071TIP3    H278629   5.122   1.865   1.391  1.0961  0.0440  0.2423
19072TIP3   OH278630   4.401   4.995   2.721  0.1770 -0.3408 -0.2833
19072TIP3    H178631   4.383   4.925   2.658 -1.8890 -1.5062  1.4960
19072TIP3    H278632   4.330   5.058   2.707 -0.7811 -1.0028  1.3519
19073TIP3   OH278633   2.259   2.054   6.216 -0.0634 -0.4494 -0.3847
19073TIP3    H178634   2.340   2.105   6.221  0.3548 -1.2245  1.5915
19073TIP3    H278635   2.189   2.119   6.218  0.4850  0.1760 -1.0611
19074TIP3   OH278636   0.950   2.581  16.120  0.2908 -0.0406  0.3355
19074TIP3    H178637   0.961   2.674  16.139 -0.0101 -0.1032  0.8585
19074TIP3    H278638   1.032   2.554  16.081  0.9050  0.1486  1.4464
19075TIP3   OH278639   5.912   6.233   6.407  0.4492 -0.7326  0.2979
19075TIP3    H178640   5.998   6.215   6.445 -0.1166 -0.6392  1.6895
19075TIP3    H278641   5.879   6.307   6.458  0.1501  0.2264 -1.2164
19076TIP3   OH278642   4.512   1.037  13.518  0.1561  0.3309 -0.7579
19076TIP3    H178643   4.498   1.001  13.430  0.1492 -0.3520 -0.4827
19076TIP3    H278644   4.605   1.057  13.521  0.1562  0.3553 -0.9201
19077TIP3   OH278645   1.018   4.548  15.441  0.6695 -0.4739  0.2313
19077TIP3    H178646   1.082   4.580  15.377  0.6395  0.4164  0.6323
19077TIP3    H278647   0.940   4.601  15.426  0.2554 -1.0934  0.1971
19078TIP3   OH278648   2.813   0.816  14.441  0.3366  0.0815  0.7385
19078TIP3    H178649   2.787   0.798  14.531  1.8785 -0.3480  1.1260
19078TIP3    H278650   2.838   0.908  14.441  0.8816 -0.0655  0.8908
19079TIP3   OH278651   1.207   3.168  11.729  0.0049 -0.4457  0.1734
19079TIP3    H178652   1.163   3.246  11.762 -1.1112 -0.9896  0.0146
19079TIP3    H278653   1.280   3.201  11.677  0.1193  0.4674  0.8865
19080TIP3   OH278654   3.175   0.103  13.812  0.0172 -0.0343  0.2050
19080TIP3    H178655   3.242   0.069  13.752 -1.2673  0.4793 -1.6323
19080TIP3    H278656   3.142   0.025  13.857  0.1391 -0.6482 -0.7289
19081TIP3   OH278657   4.419   0.325  12.236  0.7213 -0.5264 -0.1960
19081TIP3    H178658   4.377   0.353  12.155  0.0526 -1.2098 -0.0976
19081TIP3    H278659   4.428   0.405  12.287 -2.1393 -0.5606  0.5323
19082TIP3   OH278660   4.728   1.071   1.875  0.2115  0.0288  0.5351
19082TIP3    H178661   4.678   1.121   1.811 -1.9521 -1.0309  1.2944
19082TIP3    H278662   4.808   1.047   1.829 -0.7006  0.3896 -1.3503
19083TIP3   OH278663   4.042   2.487  14.280  0.6049  0.1112  0.2182
19083TIP3    H178664   3.964   2.541  14.265  0.0295 -0.9141 -0.6366
19083TIP3    H278665   4.027   2.447  14.366 -0.1628 -0.6023 -0.2253
19084TIP3   OH278666   0.468   2.107   5.387 -0.3667  0.3038 -0.4704
19084TIP3    H178667   0.440   2.155   5.465 -0.2997  0.3351 -0.4652
19084TIP3    H278668   0.556   2.142   5.368 -0.3564  0.2499 -0.5213
19085TIP3   OH278669   5.544   1.932  12.378 -0.0309 -0.7290 -0.1998
19085TIP3    H178670   5.479   1.864  12.398 -1.1369 -0.1083 -1.4637
19085TIP3    H278671   5.517   1.965  12.292  1.0236  0.6793 -0.0194
19086TIP3   OH278672   2.544   3.924  12.024  0.2045  0.3464  0.0713
19086TIP3    H178673   2.620   3.872  11.999  0.3285  1.4614 -2.1594
19086TIP3    H278674   2.514   3.963  11.941 -0.7386  2.6403  1.4129
19087TIP3   OH278675   3.279   6.407   1.405  0.4567  0.8372  0.3077
19087TIP3    H178676   3.346   6.344   1.431 -0.8265 -0.3062  1.0212
19087TIP3    H278677   3.205   6.388   1.463 -1.1468  0.7876 -1.6499
19088TIP3   OH278678   3.036   3.260  16.167 -1.1538  0.2673 -0.1823
19088TIP3    H178679   3.069   3.280  16.079 -0.9520  0.4614 -0.0631
19088TIP3    H278680   2.972   3.329  16.184  0.6733  1.7983  0.8660
19089TIP3   OH278681   1.735   4.691   1.143 -0.4418  0.0999  0.2656
19089TIP3    H178682   1.766   4.780   1.125 -0.1913  0.2866  1.5726
19089TIP3    H278683   1.639   4.697   1.136 -0.5005  0.7404  1.4761
19090TIP3   OH278684   6.459   3.311   1.454  0.0704 -0.1831  0.1545
19090TIP3    H178685   6.484   3.386   1.400 -0.1543  0.4004  0.8428
19090TIP3    H278686   6.379   3.278   1.414 -0.2227  0.3879  0.2580
19091TIP3   OH278687   0.513   0.798  17.094  0.2842 -0.3923  0.5498
19091TIP3    H178688   0.522   0.792  16.999 -1.6430  1.1624  0.2136
19091TIP3    H278689   0.592   0.844  17.123 -0.6633  2.2276 -0.7525
19092TIP3   OH278690   1.228   1.709  12.639 -0.1550 -0.1970  0.3256
19092TIP3    H178691   1.132   1.711  12.636 -0.2869 -2.0893  1.5329
19092TIP3    H278692   1.249   1.688  12.730  1.4297  0.3467  0.1214
19093TIP3   OH278693   5.889   5.451   4.086  0.2382  0.1182  0.1856
19093TIP3    H178694   5.897   5.404   4.003 -1.3901  2.0472 -1.1626
19093TIP3    H278695   5.967   5.506   4.090  2.6044 -3.0060  2.1801
19094TIP3   OH278696   0.528   6.698   1.147  0.0791 -0.2989  0.6007
19094TIP3    H178697   0.526   6.688   1.242 -2.7426 -0.8546  0.5485
19094TIP3    H278698   0.550   6.790   1.133 -1.4331  0.2832  1.8657
19095TIP3   OH278699   3.904   1.217   0.769 -0.0855 -0.3303 -0.0853
19095TIP3    H178700   3.918   1.288   0.832 -2.2797 -0.3396  0.4722
19095TIP3    H278701   3.854   1.258   0.699  0.2657 -0.9009 -0.6703
19096TIP3   OH278702   1.444   3.896   5.254  0.8692  0.7712  0.2449
19096TIP3    H178703   1.480   3.878   5.340 -0.0304  0.9761  0.6784
19096TIP3    H278704   1.475   3.824   5.199 -1.2623 -1.2710  1.5153
19097TIP3   OH278705   6.014   0.819   1.010 -0.1111 -0.2212  0.3060
19097TIP3    H178706   6.007   0.914   1.020  1.5444  0.0113 -0.4680
19097TIP3    H278707   6.075   0.791   1.078  1.0265 -0.4240 -0.7725
19098TIP3   OH278708   6.395   1.292   3.469  0.8867  0.1488 -0.7805
19098TIP3    H178709   6.388   1.385   3.447 -1.2049  0.1749 -0.2601
19098TIP3    H278710   6.353   1.285   3.555  1.0382 -1.2683 -0.8054
19099TIP3   OH278711   2.983   5.469  17.111  0.3189  0.6969  0.4601
19099TIP3    H178712   3.006   5.534  17.045  1.0251 -1.0492 -1.1089
19099TIP3    H278713   3.066   5.424  17.130 -0.2600 -0.1797  1.0062
19100TIP3   OH278714   1.498   3.016   3.746  0.2835 -0.3873 -0.3727
19100TIP3    H178715   1.562   3.034   3.815  0.7137  1.2299 -1.1462
19100TIP3    H278716   1.426   2.973   3.792  1.5470 -1.4795  0.6563
19101TIP3   OH278717   5.155   1.164   5.149 -0.1647  0.6376 -0.0294
19101TIP3    H178718   5.143   1.259   5.152  1.1321  0.8021  0.5415
19101TIP3    H278719   5.248   1.151   5.170 -0.5984 -0.8251  1.1571
19102TIP3   OH278720   4.526   4.903   4.487  0.4068 -0.5045 -0.3219
19102TIP3    H178721   4.593   4.852   4.442  0.7858  0.1142 -0.4719
19102TIP3    H278722   4.563   4.920   4.574  0.0405 -0.9675 -0.0720
19103TIP3   OH278723   3.587   6.284   6.872  0.4413  0.5344  0.4620
19103TIP3    H178724   3.646   6.230   6.819 -0.7875  0.4659 -0.9106
19103TIP3    H278725   3.603   6.257   6.962  0.9509 -1.0325 -0.0726
19104TIP3   OH278726   4.497   2.218  11.945  0.4341 -0.0750 -0.3595
19104TIP3    H178727   4.535   2.225  12.033  0.2161  3.3496 -0.3898
19104TIP3    H278728   4.561   2.168  11.895  2.1204  0.6145  0.9951
19105TIP3   OH278729   4.084   4.945  12.969 -0.2606 -0.0019 -0.5591
19105TIP3    H178730   4.120   5.001  12.901  3.0904  3.4169  3.4692
19105TIP3    H278731   4.010   4.994  13.004 -1.0069 -0.9992 -0.6881
19106TIP3   OH278732   2.853   1.827  14.803  0.4409 -0.0446 -0.4788
19106TIP3    H178733   2.907   1.840  14.881  0.6650  0.8879 -0.7843
19106TIP3    H278734   2.764   1.849  14.832  0.4478 -0.1600 -0.3654
19107TIP3   OH278735   2.990   4.470   5.410  0.5247 -0.0987  0.3596
19107TIP3    H178736   2.998   4.566   5.403 -1.8542  0.1210 -0.1768
19107TIP3    H278737   2.968   4.442   5.321  0.9548 -1.1467  0.5675
19108TIP3   OH278738   4.182   6.722  13.173  0.3698  0.4913  0.1510
19108TIP3    H178739   4.144   6.747  13.258 -1.9409 -1.2901 -0.2490
19108TIP3    H278740   4.244   6.653  13.194  0.2778  0.4965  0.4480
19109TIP3   OH278741   1.649   1.648  16.413 -0.2983 -0.5358 -0.2920
19109TIP3    H178742   1.698   1.642  16.495  1.4968 -0.5437 -1.3311
19109TIP3    H278743   1.678   1.573  16.362 -0.3060  0.2686 -1.5035
19110TIP3   OH278744   0.470   1.072   2.494 -0.4355  0.0746  0.3711
19110TIP3    H178745   0.467   1.118   2.410 -0.9603  0.8063  0.7786
19110TIP3    H278746   0.461   0.979   2.471  0.3457  0.1870 -0.4454
19111TIP3   OH278747   4.921   2.519   4.078  0.0642  0.1456  0.0114
19111TIP3    H178748   4.875   2.453   4.025  0.0724  2.1772 -2.7275
19111TIP3    H278749   5.011   2.486   4.084 -0.2218 -0.7076 -0.2302
19112TIP3   OH278750   4.280   5.375  14.357 -0.6528  0.4134  0.9283
19112TIP3    H178751   4.277   5.326  14.275 -0.3586  2.4564 -0.3703
19112TIP3    H278752   4.188   5.387  14.382 -0.7734  0.4104  0.4886
19113TIP3   OH278753   5.053   6.488   2.228  0.0005  0.0859  0.1601
19113TIP3    H178754   5.007   6.439   2.297  1.4131 -1.4173  0.0970
19113TIP3    H278755   5.133   6.519   2.270  1.0590 -1.1666 -0.8626
19114TIP3   OH278756   2.103   1.378  14.275 -0.4950 -0.4045  0.4690
19114TIP3    H178757   2.055   1.387  14.357 -0.5900  0.5614  0.3088
19114TIP3    H278758   2.186   1.425  14.290  0.6308 -2.3963  0.8976
19115TIP3   OH278759   5.789   3.712   1.537  0.2312  0.0376 -0.4094
19115TIP3    H178760   5.732   3.777   1.578 -1.0730 -0.2464 -1.6952
19115TIP3    H278761   5.762   3.710   1.445 -0.0325 -2.5322 -0.3570
19116TIP3   OH278762   3.927   5.768   1.618  0.5344 -0.5298  0.2686
19116TIP3    H178763   4.009   5.719   1.611  1.1812  0.7551 -4.4631
19116TIP3    H278764   3.865   5.720   1.563 -0.6156  0.7456  0.3945
19117TIP3   OH278765   1.078   6.421  16.790 -0.3155 -0.7881  0.0167
19117TIP3    H178766   1.092   6.443  16.698 -0.0903 -1.3255 -0.0768
19117TIP3    H278767   1.039   6.500  16.827 -1.7690 -1.0397 -0.8591
19118TIP3   OH278768   5.702   0.081  10.666 -0.2375  0.5712  0.1551
19118TIP3    H178769   5.669  -0.008  10.656  0.6522  0.1860  0.4789
19118TIP3    H278770   5.748   0.080  10.751 -0.3265  1.3732  0.2223
19119TIP3   OH278771   2.669   2.502   1.512 -0.3624  0.0335  0.1144
19119TIP3    H178772   2.598   2.458   1.464 -1.6136  1.3158  0.7214
19119TIP3    H278773   2.705   2.565   1.450 -1.1002  0.7634  0.4050
19120TIP3   OH278774   5.853   4.074  13.405  0.6336  0.4619 -0.0360
19120TIP3    H178775   5.873   4.038  13.491  0.4633  1.2231  0.3347
19120TIP3    H278776   5.875   4.167  13.413  0.2187  0.6208 -0.6879
19121TIP3   OH278777   0.828   2.423  13.673  0.3428  0.2381  0.3555
19121TIP3    H178778   0.793   2.379  13.751 -1.0189 -0.1075 -0.4258
19121TIP3    H278779   0.923   2.424  13.687  0.2962 -1.7022  1.0498
19122TIP3   OH278780   6.780   3.597  16.380  0.0578  0.2020 -0.1817
19122TIP3    H178781   6.801   3.604  16.287 -0.1745 -0.1319 -0.2631
19122TIP3    H278782   6.690   3.564  16.381 -0.0125  0.4100  0.1593
19123TIP3   OH278783   0.766   6.135   0.560 -0.2836 -0.3249  0.4898
19123TIP3    H178784   0.688   6.121   0.507 -1.6628  1.3221  1.9382
19123TIP3    H278785   0.814   6.205   0.516  0.3625 -1.2718 -0.3484
19124TIP3   OH278786   1.752   5.441  10.284  0.1432  0.0906  0.4293
19124TIP3    H178787   1.658   5.458  10.296  0.6010  2.1099  1.7335
19124TIP3    H278788   1.757   5.383  10.208 -2.2046 -0.8040  0.8755
19125TIP3   OH278789   2.258   3.629  15.040 -0.1899  0.2320 -0.0149
19125TIP3    H178790   2.247   3.668  14.953 -0.4533  1.2287  0.4411
19125TIP3    H278791   2.308   3.695  15.088 -0.8575  0.1067  0.8645
19126TIP3   OH278792   3.422   4.450   4.870  0.3284  0.7063 -0.3245
19126TIP3    H178793   3.460   4.362   4.878  0.5537  0.8972  0.9380
19126TIP3    H278794   3.495   4.505   4.843  0.5667  0.7600  0.3902
19127TIP3   OH278795   5.506   1.282   2.854 -0.2246  0.3243 -0.6236
19127TIP3    H178796   5.551   1.198   2.849 -0.7459  0.0340 -0.5631
19127TIP3    H278797   5.537   1.331   2.778 -1.3573 -0.6596 -1.7568
19128TIP3   OH278798   3.996   5.686  16.913  0.6261 -0.2593 -0.2574
19128TIP3    H178799   3.998   5.672  16.818  2.1565 -0.8429 -0.1632
19128TIP3    H278800   4.087   5.704  16.937  0.5857 -1.9174  1.3499
19129TIP3   OH278801   2.262   3.257   3.660 -0.3580  0.0066  0.0506
19129TIP3    H178802   2.346   3.291   3.693 -0.9391  1.8964 -0.2739
19129TIP3    H278803   2.202   3.268   3.733 -0.5138 -0.6253  0.0240
19130TIP3   OH278804   6.330   4.061  13.512 -0.4410  0.4455 -0.0634
19130TIP3    H178805   6.287   4.043  13.595  0.8206 -0.8112  0.3613
19130TIP3    H278806   6.422   4.042  13.528 -0.2223 -0.2107 -1.8434
19131TIP3   OH278807   4.589   0.608   0.816  0.4338 -0.1820  0.6177
19131TIP3    H178808   4.493   0.609   0.814  0.4013 -1.7461 -0.0765
19131TIP3    H278809   4.612   0.627   0.907 -0.6029 -1.3862  1.1704
19132TIP3   OH278810   5.038   2.448  11.927 -0.7186 -0.4986 -0.4791
19132TIP3    H178811   5.074   2.536  11.913  0.1178 -0.9262 -1.1004
19132TIP3    H278812   5.026   2.442  12.021  2.6600 -0.9953  0.0367
19133TIP3   OH278813   3.405   5.648  16.094 -0.6057 -0.1757 -0.2691
19133TIP3    H178814   3.462   5.710  16.139 -1.9588 -0.2761  1.6802
19133TIP3    H278815   3.436   5.649  16.003  1.6527  0.6944  0.4400
19134TIP3   OH278816   6.267   3.058  16.559 -0.0320 -0.2014  0.6177
19134TIP3    H178817   6.276   3.005  16.638 -0.3846  0.5913  1.2058
19134TIP3    H278818   6.275   3.148  16.589 -0.4002  0.1273 -0.2191
19135TIP3   OH278819   1.967   1.672   3.681 -0.2082 -0.0929  0.0460
19135TIP3    H178820   2.008   1.587   3.697 -0.7033 -0.2789  0.3680
19135TIP3    H278821   1.899   1.655   3.616  0.0591  0.1632 -0.3003
19136TIP3   OH278822   2.830   3.076  11.097  0.0136  0.6587  0.0901
19136TIP3    H178823   2.799   3.013  11.031 -1.5998 -0.2502  1.6126
19136TIP3    H278824   2.810   3.161  11.059  0.0869  0.1989 -1.0355
19137TIP3   OH278825   4.563   1.630  14.591 -0.0782 -0.1456 -0.7783
19137TIP3    H178826   4.586   1.722  14.576  1.8436 -0.5292 -0.4758
19137TIP3    H278827   4.486   1.633  14.647  1.0365  1.3104  0.7592
19138TIP3   OH278828   6.463   5.331  14.892 -0.2087 -0.3039  0.3058
19138TIP3    H178829   6.515   5.395  14.941 -0.3461 -0.5543  0.7805
19138TIP3    H278830   6.514   5.314  14.813  0.9985 -1.3841  1.2689
19139TIP3   OH278831   0.993   4.881  12.753  0.3740  0.1775 -0.1885
19139TIP3    H178832   0.982   4.838  12.668  1.6575 -0.8672  0.1472
19139TIP3    H278833   0.940   4.829  12.813 -0.9654  1.2294 -0.4058
19140TIP3   OH278834   5.645   2.789  10.568  0.0578 -0.0891 -0.2223
19140TIP3    H178835   5.622   2.725  10.501 -0.4013 -0.6640  0.4854
19140TIP3    H278836   5.570   2.849  10.571  0.2915  0.2291 -0.5610
19141TIP3   OH278837   3.394   0.333   3.787 -0.1593  0.6750 -0.6454
19141TIP3    H178838   3.315   0.369   3.825 -0.5841 -1.8706  1.1919
19141TIP3    H278839   3.363   0.271   3.721  0.2307 -0.4631  0.2025
19142TIP3   OH278840   3.773   2.800   4.956  0.0188  0.7137 -0.1307
19142TIP3    H178841   3.756   2.707   4.966  0.6392  0.3887 -1.8270
19142TIP3    H278842   3.836   2.806   4.884 -0.1164  2.4473 -0.1546
19143TIP3   OH278843   4.946   3.362   4.490 -0.0491  0.1613  0.0059
19143TIP3    H178844   4.976   3.443   4.532  2.8059 -1.1483  0.7097
19143TIP3    H278845   4.975   3.370   4.399  0.3707 -0.1186  0.1126
19144TIP3   OH278846   0.771   4.004  13.292 -0.4027 -0.2130  0.4666
19144TIP3    H178847   0.818   4.062  13.352  1.7114 -1.8288  0.4588
19144TIP3    H278848   0.820   3.922  13.292 -0.9055 -0.6733 -2.6368
19145TIP3   OH278849   4.485   0.160  16.423  0.0679 -0.0325  0.3704
19145TIP3    H178850   4.432   0.207  16.358 -0.6244  1.2557  1.8099
19145TIP3    H278851   4.565   0.137  16.376 -0.0035  1.6973 -0.6890
19146TIP3   OH278852   1.475   6.758  15.014  0.0368  0.0658  0.4444
19146TIP3    H178853   1.384   6.784  15.029  0.1735  0.1368  1.2326
19146TIP3    H278854   1.486   6.760  14.919  0.0284  2.8888  0.4101
19147TIP3   OH278855   4.033   0.289  14.112 -0.8430  0.3680 -0.2615
19147TIP3    H178856   3.940   0.308  14.124 -0.6790  1.5807 -0.8291
19147TIP3    H278857   4.073   0.313  14.196 -0.7902  1.5535 -0.6181
19148TIP3   OH278858   5.675   2.169  16.420  0.9211 -0.1078  0.0906
19148TIP3    H178859   5.632   2.087  16.446  2.2337 -0.6237  0.7198
19148TIP3    H278860   5.717   2.201  16.500 -0.1316  1.5551  0.0115
19149TIP3   OH278861   5.714   1.879  15.225 -0.6037 -0.0657  0.4598
19149TIP3    H178862   5.656   1.954  15.238  0.3071  0.5154  1.2944
19149TIP3    H278863   5.690   1.817  15.294  1.9817  1.6094  3.0605
19150TIP3   OH278864   2.936   5.499   0.499 -0.2074  0.2013 -0.7305
19150TIP3    H178865   2.970   5.420   0.541 -1.5545  0.3950  0.8419
19150TIP3    H278866   3.015   5.545   0.468  0.7388 -0.7646  0.1398
19151TIP3   OH278867   0.608   5.420   4.597  0.3906 -0.2346  0.3272
19151TIP3    H178868   0.620   5.442   4.504  1.3961 -0.6621  0.3362
19151TIP3    H278869   0.679   5.358   4.615 -0.7193 -1.3459  0.9899
19152TIP3   OH278870   6.446   6.453   4.700 -0.2313 -0.3820 -0.5225
19152TIP3    H178871   6.527   6.412   4.730 -1.1760  0.0444  3.0133
19152TIP3    H278872   6.459   6.546   4.716 -0.6097 -0.0334 -2.1124
19153TIP3   OH278873   0.468   4.454  13.297 -0.6809  0.2694 -0.0878
19153TIP3    H178874   0.423   4.371  13.314 -1.9218  1.0403  0.5216
19153TIP3    H278875   0.560   4.434  13.313 -0.9477 -0.9999  0.0163
19154TIP3   OH278876   2.917   5.609   1.566 -0.1033 -0.4178 -0.3481
19154TIP3    H178877   2.969   5.637   1.491 -1.4759 -0.7919 -1.4979
19154TIP3    H278878   2.972   5.625   1.642  1.2341  0.2132 -1.4217
19155TIP3   OH278879   2.175   2.681   1.178  0.1791 -0.3611 -0.1426
19155TIP3    H178880   2.094   2.682   1.229  1.6100 -0.2877  2.3198
19155TIP3    H278881   2.169   2.758   1.121 -1.3220 -0.1711  0.2353
19156TIP3   OH278882   1.789   3.989   3.552 -0.2838 -0.2508  0.3393
19156TIP3    H178883   1.776   3.896   3.569  0.4690 -0.1457  1.5911
19156TIP3    H278884   1.710   4.017   3.505 -1.2271 -1.1744  1.3375
19157TIP3   OH278885   4.273   3.688  16.618 -0.1014 -0.4302 -0.0395
19157TIP3    H178886   4.326   3.741  16.678 -1.5203  0.4287  0.5133
19157TIP3    H278887   4.202   3.654  16.673 -0.2923 -1.3210 -0.8164
19158TIP3   OH278888   4.105   5.610   1.449 -0.3198  0.7080  0.0626
19158TIP3    H178889   4.028   5.554   1.445  0.1991  0.0315 -1.1171
19158TIP3    H278890   4.166   5.564   1.506 -0.1062  0.3473 -0.4557
19159TIP3   OH278891   4.661   1.655   1.008  0.0522 -0.0149 -0.1355
19159TIP3    H178892   4.735   1.626   0.956 -0.8132  0.0303 -1.4429
19159TIP3    H278893   4.697   1.672   1.095  1.5451 -0.0243 -0.7371
19160TIP3   OH278894   2.743   3.686  14.203  0.1815 -0.1229 -0.1086
19160TIP3    H178895   2.764   3.594  14.217  0.8937 -0.0506 -0.6131
19160TIP3    H278896   2.648   3.691  14.209  0.1366 -0.8976 -0.1185
19161TIP3   OH278897   6.259   1.277   3.707 -0.8637 -0.4659  0.5599
19161TIP3    H178898   6.204   1.210   3.748 -0.6141 -0.2052  1.3402
19161TIP3    H278899   6.311   1.312   3.779  1.3809 -1.6717 -0.3921
19162TIP3   OH278900   2.492   5.087  10.935 -0.2041  0.0363  0.5049
19162TIP3    H178901   2.455   4.998  10.939  3.4043 -1.7238 -1.1290
19162TIP3    H278902   2.558   5.088  11.005 -0.2202  1.4909  0.5259
19163TIP3   OH278903   6.516   2.999  16.921 -0.0881  0.0778 -0.2242
19163TIP3    H178904   6.422   2.987  16.908 -0.2194 -0.6140  1.2142
19163TIP3    H278905   6.554   2.982  16.834 -1.1257 -1.5231 -0.4208
19164TIP3   OH278906   3.923   3.864  16.999 -0.2108 -0.0488 -0.0170
19164TIP3    H178907   3.849   3.840  16.943  0.6799  1.5972 -2.0285
19164TIP3    H278908   3.893   3.942  17.046 -0.3243 -0.3785  0.4667
19165TIP3   OH278909   6.365   1.471  11.692  0.6749 -0.4430  0.4206
19165TIP3    H178910   6.285   1.489  11.644  0.8017  0.8610  0.6600
19165TIP3    H278911   6.392   1.556  11.727  0.8476 -1.2350  2.3858
19166TIP3   OH278912   6.009   4.359  14.548 -0.0296 -0.3252 -0.3315
19166TIP3    H178913   5.929   4.411  14.556  0.1810  0.0294 -0.5229
19166TIP3    H278914   6.075   4.407  14.597 -0.0344 -0.8441  0.2013
19167TIP3   OH278915   5.677   0.354  14.269 -0.4565 -0.2954 -0.3794
19167TIP3    H178916   5.759   0.400  14.253 -1.4049  1.0728 -1.5759
19167TIP3    H278917   5.611   0.423  14.268 -1.5506 -1.2377  1.4364
19168TIP3   OH278918   2.375   3.820   1.752 -0.2704  0.1233  0.3580
19168TIP3    H178919   2.325   3.814   1.833 -0.1119  0.9116  0.5207
19168TIP3    H278920   2.413   3.907   1.753  0.1113 -0.0220 -0.3498
19169TIP3   OH278921   0.476   5.445   4.013 -0.1742  0.1494 -0.6364
19169TIP3    H178922   0.451   5.440   3.921 -0.4715 -0.0641 -0.5455
19169TIP3    H278923   0.409   5.500   4.053 -1.7453 -2.0898  0.0170
19170TIP3   OH278924   6.314   6.723   2.998 -0.4029 -0.1733  0.0296
19170TIP3    H178925   6.244   6.738   2.935 -0.5607  0.1658  0.2846
19170TIP3    H278926   6.335   6.630   2.989 -1.7538 -0.5930  0.8259
19171TIP3   OH278927   0.309   1.480  16.334 -0.1160 -0.4462  0.2659
19171TIP3    H178928   0.393   1.439  16.314  0.8559  1.3282  0.5610
19171TIP3    H278929   0.244   1.413  16.310  1.3666 -2.0964  0.6031
19172TIP3   OH278930   2.969   2.806   4.838  0.5446 -0.4798 -0.3643
19172TIP3    H178931   2.907   2.838   4.773  1.9502  0.8021 -1.1147
19172TIP3    H278932   2.941   2.845   4.921 -0.3350 -0.8823 -0.4628
19173TIP3   OH278933   1.471   4.281  12.635  0.4182  0.4660 -0.1918
19173TIP3    H178934   1.427   4.301  12.552  0.2583 -1.0504 -0.4974
19173TIP3    H278935   1.551   4.236  12.608 -1.0831 -2.8360  0.4912
19174TIP3   OH278936   3.376   5.606  14.158  0.3094 -0.1941 -0.1873
19174TIP3    H178937   3.349   5.517  14.136  0.3929 -0.2797  0.0529
19174TIP3    H278938   3.397   5.646  14.073 -3.4702  0.8886 -0.7832
19175TIP3   OH278939   2.376   2.114  12.443 -0.3907 -0.1662 -0.5290
19175TIP3    H178940   2.385   2.170  12.366  2.3564 -0.1980 -0.3334
19175TIP3    H278941   2.292   2.140  12.482 -1.4861  0.3653 -3.0668
19176TIP3   OH278942   5.395   1.121  17.118  1.1733  0.4569 -0.0178
19176TIP3    H178943   5.332   1.186  17.149  1.4358  0.4799  0.4584
19176TIP3    H278944   5.372   1.109  17.025  0.0753  0.0175  0.2933
19177TIP3   OH278945   6.761   0.620   1.808 -0.0769  0.1114 -0.6556
19177TIP3    H178946   6.684   0.624   1.866  0.3719 -1.2055  0.0528
19177TIP3    H278947   6.756   0.702   1.758 -0.9829  0.8716  0.5924
19178TIP3   OH278948   4.835   2.613   2.121 -0.4725  0.2423  0.0977
19178TIP3    H178949   4.751   2.567   2.131  0.3560 -1.1743  1.0160
19178TIP3    H278950   4.844   2.664   2.202 -0.7583  0.9637 -0.3160
19179TIP3   OH278951   6.319   2.465   2.048 -0.2548  0.2376 -0.5540
19179TIP3    H178952   6.347   2.385   2.092 -2.8194 -1.1160 -1.2019
19179TIP3    H278953   6.385   2.480   1.981  0.3564 -1.2483 -0.3196
19180TIP3   OH278954   3.274   6.044  14.863  0.1488  0.6721 -0.1733
19180TIP3    H178955   3.242   5.973  14.807  0.3921 -0.3571  0.9503
19180TIP3    H278956   3.293   6.115  14.802  1.6939 -0.8469 -1.5931
19181TIP3   OH278957   2.631   2.936   4.426  0.0851 -0.0585 -0.1121
19181TIP3    H178958   2.710   2.949   4.375 -1.2498 -0.2206 -2.3389
19181TIP3    H278959   2.579   2.873   4.376 -2.9270  2.5296 -0.6063
19182TIP3   OH278960   0.322   1.561   2.616 -0.2185 -0.1017  0.0498
19182TIP3    H178961   0.412   1.559   2.586 -0.1541 -0.6807  0.2642
19182TIP3    H278962   0.296   1.469   2.620 -0.6514  0.0323  0.4768
19183TIP3   OH278963   6.595   2.625  16.423 -0.1649  0.0624  0.0572
19183TIP3    H178964   6.646   2.699  16.458  0.5065 -1.1037  1.6730
19183TIP3    H278965   6.505   2.644  16.450 -0.1267  0.6616 -0.2079
19184TIP3   OH278966   1.254   1.938   4.613  0.4086 -0.4208  0.4385
19184TIP3    H178967   1.316   1.883   4.662  1.5687 -1.3198 -1.9035
19184TIP3    H278968   1.283   2.028   4.629  0.9586 -0.7144  1.1221
19185TIP3   OH278969   1.345   5.975  16.978  0.3816 -0.0728  0.2556
19185TIP3    H178970   1.310   6.056  17.015  0.3571  1.1638 -2.2985
19185TIP3    H278971   1.306   5.906  17.032 -0.6341  1.5240  1.6842
19186TIP3   OH278972   3.873   1.894  14.303 -0.6553 -0.4550  0.1779
19186TIP3    H178973   3.902   1.803  14.299 -0.5663 -0.4566  0.8714
19186TIP3    H278974   3.785   1.890  14.340 -0.1396 -0.1629  1.4943
19187TIP3   OH278975   1.107   2.024  13.627 -0.6443 -0.1839 -0.4141
19187TIP3    H178976   1.065   2.099  13.585 -0.6404 -0.1806 -0.4118
19187TIP3    H278977   1.186   2.060  13.667  0.2605 -0.4905 -1.8629
19188TIP3   OH278978   6.565   1.805  12.087 -0.0133 -0.5836  0.7108
19188TIP3    H178979   6.657   1.830  12.074 -0.2820 -0.0602 -0.3157
19188TIP3    H278980   6.521   1.887  12.110 -0.0930 -0.9844  2.0912
19189TIP3   OH278981   0.589   2.870  15.939  0.2942 -0.3888 -0.0300
19189TIP3    H178982   0.510   2.849  15.889  0.1953 -1.1248  0.4117
19189TIP3    H278983   0.655   2.810  15.906  0.1244 -1.1494  0.9666
19190TIP3   OH278984   2.167   0.866   4.349  0.2312  0.0411 -0.2013
19190TIP3    H178985   2.082   0.843   4.386  0.9030 -0.3257  1.1783
19190TIP3    H278986   2.204   0.783   4.320  1.6997 -0.4598  2.7269
19191TIP3   OH278987   0.286   0.072   4.000  0.1602 -0.1728  0.4722
19191TIP3    H178988   0.286   0.057   4.094  2.4412 -1.9554  0.2904
19191TIP3    H278989   0.292  -0.016   3.962 -0.2158  0.5367 -1.3233
19192TIP3   OH278990   5.712   6.198  15.935 -0.1796 -0.7791  0.2167
19192TIP3    H178991   5.629   6.225  15.976 -0.0938 -0.6923  0.3322
19192TIP3    H278992   5.687   6.125  15.879 -0.1233 -1.5888  1.2219
19193TIP3   OH278993   2.643   6.555   0.487 -0.0919  1.2193  0.1901
19193TIP3    H178994   2.615   6.646   0.496  1.3353  1.7332 -0.1655
19193TIP3    H278995   2.729   6.561   0.445  1.0893 -0.1649  2.2508
19194TIP3   OH278996   1.757   1.260   2.761 -0.1398 -0.0122  0.4799
19194TIP3    H178997   1.669   1.249   2.723  0.5040 -1.8159 -0.5857
19194TIP3    H278998   1.798   1.174   2.753  1.3102  0.4737  2.1125
19195TIP3   OH278999   2.264   6.181  11.972  0.1872 -0.4117  0.0643
19195TIP3    H179000   2.246   6.266  11.932  3.4903  0.4435  0.0904
19195TIP3    H279001   2.275   6.200  12.065 -2.0848 -1.4931  0.6394
19196TIP3   OH279002   0.303   4.551  13.105  0.3879 -0.2114 -0.3592
19196TIP3    H179003   0.380   4.515  13.149  0.9277 -0.2265 -1.2852
19196TIP3    H279004   0.308   4.645  13.119  0.8020 -0.1716 -0.7621
19197TIP3   OH279005   0.382   3.191  14.662  0.1515 -0.2543 -0.3835
19197TIP3    H179006   0.389   3.096  14.654  2.0174 -0.1021 -0.9791
19197TIP3    H279007   0.371   3.223  14.573  1.1290  0.1850 -0.3547
19198TIP3   OH279008   4.457   3.888   0.716 -0.2653 -0.2535  0.0324
19198TIP3    H179009   4.512   3.893   0.638  0.8135 -0.0319  0.7988
19198TIP3    H279010   4.390   3.823   0.693 -0.5777  0.5396 -1.4423
19199TIP3   OH279011   4.168   6.550   1.121 -0.7378  0.3479 -0.0043
19199TIP3    H179012   4.192   6.553   1.029 -0.8949 -0.8758 -0.1103
19199TIP3    H279013   4.242   6.506   1.164 -0.3631  1.4970  0.5797
19200TIP3   OH279014   1.022   1.875  10.612 -0.1475 -0.0499  0.2013
19200TIP3    H179015   0.970   1.795  10.622  0.4904 -0.5205 -0.1654
19200TIP3    H279016   1.062   1.867  10.526  0.9469  0.0416  0.6769
19201TIP3   OH279017   1.203   5.735   2.143 -0.1692 -0.6204  0.9725
19201TIP3    H179018   1.176   5.669   2.207 -0.8432 -0.2594  1.0695
19201TIP3    H279019   1.131   5.736   2.079 -0.1300 -0.0306  0.9371
19202TIP3   OH279020   6.223   3.253  15.030  0.5769  0.4666 -0.3912
19202TIP3    H179021   6.195   3.282  14.943  2.7954  0.9330 -1.0034
19202TIP3    H279022   6.204   3.328  15.087 -1.3088 -0.0081 -0.3301
19203TIP3   OH279023   0.809   1.838   3.951 -0.0102  0.4766  0.6842
19203TIP3    H179024   0.721   1.803   3.953 -0.5201  1.4244 -1.7234
19203TIP3    H279025   0.860   1.773   3.902 -0.0875  1.2162 -0.4338
19204TIP3   OH279026   5.922   6.438   1.507  0.1296  0.5844  0.1515
19204TIP3    H179027   5.841   6.484   1.483 -0.0338  1.1272  1.6591
19204TIP3    H279028   5.896   6.376   1.575  0.1221 -2.7350 -2.6291
19205TIP3   OH279029   0.124   1.033   0.050  0.4587 -0.3332  0.5138
19205TIP3    H179030   0.072   1.100   0.005 -0.2376 -1.3128 -0.1754
19205TIP3    H279031   0.066   0.999   0.118  0.3469 -1.1091  0.0387
19206TIP3   OH279032   1.318   6.423   2.786 -0.0124  0.3095  0.3318
19206TIP3    H179033   1.255   6.359   2.754 -0.5488  1.0799 -0.2145
19206TIP3    H279034   1.265   6.500   2.808  0.7854  1.2838 -0.9547
19207TIP3   OH279035   5.174   3.205   3.695  0.1792  0.6361  0.3030
19207TIP3    H179036   5.220   3.262   3.633  2.6281 -0.5165  0.9492
19207TIP3    H279037   5.112   3.156   3.641  0.4789  1.4339 -0.8026
19208TIP3   OH279038   3.627   5.344   1.897 -0.3358  0.1398 -0.4503
19208TIP3    H179039   3.705   5.336   1.842  0.2920 -0.6497  0.5153
19208TIP3    H279040   3.558   5.300   1.849 -0.2977  1.1596 -1.4856
19209TIP3   OH279041   0.955   1.668   5.235  0.7036 -0.3326 -0.3844
19209TIP3    H179042   0.986   1.577   5.229  1.3258 -0.0613 -1.7697
19209TIP3    H279043   1.006   1.715   5.169 -0.6198  0.7332 -0.6918
19210TIP3   OH279044   4.791   3.157  13.566  0.1939 -0.1569 -0.4346
19210TIP3    H179045   4.838   3.075  13.552  1.2586  0.1724  1.0130
19210TIP3    H279046   4.706   3.131  13.600 -0.4147 -0.7245 -2.2664
19211TIP3   OH279047   0.982   6.024   1.934  0.2484 -0.1799  0.2551
19211TIP3    H179048   0.936   5.945   1.907 -1.4455  0.8577 -0.0851
19211TIP3    H279049   0.926   6.062   2.002  0.7421  0.9862  0.0392
19212TIP3   OH279050   6.218   2.575  16.669  0.0929 -0.6643 -0.4477
19212TIP3    H179051   6.244   2.622  16.589  0.4059  0.6103  0.3730
19212TIP3    H279052   6.261   2.490  16.663  0.8352 -0.2471 -1.2191
19213TIP3   OH279053   3.735   2.655   3.592  0.0705  0.4332 -0.1015
19213TIP3    H179054   3.723   2.561   3.582  0.6475  0.4478 -1.1234
19213TIP3    H279055   3.808   2.664   3.652  0.1166  0.2253 -0.1249
19214TIP3   OH279056   4.211   4.999  11.721  0.3266  0.2492 -0.4098
19214TIP3    H179057   4.142   5.048  11.678 -1.5868 -1.1818  0.8541
19214TIP3    H279058   4.172   4.913  11.738  3.1768 -1.4178 -1.6302
19215TIP3   OH279059   5.970   5.264  15.783  0.4328  0.1627  0.2827
19215TIP3    H179060   5.889   5.315  15.778  0.0552 -0.4576  0.0253
19215TIP3    H279061   5.997   5.270  15.875  0.0426  0.2851  0.3884
19216TIP3   OH279062   0.075   3.484  14.803  0.1258 -0.2934 -0.2232
19216TIP3    H179063   0.081   3.580  14.801 -0.6937 -0.1225  1.9893
19216TIP3    H279064   0.142   3.457  14.866 -1.5391 -0.8593  1.4110
19217TIP3   OH279065   4.648   5.485   5.514  0.3048 -0.1417  0.2068
19217TIP3    H179066   4.651   5.544   5.589  0.3564 -0.0839  0.1603
19217TIP3    H279067   4.678   5.539   5.441  0.2051 -0.1827  0.1353
19218TIP3   OH279068   2.767   1.358  16.459  0.0908 -0.2731 -0.0649
19218TIP3    H179069   2.750   1.358  16.365  0.5368 -2.8577 -0.2135
19218TIP3    H279070   2.861   1.376  16.467 -0.0849  0.7235 -0.0201
19219TIP3   OH279071   3.600   5.184   3.701  0.9619 -0.0456 -0.2396
19219TIP3    H179072   3.585   5.171   3.795 -1.0018 -1.8658 -0.7427
19219TIP3    H279073   3.662   5.116   3.677  0.3826 -0.4902 -0.5030
19220TIP3   OH279074   6.470   0.829   5.979 -0.0544  0.0081  0.4483
19220TIP3    H179075   6.478   0.924   5.988 -1.0786  0.1421  0.0372
19220TIP3    H279076   6.419   0.802   6.055  0.1716 -0.2074  0.5236
19221TIP3   OH279077   1.109   3.138  14.108 -0.1650  0.4256 -0.0845
19221TIP3    H179078   1.129   3.174  14.195 -1.6883  1.5934 -0.1740
19221TIP3    H279079   1.095   3.214  14.053 -0.8806 -0.3055 -0.9469
19222TIP3   OH279080   5.551   4.572  12.542 -0.5591 -0.1360  0.5304
19222TIP3    H179081   5.510   4.620  12.614 -0.3944 -1.3727  1.4772
19222TIP3    H279082   5.497   4.594  12.465  0.3032  2.6165  0.5971
19223TIP3   OH279083   0.920   3.039   3.263 -0.6165  0.1156 -0.2136
19223TIP3    H179084   0.903   2.990   3.183  0.2722  1.7354 -1.4622
19223TIP3    H279085   0.924   2.972   3.332 -1.2858 -1.3294 -1.5227
19224TIP3   OH279086   5.505   0.539  16.701  0.2995  0.2388  0.2389
19224TIP3    H179087   5.600   0.526  16.708  0.0901 -1.1461  0.8228
19224TIP3    H279088   5.496   0.616  16.645  1.7604  0.2807  0.0086
19225TIP3   OH279089   6.593   3.299   4.724 -0.1113 -0.6314  0.1551
19225TIP3    H179090   6.646   3.320   4.800  0.6623 -0.9476 -0.2832
19225TIP3    H279091   6.503   3.295   4.757  0.2740 -1.2826  1.1493
19226TIP3   OH279092   4.007   3.732   4.958  0.4032 -0.5678 -0.2730
19226TIP3    H179093   3.914   3.708   4.963  0.3446 -0.1848  0.6833
19226TIP3    H279094   4.033   3.747   5.049  1.0563  0.6672 -0.6385
19227TIP3   OH279095   4.999   2.608   4.602  0.0911 -0.3432 -0.4459
19227TIP3    H179096   4.921   2.645   4.561 -0.7029 -2.9947 -1.5171
19227TIP3    H279097   4.992   2.633   4.694 -0.6689  1.5595 -0.9565
19228TIP3   OH279098   1.081   3.143  15.547 -0.4688 -0.1127  0.2252
19228TIP3    H179099   1.121   3.086  15.481 -1.1054 -0.8204  0.4380
19228TIP3    H279100   1.002   3.177  15.505  1.5260  3.3334 -1.1604
19229TIP3   OH279101   5.531   4.908  13.627 -0.9500 -0.4638  0.0655
19229TIP3    H179102   5.488   4.846  13.686 -1.7484 -0.2789 -0.3165
19229TIP3    H279103   5.461   4.941  13.571 -0.1892 -0.7873 -1.1304
19230TIP3   OH279104   3.465   1.466  11.476 -0.2617 -0.2415  0.2388
19230TIP3    H179105   3.447   1.412  11.399 -0.2901 -0.8056  0.6342
19230TIP3    H279106   3.514   1.408  11.535 -0.3666  0.1397  0.7049
19231TIP3   OH279107   2.294   4.777  11.342  0.2087  0.2317  0.7766
19231TIP3    H179108   2.208   4.814  11.323  0.6161  0.2884 -1.0551
19231TIP3    H279109   2.315   4.723  11.266  0.8169 -1.6531  2.1794
19232TIP3   OH279110   5.790   5.643  16.325  0.6339 -0.0533  0.3701
19232TIP3    H179111   5.696   5.649  16.343  0.7002 -0.5799  0.9066
19232TIP3    H279112   5.799   5.563  16.273  0.7975 -0.0577  0.4066
19233TIP3   OH279113   5.216   2.689  13.070 -0.5708  0.5073  0.5748
19233TIP3    H179114   5.153   2.662  13.003 -0.2192  1.8276 -0.3255
19233TIP3    H279115   5.297   2.644  13.046 -1.2160 -1.6022  2.0251
19234TIP3   OH279116   4.415   5.494  15.947 -0.6556  0.4596  0.1909
19234TIP3    H179117   4.365   5.568  15.980 -0.7180  1.3038 -1.6570
19234TIP3    H279118   4.383   5.481  15.857  0.0752 -1.1540  0.1168
19235TIP3   OH279119   4.630   4.124  15.950 -0.6088 -0.0302  0.0970
19235TIP3    H179120   4.627   4.191  15.882 -0.9149 -0.4302 -0.2900
19235TIP3    H279121   4.575   4.158  16.020 -1.4760 -0.2600 -0.4596
19236TIP3   OH279122   5.435   4.421  15.067 -0.1010  0.1502  0.0430
19236TIP3    H179123   5.430   4.469  15.150 -0.5395  0.7186 -0.3098
19236TIP3    H279124   5.517   4.450  15.028 -0.5235  0.8696 -0.3216
19237TIP3   OH279125   2.493   3.021  12.991 -0.4035 -0.1585 -0.2169
19237TIP3    H179126   2.445   3.099  13.019 -1.9280 -1.1494  0.0896
19237TIP3    H279127   2.583   3.038  13.016 -0.6893  1.4949 -0.1622
19238TIP3   OH279128   6.198   1.991  15.122 -0.0481 -0.2845 -0.3744
19238TIP3    H179129   6.136   1.919  15.136  1.6319 -1.6431  0.5569
19238TIP3    H279130   6.209   1.995  15.027 -1.0325 -0.4697 -0.5080
19239TIP3   OH279131   3.628   1.401   1.235 -0.2597  0.0793 -0.1936
19239TIP3    H179132   3.683   1.479   1.228  1.8705 -0.9567  2.9047
19239TIP3    H279133   3.675   1.334   1.185 -1.9301  0.5528 -2.5914
19240TIP3   OH279134   3.808   4.109   3.167  0.4745  0.4172 -0.0171
19240TIP3    H179135   3.724   4.153   3.178  0.0600 -0.3708  0.1028
19240TIP3    H279136   3.842   4.141   3.084 -1.9233 -2.3003 -2.2592
19241TIP3   OH279137   0.317   1.057   1.121  0.3925  0.1970  0.1183
19241TIP3    H179138   0.369   0.987   1.162  1.6859  1.0252 -0.0802
19241TIP3    H279139   0.347   1.137   1.163 -2.4704  0.5441  1.8195
19242TIP3   OH279140   6.139   4.836   5.475  0.3847 -0.4316  0.0803
19242TIP3    H179141   6.219   4.805   5.517  0.5458 -1.0251 -0.6289
19242TIP3    H279142   6.070   4.819   5.538  0.7154 -0.6592  0.3849
19243TIP3   OH279143   3.769   3.561  15.113  0.1205  0.0637  0.1584
19243TIP3    H179144   3.705   3.632  15.112 -1.0007 -0.8752 -2.3524
19243TIP3    H279145   3.853   3.604  15.104 -0.5347  1.1217 -1.2339
19244TIP3   OH279146   1.509   3.544   5.635 -0.2756 -0.2714  0.2212
19244TIP3    H179147   1.452   3.499   5.573 -0.1347 -2.4219  1.5442
19244TIP3    H279148   1.453   3.563   5.710  0.1369  0.0085  0.4655
19245TIP3   OH279149   4.233   0.698   6.234 -0.5426  0.7553  0.5679
19245TIP3    H179150   4.290   0.694   6.311 -1.1091  1.5929  1.0449
19245TIP3    H279151   4.145   0.684   6.269 -0.7198  0.2905 -0.0526
19246TIP3   OH279152   2.364   5.332  12.313  0.3272 -0.9173 -0.4540
19246TIP3    H179153   2.420   5.260  12.342  1.0802 -0.6033 -1.0995
19246TIP3    H279154   2.332   5.304  12.227 -0.9679 -1.3351  0.1359
19247TIP3   OH279155   1.029   3.597  16.484  0.0917  0.1478 -0.6944
19247TIP3    H179156   1.087   3.671  16.500 -0.1910  0.3617 -0.6578
19247TIP3    H279157   1.058   3.562  16.399  0.3578  0.1692 -0.6147
19248TIP3   OH279158   0.177   5.115  10.941 -0.2162 -0.0592  0.4000
19248TIP3    H179159   0.181   5.023  10.912  0.4698  0.1337 -0.1310
19248TIP3    H279160   0.088   5.143  10.919 -0.3590 -0.5317  0.3598
19249TIP3   OH279161   2.575   1.361   6.413 -0.0293  0.4470  0.6111
19249TIP3    H179162   2.588   1.326   6.325 -2.8979 -0.3669  0.3922
19249TIP3    H279163   2.481   1.353   6.428  0.3543  0.5097  3.7832
19250TIP3   OH279164   4.212   4.959   0.093 -0.0687  0.3021 -0.0147
19250TIP3    H179165   4.185   5.014   0.167 -1.3493  0.2653 -0.4284
19250TIP3    H279166   4.304   4.940   0.110  0.4837  2.6758  0.1026
19251TIP3   OH279167   4.929   0.031  10.916  0.1014 -0.3813  0.4595
19251TIP3    H179168   4.839   0.022  10.947  0.1859  1.2854  1.2963
19251TIP3    H279169   4.938  -0.037  10.849 -0.8909 -2.4765  2.2949
19252TIP3   OH279170   3.866   2.276   1.474  0.5570  0.4163 -0.0041
19252TIP3    H179171   3.801   2.334   1.514 -0.9739 -0.2846 -1.3768
19252TIP3    H279172   3.906   2.230   1.547 -1.8894 -0.5543  0.8127
19253TIP3   OH279173   0.429   6.205   2.027  0.6783  0.1296  0.7995
19253TIP3    H179174   0.488   6.130   2.031  1.0122  0.4311  2.1002
19253TIP3    H279175   0.342   6.167   2.018  1.0204 -0.3305 -0.9127
19254TIP3   OH279176   0.178   0.300  13.344  0.0108  0.3288 -0.0568
19254TIP3    H179177   0.175   0.236  13.273  3.2781 -0.4670  0.3242
19254TIP3    H279178   0.120   0.265  13.411 -2.7094  0.8133 -2.0051
19255TIP3   OH279179   3.778   4.170  10.764 -0.6742 -0.2501 -0.0074
19255TIP3    H179180   3.839   4.117  10.814  0.0442  0.1529 -0.4306
19255TIP3    H279181   3.712   4.198  10.827  1.8079  2.7709  1.5562
19256TIP3   OH279182   0.566   5.650   1.927 -0.1676  0.3572 -0.0419
19256TIP3    H179183   0.627   5.584   1.893 -0.3796 -0.5630  1.2961
19256TIP3    H279184   0.479   5.615   1.909 -0.3088  1.2003 -1.0544
19257TIP3   OH279185   6.743   3.941   5.188  0.0046 -0.2136  0.4534
19257TIP3    H179186   6.820   3.899   5.151 -1.2356 -1.7271 -0.5578
19257TIP3    H279187   6.710   3.878   5.252 -0.3597  0.4446  0.9253
19258TIP3   OH279188   4.656   4.153  12.485  0.2012  0.0338 -0.0859
19258TIP3    H179189   4.612   4.201  12.415 -1.0056  3.2325  2.5786
19258TIP3    H279190   4.739   4.198  12.497 -0.1833  0.4369  1.3280
19259TIP3   OH279191   3.619   4.156  12.473  0.0913 -0.6408  0.0753
19259TIP3    H179192   3.678   4.175  12.399  1.8767  0.6996  1.7314
19259TIP3    H279193   3.663   4.086  12.521 -0.2492 -0.4387  0.6937
19260TIP3   OH279194   5.301   0.046  12.630  0.2838  0.0137  0.6083
19260TIP3    H179195   5.284  -0.048  12.630  1.0352 -0.1329  1.6472
19260TIP3    H279196   5.229   0.083  12.681 -0.4067  0.1064 -0.3869
19261TIP3   OH279197   1.130   1.431  15.649  0.7978 -0.1017  0.2251
19261TIP3    H179198   1.044   1.388  15.652  0.8024 -0.2090 -0.9805
19261TIP3    H279199   1.171   1.405  15.732 -0.0510 -0.6340  0.5007
19262TIP3   OH279200   3.622   2.697  16.608 -0.0748 -0.0534  0.4016
19262TIP3    H179201   3.565   2.760  16.652  2.0977  1.6368  0.9660
19262TIP3    H279202   3.612   2.716  16.515 -1.2426 -0.5807  0.3891
19263TIP3   OH279203   5.764   6.290   0.781  0.2559 -0.3418  0.1431
19263TIP3    H179204   5.694   6.353   0.765 -0.4283 -0.7742  1.3161
19263TIP3    H279205   5.830   6.338   0.831  0.0601 -0.3631  0.4219
19264TIP3   OH279206   0.348   3.319   1.891 -0.0144  0.1120  0.5476
19264TIP3    H179207   0.346   3.354   1.980 -2.0957  1.3984  0.0608
19264TIP3    H279208   0.401   3.381   1.842  0.4227 -0.1389  0.6939
19265TIP3   OH279209   2.417   2.640  15.901 -0.3695 -0.6151  0.1254
19265TIP3    H179210   2.352   2.708  15.881  0.3439 -0.1563 -0.7107
19265TIP3    H279211   2.398   2.570  15.839  0.2206 -0.2826 -0.4361
19266TIP3   OH279212   3.254   4.925  12.424  0.2072  0.0187  0.0782
19266TIP3    H179213   3.201   4.885  12.356 -1.9969 -0.4007  1.9354
19266TIP3    H279214   3.319   4.858  12.447 -0.0757 -0.4458 -0.4704
19267TIP3   OH279215   0.312   0.754   6.232  0.1665 -0.1918 -0.0113
19267TIP3    H179216   0.390   0.700   6.242  0.1907 -0.1652 -0.0559
19267TIP3    H279217   0.332   0.812   6.158 -0.2985 -0.8707 -0.6796
19268TIP3   OH279218   2.131   1.169   1.898 -0.4410 -0.2546 -0.3639
19268TIP3    H179219   2.045   1.164   1.855  0.3311 -0.4649 -1.9175
19268TIP3    H279220   2.110   1.174   1.992 -2.2795  2.5539 -0.7995
19269TIP3   OH279221   4.832   4.880   1.749 -0.0300 -0.6302  0.3854
19269TIP3    H179222   4.850   4.961   1.701 -1.4421 -0.7745 -0.4619
19269TIP3    H279223   4.821   4.907   1.840  1.0769 -0.1121  0.3736
19270TIP3   OH279224   1.219   6.488  12.540 -0.6388 -0.0116 -0.3912
19270TIP3    H179225   1.194   6.401  12.573  1.1237 -0.7495 -0.9088
19270TIP3    H279226   1.295   6.513  12.593 -0.4710  0.7343 -0.9766
19271TIP3   OH279227   1.411   2.295  13.839 -0.0551  0.0693  0.0192
19271TIP3    H179228   1.499   2.263  13.818  0.0308 -0.1710  0.7073
19271TIP3    H279229   1.390   2.254  13.923 -0.1567  1.3973  0.6738
19272TIP3   OH279230   5.403   3.557   5.279 -0.1459 -0.2710  0.0692
19272TIP3    H179231   5.310   3.558   5.301 -0.2700  2.1362 -0.3309
19272TIP3    H279232   5.447   3.585   5.360  0.1499 -0.3658 -0.0576
19273TIP3   OH279233   5.786   3.398   6.371  0.2938 -0.3462 -0.2422
19273TIP3    H179234   5.746   3.311   6.362 -0.2818 -0.0719 -0.3616
19273TIP3    H279235   5.785   3.415   6.465  0.4599 -0.4869 -0.2129
19274TIP3   OH279236   3.258   4.626   4.603 -0.2687  0.2095  0.1175
19274TIP3    H179237   3.304   4.542   4.610  2.2761  1.4339 -0.4957
19274TIP3    H279238   3.231   4.647   4.692 -0.0863 -0.8066  0.4237
19275TIP3   OH279239   4.601   1.449   0.636 -0.2022  0.1142 -0.3537
19275TIP3    H179240   4.609   1.384   0.565 -1.5168  1.3301 -1.6964
19275TIP3    H279241   4.565   1.400   0.710 -0.9310 -0.7719 -1.2602
19276TIP3   OH279242   4.955   3.150   5.521  0.2281 -0.4483  0.3997
19276TIP3    H179243   4.867   3.113   5.509 -0.5274  1.3235  0.1546
19276TIP3    H279244   5.012   3.092   5.469 -1.4102  0.7164 -3.0187
19277TIP3   OH279245   4.814   1.636   1.830 -0.3215  0.3745 -0.2417
19277TIP3    H179246   4.873   1.690   1.883 -1.1108  1.1027 -0.0900
19277TIP3    H279247   4.856   1.630   1.744  1.3385 -1.4070  0.6105
19278TIP3   OH279248   4.874   1.719  16.347 -0.9461  0.3898 -0.3257
19278TIP3    H179249   4.931   1.766  16.408 -0.0872 -0.3914 -0.4972
19278TIP3    H279250   4.883   1.765  16.264  0.3427 -0.3737 -0.6414
19279TIP3   OH279251   2.727   6.743  10.953 -0.4395  0.0353 -0.4038
19279TIP3    H179252   2.637   6.744  10.920 -0.5225  0.7089 -0.1616
19279TIP3    H279253   2.747   6.834  10.971 -0.2780 -0.2746  1.0957
19280TIP3   OH279254   2.567   2.731  12.521 -0.1479  0.2654  0.5369
19280TIP3    H179255   2.558   2.678  12.441 -0.4699 -0.0428  0.7787
19280TIP3    H279256   2.490   2.709  12.573  1.6946 -2.1817  2.4858
19281TIP3   OH279257   5.680   1.486  12.151 -0.3861 -0.2381 -0.4936
19281TIP3    H179258   5.669   1.446  12.238 -0.4068 -0.7300 -0.7226
19281TIP3    H279259   5.761   1.536  12.158 -0.1870 -0.5845 -0.3034
19282TIP3   OH279260   6.355   6.538  11.956  0.4306  0.4368  0.1605
19282TIP3    H179261   6.357   6.622  12.002  1.2257  0.2391  0.5053
19282TIP3    H279262   6.423   6.486  11.999  2.4955  0.8390 -2.4071
19283TIP3   OH279263   2.810   5.700   4.670  0.3284 -0.0397 -0.3629
19283TIP3    H179264   2.845   5.782   4.636  0.9671 -0.0306  0.2979
19283TIP3    H279265   2.753   5.727   4.742  0.4487 -0.1704 -0.2190
19284TIP3   OH279266   6.116   4.714   0.287  0.6578 -0.1871 -0.3656
19284TIP3    H179267   6.056   4.744   0.355  1.1040  0.7938 -0.3966
19284TIP3    H279268   6.146   4.628   0.317  0.5865  0.0874  0.5017
19285TIP3   OH279269   1.620   3.301   3.882  0.7694  0.1975  0.6472
19285TIP3    H179270   1.700   3.263   3.846  0.3724  0.0457 -0.0989
19285TIP3    H279271   1.626   3.394   3.861  0.2950  0.0299 -0.3307
19286TIP3   OH279272   3.403   0.535  10.940  0.3910  0.0770  0.1279
19286TIP3    H179273   3.337   0.604  10.934  2.5529  2.2331 -0.5925
19286TIP3    H279274   3.469   0.560  10.875  1.8665 -2.0557  0.6994
19287TIP3   OH279275   5.754   2.216   3.238 -0.0981  0.1394  0.0166
19287TIP3    H179276   5.770   2.123   3.219 -0.7829  0.0775 -0.2788
19287TIP3    H279277   5.838   2.248   3.270  0.4973 -0.2914 -1.0451
19288TIP3   OH279278   6.268   6.311   0.200  0.4289 -0.3106  0.6904
19288TIP3    H179279   6.328   6.348   0.136 -1.4861 -1.7885 -2.1593
19288TIP3    H279280   6.187   6.296   0.152 -1.5267 -0.5695  3.7561
19289TIP3   OH279281   1.384   1.525   2.588 -0.0358  0.3800 -0.0802
19289TIP3    H179282   1.420   1.453   2.535  1.3148  0.1158  1.1336
19289TIP3    H279283   1.372   1.488   2.675  1.1932  1.7181  0.7176
19290TIP3   OH279284   0.741   3.205   4.958  0.0978 -0.1107 -0.4403
19290TIP3    H179285   0.834   3.211   4.935  0.3764 -0.6395  0.5343
19290TIP3    H279286   0.737   3.135   5.023 -0.9769 -0.0374 -0.4232
19291TIP3   OH279287   1.362   0.019  14.440 -0.0310 -0.3080 -0.4231
19291TIP3    H179288   1.437  -0.027  14.402 -1.1184 -1.3755 -1.3544
19291TIP3    H279289   1.312   0.049  14.365 -1.0266 -0.4354  0.1773
19292TIP3   OH279290   5.477   6.454   5.656 -0.0730 -0.0675  0.2490
19292TIP3    H179291   5.384   6.473   5.644  0.0020 -0.4553 -1.0063
19292TIP3    H279292   5.520   6.540   5.649 -0.2947  0.0701  0.5241
19293TIP3   OH279293   1.232   4.846  17.142  0.1605 -0.3404  0.2338
19293TIP3    H179294   1.151   4.859  17.192 -0.6713 -2.6821 -0.4067
19293TIP3    H279295   1.215   4.888  17.058  0.0372  0.0768  0.4604
19294TIP3   OH279296   2.635   2.867   3.671  0.7563 -0.5285 -0.0031
19294TIP3    H179297   2.642   2.929   3.598  1.0241  1.1154  1.3624
19294TIP3    H279298   2.542   2.843   3.673  0.2957  1.1345  0.4337
19295TIP3   OH279299   6.085   0.821  16.668  0.6909 -0.5115  0.5085
19295TIP3    H179300   6.137   0.811  16.748  1.4726 -1.9578 -0.1539
19295TIP3    H279301   6.030   0.743  16.666  0.1382 -0.1134  0.0100
19296TIP3   OH279302   3.316   2.361  11.663 -0.1171  0.0151 -0.5621
19296TIP3    H179303   3.398   2.322  11.691 -0.8170 -1.7895 -0.8618
19296TIP3    H279304   3.251   2.292  11.676 -1.6337  1.4521 -0.1325
19297TIP3   OH279305   5.157   5.382   2.368  0.7454  0.7708 -0.0892
19297TIP3    H179306   5.191   5.339   2.446  0.1389 -1.5631 -1.0452
19297TIP3    H279307   5.172   5.475   2.384  2.0683  0.2504  2.0983
19298TIP3   OH279308   1.397   3.034   2.819 -0.4898 -0.4945 -0.0903
19298TIP3    H179309   1.485   3.059   2.793 -1.0365 -0.3671 -1.9925
19298TIP3    H279310   1.349   3.025   2.736 -1.3805 -4.0009  0.6484
19299TIP3   OH279311   2.721   2.958   0.848 -0.0008 -0.2997  0.0065
19299TIP3    H179312   2.660   2.958   0.775  0.1048 -0.4696 -0.0837
19299TIP3    H279313   2.785   3.025   0.825  1.3244 -1.8728 -1.1652
19300TIP3   OH279314   3.899   6.348   4.980  1.0867 -0.0933 -0.2979
19300TIP3    H179315   3.928   6.344   5.071 -0.6500 -0.6184  0.2893
19300TIP3    H279316   3.932   6.268   4.940  1.4937 -0.0724 -0.0020
19301TIP3   OH279317   2.979   6.018  14.264  0.4208 -0.2808 -0.2287
19301TIP3    H179318   3.001   6.107  14.290 -0.5975 -0.1211  0.1268
19301TIP3    H279319   3.025   6.005  14.181  0.6410  0.5398 -0.2437
19302TIP3   OH279320   1.808   3.515  14.355  0.3495  0.1905 -0.0724
19302TIP3    H179321   1.874   3.451  14.329  0.8741  1.0861 -1.0548
19302TIP3    H279322   1.761   3.474  14.427 -0.1585 -1.8238 -1.4564
19303TIP3   OH279323   4.056   4.728  10.493 -0.1260  0.5341  0.3946
19303TIP3    H179324   4.029   4.650  10.446 -0.6781  0.5244  0.7265
19303TIP3    H279325   4.148   4.739  10.470 -0.3784  0.5123 -0.6616
19304TIP3   OH279326   2.640   1.298  12.045  0.2208  0.7393 -0.0289
19304TIP3    H179327   2.638   1.356  11.969 -1.0161 -0.8452 -1.2835
19304TIP3    H279328   2.622   1.211  12.009  1.8092 -0.4327  1.7983
19305TIP3   OH279329   4.482   2.721   3.313 -0.6757 -0.5214  0.1691
19305TIP3    H179330   4.418   2.774   3.361 -1.1019 -1.3870  0.5904
19305TIP3    H279331   4.442   2.634   3.308 -1.1637 -0.2198 -2.7504
19306TIP3   OH279332   2.394   2.439   1.982 -0.2215 -0.1698 -0.1047
19306TIP3    H179333   2.347   2.400   1.908 -1.2118 -1.0004  0.9312
19306TIP3    H279334   2.342   2.516   2.005 -0.9158 -0.8749  0.7948
19307TIP3   OH279335   0.440   1.090  12.246  0.3962  0.0749 -0.0612
19307TIP3    H179336   0.489   1.008  12.233 -1.4637 -1.2455  0.7999
19307TIP3    H279337   0.508   1.156  12.259  1.9705 -1.5883  0.7126
19308TIP3   OH279338   0.445   4.829  13.203  0.1888  0.8659 -0.1078
19308TIP3    H179339   0.431   4.923  13.199  0.9034  0.9850  0.0556
19308TIP3    H279340   0.536   4.816  13.175 -0.5476  0.0024 -2.3232
19309TIP3   OH279341   5.345   0.666   0.701 -0.0580 -1.0182  0.2220
19309TIP3    H179342   5.345   0.600   0.771 -0.6664  0.1504  1.3574
19309TIP3    H279343   5.256   0.664   0.667 -0.0018 -0.9656  0.0720
19310TIP3   OH279344   0.267   0.096  15.334 -0.9032  0.1707 -0.0353
19310TIP3    H179345   0.321   0.099  15.254 -1.8795  1.3240 -0.6704
19310TIP3    H279346   0.331   0.092  15.405  0.0115  0.5057 -0.8090
19311TIP3   OH279347   3.033   5.057  12.769  0.0894  0.0340 -0.3147
19311TIP3    H179348   3.007   5.071  12.860  1.2449 -1.2261  0.2524
19311TIP3    H279349   3.128   5.062  12.771  0.1504 -0.5098 -1.3606
19312TIP3   OH279350   1.842   2.908   3.025  0.6550  0.2044 -0.2259
19312TIP3    H179351   1.840   2.816   3.053 -0.6213  0.3074  0.0784
19312TIP3    H279352   1.757   2.922   2.983  1.7324  0.6209 -2.3683
19313TIP3   OH279353   0.097   4.508   1.898 -0.0698 -0.0044 -0.1253
19313TIP3    H179354   0.060   4.472   1.817  0.3172 -0.1796 -0.2314
19313TIP3    H279355   0.114   4.431   1.952 -0.8134  0.1500  0.3388
19314TIP3   OH279356   4.553   5.692  16.913 -0.0113 -0.2403 -0.7152
19314TIP3    H179357   4.568   5.774  16.961  0.3393 -0.6515 -0.1036
19314TIP3    H279358   4.632   5.680  16.861 -0.7236  0.6192 -2.0440
19315TIP3   OH279359   1.623   1.799   5.273 -0.6375  0.5231  0.3268
19315TIP3    H179360   1.703   1.748   5.287 -1.5370 -0.5643  1.8063
19315TIP3    H279361   1.649   1.889   5.291  0.6595  0.4627 -1.0003
19316TIP3   OH279362   4.447   6.262   0.894  0.4850  0.1755  0.0767
19316TIP3    H179363   4.405   6.252   0.980  0.3968  0.7393  0.0998
19316TIP3    H279364   4.387   6.318   0.845  0.5905 -0.0560 -0.3166
19317TIP3   OH279365   4.852   5.966   1.166 -0.2453  0.7029 -0.5165
19317TIP3    H179366   4.900   6.046   1.188 -1.3545  1.5049 -0.9190
19317TIP3    H279367   4.865   5.955   1.072  0.0234  0.3187 -0.4371
19318TIP3   OH279368   1.093   0.219  10.685  0.5981 -0.1334 -0.3216
19318TIP3    H179369   1.029   0.228  10.755 -0.4813 -0.7264 -1.2171
19318TIP3    H279370   1.113   0.125  10.682  1.8136  0.0778  0.1819
19319TIP3   OH279371   0.840   5.453  13.778 -0.6513 -0.2499 -0.1268
19319TIP3    H179372   0.823   5.389  13.709 -0.2978 -0.6097  0.1091
19319TIP3    H279373   0.910   5.508  13.744 -0.9526  0.0118 -0.3288
19320TIP3   OH279374   0.987   1.592   3.313  0.1157  0.5565  0.4354
19320TIP3    H179375   0.937   1.558   3.239  1.3897 -0.3572 -0.0392
19320TIP3    H279376   1.033   1.668   3.278 -1.2071  1.6424  0.9785
19321TIP3   OH279377   0.993   0.826  16.209 -0.2163 -0.0973  0.4053
19321TIP3    H179378   1.040   0.745  16.227 -2.8209 -1.9580 -0.5089
19321TIP3    H279379   0.925   0.801  16.147  0.6205  3.4250 -2.2745
19322TIP3   OH279380   4.821   0.104  11.956  0.1004  0.2456 -0.3897
19322TIP3    H179381   4.758   0.159  12.002  1.2411  2.1264 -0.9393
19322TIP3    H279382   4.901   0.110  12.009  0.3976 -0.4986 -0.7298
19323TIP3   OH279383   5.918   2.999  12.543  0.4824  0.0355 -0.3267
19323TIP3    H179384   5.901   2.949  12.623  3.0940 -0.0828  0.2658
19323TIP3    H279385   5.837   2.994  12.493  0.2769 -4.1429  0.0747
19324TIP3   OH279386   5.167   1.554  13.509 -0.2730  0.1891  0.1496
19324TIP3    H179387   5.184   1.625  13.571 -2.4652 -0.1541  1.2209
19324TIP3    H279388   5.157   1.598  13.425 -1.6153  1.1908  0.8039
19325TIP3   OH279389   2.181   2.121   0.808 -0.1879 -0.4644 -0.3249
19325TIP3    H179390   2.221   2.060   0.870 -1.0064 -1.4451 -0.7319
19325TIP3    H279391   2.093   2.136   0.843  0.0448  0.6128 -0.1562
19326TIP3   OH279392   4.324   6.249   6.275  0.7171  0.6014  0.2751
19326TIP3    H179393   4.262   6.206   6.334  1.5519 -0.4320  0.4343
19326TIP3    H279394   4.391   6.285   6.333  0.4379  1.4520  0.0844
19327TIP3   OH279395   5.091   3.252   2.168  0.9528 -0.7330 -0.3758
19327TIP3    H179396   5.089   3.269   2.262 -0.9595 -0.3273 -0.4615
19327TIP3    H279397   5.078   3.158   2.161  0.3595 -0.6609 -0.2578
19328TIP3   OH279398   6.390   2.919   4.908 -0.8138 -0.3360  0.2051
19328TIP3    H179399   6.402   2.929   4.814 -0.4454 -0.1921  0.2670
19328TIP3    H279400   6.351   2.832   4.919 -5.8820  1.4792 -0.5338
19329TIP3   OH279401   3.529   6.432   3.059  0.1723 -0.1524 -0.5718
19329TIP3    H179402   3.484   6.377   2.995 -1.2558  0.7364 -0.3646
19329TIP3    H279403   3.571   6.500   3.007 -1.1038  0.6512 -0.6084
19330TIP3   OH279404   5.557   5.164   0.360  0.2774 -0.4230 -0.2443
19330TIP3    H179405   5.601   5.213   0.430  0.1742 -1.3346  0.4800
19330TIP3    H279406   5.533   5.081   0.401  0.1889 -0.9633 -1.3653
19331TIP3   OH279407   0.013   6.729   3.431 -0.1089 -0.1918  0.1745
19331TIP3    H179408   0.002   6.687   3.517  1.0945  0.2383  0.5544
19331TIP3    H279409   0.015   6.656   3.369  0.9809 -0.6450  0.7261
19332TIP3   OH279410   4.257   4.774   4.633  0.5818  0.1215 -0.0916
19332TIP3    H179411   4.219   4.691   4.661  1.1869  0.4705  1.9043
19332TIP3    H279412   4.351   4.756   4.629  0.4689 -0.3278 -3.5363
19333TIP3   OH279413   3.174   4.445   4.958  0.1378 -0.0961 -0.3678
19333TIP3    H179414   3.172   4.421   5.050  0.8732 -0.9455 -0.5551
19333TIP3    H279415   3.267   4.451   4.937  0.0028 -1.0873 -1.3306
19334TIP3   OH279416   6.633   4.635   4.848 -0.5028 -0.3970 -0.0975
19334TIP3    H179417   6.675   4.585   4.779 -0.1797  0.8511 -0.8475
19334TIP3    H279418   6.678   4.720   4.847 -1.5252  0.1830  0.5952
19335TIP3   OH279419   5.280   0.701  14.823 -0.4929  0.3091 -0.2511
19335TIP3    H179420   5.347   0.647  14.781 -1.0590 -1.9740  1.5792
19335TIP3    H279421   5.319   0.789  14.828  0.3591  0.2641 -3.5801
19336TIP3   OH279422   6.345   5.303  15.783 -0.3502 -0.1009  0.3842
19336TIP3    H179423   6.362   5.229  15.725 -3.1806  1.8231 -3.2562
19336TIP3    H279424   6.281   5.269  15.847  1.0307 -1.6148  1.0370
19337TIP3   OH279425   0.955   6.646   1.524  0.0274 -0.1694  0.5549
19337TIP3    H179426   0.971   6.572   1.465  0.4047  0.9158 -0.7610
19337TIP3    H279427   0.906   6.709   1.472  0.0037  0.6625  1.5336
19338TIP3   OH279428   3.976   2.627   5.922  0.3721  0.5092  0.1499
19338TIP3    H179429   3.980   2.607   5.829 -1.8032  1.4186 -0.2028
19338TIP3    H279430   4.032   2.704   5.933  0.7092  0.3416 -0.3814
19339TIP3   OH279431   1.305   2.241   4.031  0.2876 -0.0985 -0.1666
19339TIP3    H179432   1.230   2.184   4.045 -0.8276  1.6606  1.5890
19339TIP3    H279433   1.346   2.249   4.117  2.1543 -0.5492 -0.9838
19340TIP3   OH279434   1.698   5.883  14.076 -0.1175  0.2610 -0.0293
19340TIP3    H179435   1.745   5.828  14.139  0.2789 -0.3432 -0.8284
19340TIP3    H279436   1.667   5.822  14.009 -0.5003  0.8909 -0.4382
19341TIP3   OH279437   3.591   1.257  15.878  0.3373  0.0490  0.4780
19341TIP3    H179438   3.589   1.301  15.793 -1.9522 -0.5320  0.1642
19341TIP3    H279439   3.503   1.221  15.889  0.0444  1.3330  3.7333
19342TIP3   OH279440   2.409   4.306   1.846  0.7229  0.4637  0.2017
19342TIP3    H179441   2.336   4.255   1.882  1.3392 -0.4248  0.2203
19342TIP3    H279442   2.367   4.382   1.805 -0.2348 -0.1574  0.0019
19343TIP3   OH279443   5.726   6.075  13.329 -0.3664  0.5041  0.2545
19343TIP3    H179444   5.693   6.118  13.408 -0.2482  0.3960  0.3638
19343TIP3    H279445   5.648   6.057  13.277 -0.6458 -1.0511  1.1528
19344TIP3   OH279446   5.497   6.379  14.985 -0.8625  0.6467  0.1820
19344TIP3    H179447   5.525   6.398  15.075  0.4020 -1.5885  0.3304
19344TIP3    H279448   5.403   6.361  14.993 -1.3435  2.9326  0.5718
19345TIP3   OH279449   3.988   5.456   5.828 -0.2112  0.7682  0.2755
19345TIP3    H179450   3.957   5.392   5.891  0.1341  1.9158  1.6782
19345TIP3    H279451   4.082   5.438   5.819 -0.4646 -0.1044 -0.8065
19346TIP3   OH279452   5.920   5.926   6.707  0.0438 -0.2250 -0.6132
19346TIP3    H179453   6.002   5.965   6.740 -0.9345  1.3303  0.1087
19346TIP3    H279454   5.930   5.927   6.612  1.0803 -0.5416 -0.5211
19347TIP3   OH279455   1.867   5.838  13.308  0.8538 -0.5360 -0.6979
19347TIP3    H179456   1.826   5.864  13.225 -1.0680  0.6317  0.5550
19347TIP3    H279457   1.856   5.743  13.310  0.2871 -0.5019 -1.4657
19348TIP3   OH279458   2.633   6.313   3.454 -0.3676  0.4935 -0.1963
19348TIP3    H179459   2.556   6.269   3.417 -0.8834  3.4150 -3.0305
19348TIP3    H279460   2.671   6.361   3.381  1.0279  3.4374  2.2486
19349TIP3   OH279461   4.346   4.500   5.162 -0.5129 -0.3713  0.1706
19349TIP3    H179462   4.320   4.591   5.145 -1.4962 -0.6187  0.2784
19349TIP3    H279463   4.339   4.491   5.257 -1.3457 -0.8159  0.0773
19350TIP3   OH279464   4.371   3.473  10.697  0.1114 -0.4877 -0.9127
19350TIP3    H179465   4.420   3.555  10.685  2.1509 -1.2929  1.1635
19350TIP3    H279466   4.293   3.483  10.642  1.4476  1.8654 -2.5505
19351TIP3   OH279467   5.548   4.924   1.324 -0.0128 -0.0599 -0.1657
19351TIP3    H179468   5.638   4.958   1.318  1.1421 -2.6572  0.7646
19351TIP3    H279469   5.529   4.923   1.417  0.5167 -2.8846  0.0081
19352TIP3   OH279470   6.678   0.892  12.308  0.2795 -0.2324  0.3392
19352TIP3    H179471   6.627   0.907  12.387  0.1821 -0.7712  0.3796
19352TIP3    H279472   6.740   0.823  12.331 -0.2904 -0.9655 -0.2911
19353TIP3   OH279473   4.786   4.483  12.642 -0.2078  0.5225  0.3327
19353TIP3    H179474   4.814   4.506  12.731 -0.1860  1.4173  0.1027
19353TIP3    H279475   4.822   4.552  12.587  0.5668 -0.5185 -0.5158
19354TIP3   OH279476   5.508   0.263  16.149  0.6543 -0.1922  0.2925
19354TIP3    H179477   5.474   0.353  16.143 -1.3741 -0.9163  0.1367
19354TIP3    H279478   5.526   0.252  16.243  0.2967  0.1810  0.4128
19355TIP3   OH279479   6.658   1.468   2.979  0.2295  0.0736 -0.0309
19355TIP3    H179480   6.633   1.560   2.979  0.6312  0.1858 -0.3961
19355TIP3    H279481   6.737   1.464   3.034 -0.3331 -0.2150  0.7884
19356TIP3   OH279482   2.986   1.037   1.622 -0.2442 -0.2181 -0.4140
19356TIP3    H179483   3.019   0.982   1.551 -0.2636  0.2156 -0.7573
19356TIP3    H279484   2.936   1.106   1.579 -0.9605 -0.4269  0.0616
19357TIP3   OH279485   0.664   1.153   0.996  0.3199  0.5850 -1.0412
19357TIP3    H179486   0.671   1.242   0.962 -2.0446  1.6584  0.9665
19357TIP3    H279487   0.592   1.114   0.948 -1.0077  1.0547  0.4896
19358TIP3   OH279488   6.241   1.557  12.986  0.0739 -0.2986 -0.4123
19358TIP3    H179489   6.271   1.642  12.954 -0.0511 -0.2736 -0.4616
19358TIP3    H279490   6.150   1.551  12.957 -0.1570 -0.1101  0.2579
19359TIP3   OH279491   3.558   2.014   1.150  0.0317 -0.2386  0.1659
19359TIP3    H179492   3.596   2.072   1.084 -0.8300 -1.1178 -1.1569
19359TIP3    H279493   3.621   2.014   1.221  1.2130  0.4101 -0.8419
19360TIP3   OH279494   3.383   1.446   0.484 -0.1720 -0.5548  0.2872
19360TIP3    H179495   3.400   1.407   0.398  0.8596  1.7997 -0.6404
19360TIP3    H279496   3.402   1.376   0.546 -0.5700 -2.2044 -1.3620
19361TIP3   OH279497   5.672   4.755  16.071  0.4993  0.7541 -0.2988
19361TIP3    H179498   5.671   4.764  15.975 -0.0560 -1.2597 -0.5335
19361TIP3    H279499   5.658   4.661  16.086 -1.6102  1.2961  1.8000
19362TIP3   OH279500   6.122   2.168  15.311 -0.5220  0.0659  0.0319
19362TIP3    H179501   6.138   2.251  15.267  1.1280  0.3307  1.0499
19362TIP3    H279502   6.171   2.103  15.261  0.6591  0.2315  0.9159
19363TIP3   OH279503   4.030   4.558   3.212 -0.0176  0.5983  0.4316
19363TIP3    H179504   3.951   4.510   3.240 -0.5496  1.5658  0.6285
19363TIP3    H279505   4.088   4.554   3.288 -0.4642  1.1008  0.8126
19364TIP3   OH279506   5.069   1.610  13.042  0.0029  0.3552  0.5498
19364TIP3    H179507   5.048   1.518  13.022 -0.8959  0.6275  0.1860
19364TIP3    H279508   5.137   1.633  12.978 -0.8620  0.3882 -0.3728
19365TIP3   OH279509   2.987   4.707  11.198  0.0937  0.2892 -0.5855
19365TIP3    H179510   3.035   4.626  11.180  1.3844  1.2172 -1.6186
19365TIP3    H279511   3.014   4.732  11.286  0.1981 -0.0581 -0.5153
19366TIP3   OH279512   4.435   1.072   2.154 -0.4995  0.3152 -0.1689
19366TIP3    H179513   4.495   1.018   2.205 -0.9729 -0.4054 -0.3638
19366TIP3    H279514   4.403   1.137   2.217 -1.1560 -0.6220  0.4941
19367TIP3   OH279515   0.567   2.184   0.577  0.0741  0.1036 -0.0237
19367TIP3    H179516   0.504   2.204   0.647 -0.1059  1.9752 -0.6956
19367TIP3    H279517   0.547   2.245   0.507  2.9598  1.1265 -0.0798
19368TIP3   OH279518   0.388   5.156   3.073  0.1058  0.0993 -0.1519
19368TIP3    H179519   0.429   5.206   3.004  1.3055  1.3750  1.4111
19368TIP3    H279520   0.296   5.184   3.073  0.1596  0.2903 -1.0046
19369TIP3   OH279521   1.284   5.197  16.990 -0.6029 -0.0253  0.3816
19369TIP3    H179522   1.370   5.215  17.027 -0.4782 -2.5803  1.5438
19369TIP3    H279523   1.302   5.153  16.906 -0.6483 -2.2179  1.4531
19370TIP3   OH279524   6.307   4.209  12.408 -0.1059  0.1943  0.0193
19370TIP3    H179525   6.393   4.178  12.379 -0.3128  0.0748 -0.4706
19370TIP3    H279526   6.279   4.269  12.339 -0.9410 -0.6768 -0.4234
19371TIP3   OH279527   5.864   6.570  10.723  1.0464  0.3368 -0.0086
19371TIP3    H179528   5.776   6.608  10.730  1.7096  1.7172  1.4348
19371TIP3    H279529   5.859   6.490  10.776  0.7411  0.5906  0.3588
19372TIP3   OH279530   1.135   0.786  15.551 -0.3482  0.5180  0.6015
19372TIP3    H179531   1.133   0.733  15.471  1.4600  0.1586  0.7598
19372TIP3    H279532   1.111   0.874  15.522  0.9769  0.5480 -0.4960
19373TIP3   OH279533   5.457   4.236   0.340  0.0920 -0.2852 -0.3012
19373TIP3    H179534   5.469   4.157   0.393  0.8396 -0.0396 -0.0871
19373TIP3    H279535   5.512   4.222   0.263 -0.8900 -0.5819 -0.9506
19374TIP3   OH279536   4.444   1.999  15.007 -0.5100 -0.0475  0.4635
19374TIP3    H179537   4.519   1.949  15.037 -0.4154 -0.3993 -0.3166
19374TIP3    H279538   4.446   1.990  14.911 -1.5515 -0.0883  0.4299
19375TIP3   OH279539   4.917   3.935   1.292 -0.1895 -0.0404 -0.0492
19375TIP3    H179540   4.848   3.983   1.245 -0.5038 -0.0337  0.4078
19375TIP3    H279541   4.946   3.868   1.230 -0.5374  0.0211 -0.2849
19376TIP3   OH279542   5.185   1.997  12.087 -0.2423  0.7409  0.4380
19376TIP3    H179543   5.171   2.073  12.031 -1.9094  0.3124  0.1971
19376TIP3    H279544   5.097   1.960  12.099  0.6092 -1.6242 -0.1074
19377TIP3   OH279545   0.811   4.373   4.383 -0.5220 -0.3032  0.3277
19377TIP3    H179546   0.769   4.458   4.372  0.3750  0.0521 -0.5188
19377TIP3    H279547   0.898   4.392   4.416 -0.0963 -0.8282 -0.4343
19378TIP3   OH279548   5.593   5.732   4.062  0.3559 -0.0684  0.0099
19378TIP3    H179549   5.594   5.789   4.139 -0.1553  0.2447 -0.2081
19378TIP3    H279550   5.663   5.668   4.078  0.5271  0.2461  0.5390
19379TIP3   OH279551   2.988   0.505  12.996 -0.4308  0.2975  0.3096
19379TIP3    H179552   3.057   0.442  13.015 -0.5085  0.5881  1.6857
19379TIP3    H279553   3.031   0.573  12.944 -0.1854 -0.5252 -0.5864
19380TIP3   OH279554   0.722   3.048  11.379 -0.6452  0.3099  0.4035
19380TIP3    H179555   0.689   2.969  11.422 -0.2323  0.7996  1.6615
19380TIP3    H279556   0.814   3.028  11.361 -0.6565  0.3374  0.3145
19381TIP3   OH279557   0.073   3.848  13.280 -0.3646 -0.5319  0.4791
19381TIP3    H179558   0.146   3.786  13.272 -0.4575 -0.4216 -2.3238
19381TIP3    H279559   0.007   3.814  13.220 -1.1974  1.2436  0.3485
19382TIP3   OH279560   4.212   2.763  14.765  0.1290 -0.1368 -0.0721
19382TIP3    H179561   4.247   2.760  14.854  1.0333 -0.6898 -0.4232
19382TIP3    H279562   4.185   2.854  14.752  2.2969  0.5694 -0.0551
19383TIP3   OH279563   3.427   6.638   4.315 -0.5903  0.0351  0.2048
19383TIP3    H179564   3.408   6.701   4.246  1.1900  0.0902 -0.2775
19383TIP3    H279565   3.520   6.620   4.307 -0.5616 -0.8113  1.8985
19384TIP3   OH279566   3.968   4.246   1.659 -0.8115  0.1795  0.3753
19384TIP3    H179567   3.967   4.320   1.598  1.8040  0.1096  0.1376
19384TIP3    H279568   3.929   4.174   1.610 -0.0100  0.4857 -0.7531
19385TIP3   OH279569   5.945   5.461  15.407  0.2780 -0.3087 -0.5576
19385TIP3    H179570   6.010   5.399  15.374 -0.7487 -1.8079  0.1181
19385TIP3    H279571   5.895   5.411  15.472  0.3043  1.6528  1.0710
19386TIP3   OH279572   4.281   0.977   5.558 -0.3265 -0.4289 -0.1310
19386TIP3    H179573   4.356   0.923   5.583  1.5787  1.1326 -2.0677
19386TIP3    H279574   4.246   1.009   5.641  0.8799 -1.4997  0.8493
19387TIP3   OH279575   2.400   6.781  12.582  0.2942 -0.4721  0.7670
19387TIP3    H179576   2.382   6.873  12.560  0.0428 -0.5196  0.7721
19387TIP3    H279577   2.314   6.741  12.588  0.3897 -0.6180  1.1689
19388TIP3   OH279578   3.659   4.972   3.394  0.7229  0.0747 -0.1573
19388TIP3    H179579   3.719   4.926   3.452  0.1381 -0.5303 -0.0100
19388TIP3    H279580   3.679   5.065   3.407  2.6414 -0.1424 -1.2345
19389TIP3   OH279581   1.038   6.549   0.705 -0.4611 -0.3657 -0.2489
19389TIP3    H179582   1.088   6.620   0.664  1.1581 -1.5699 -0.4578
19389TIP3    H279583   1.008   6.586   0.788 -1.1856  1.1254 -1.1317
19390TIP3   OH279584   0.965   2.435   0.275  0.1379  0.2483 -0.2040
19390TIP3    H179585   0.902   2.508   0.274 -0.6962 -0.4390  0.6515
19390TIP3    H279586   0.956   2.394   0.189 -0.7329  0.0430 -0.0226
19391TIP3   OH279587   5.238   1.925   2.345 -0.0480 -0.2800  0.0430
19391TIP3    H179588   5.171   1.937   2.279  0.2982  0.7200 -0.1412
19391TIP3    H279589   5.205   1.854   2.401 -0.1727 -1.3987 -1.3997
19392TIP3   OH279590   2.175   4.205   4.928  0.0296 -0.3826 -0.1286
19392TIP3    H179591   2.094   4.242   4.962  0.4536 -0.4643  1.0517
19392TIP3    H279592   2.177   4.116   4.962 -0.3176 -1.0430 -1.7893
19393TIP3   OH279593   1.943   0.819  14.988  0.9130 -0.0350  0.2832
19393TIP3    H179594   1.859   0.802  15.030  0.4651  3.1928  1.0157
19393TIP3    H279595   2.007   0.815  15.059  0.6179  2.1681  0.7530
19394TIP3   OH279596   1.955   3.202  16.108 -0.0472  0.2093 -0.3440
19394TIP3    H179597   1.973   3.233  16.197  2.3419 -1.3106 -0.2109
19394TIP3    H279598   2.012   3.254  16.052  1.7723 -1.7528 -0.4351
19395TIP3   OH279599   1.436   5.241  16.483  0.0307 -0.2444  0.2602
19395TIP3    H179600   1.530   5.253  16.476  0.0256 -0.5643 -0.4161
19395TIP3    H279601   1.412   5.189  16.407 -0.4580 -1.6200  1.3077
19396TIP3   OH279602   6.648   6.237   2.577 -0.0587 -0.3008 -0.4845
19396TIP3    H179603   6.593   6.163   2.600 -0.5556  0.3363  0.4893
19396TIP3    H279604   6.735   6.200   2.564  0.3337 -0.8028  2.6469
19397TIP3   OH279605   4.084   5.718  16.179  0.6750 -0.3206 -0.2127
19397TIP3    H179606   4.001   5.672  16.189  0.0858  0.8749  0.5413
19397TIP3    H279607   4.123   5.718  16.267  0.0460  1.7264  0.1037
19398TIP3   OH279608   2.619   1.674  15.837 -0.0932  0.4487  0.1205
19398TIP3    H179609   2.553   1.635  15.780 -3.1109  0.1367  3.4778
19398TIP3    H279610   2.700   1.628  15.815 -1.0298  0.2658 -3.6434
19399TIP3   OH279611   4.037   3.623   0.942  0.1901 -0.4520 -0.7005
19399TIP3    H179612   3.972   3.644   1.009  2.0244 -0.1683  1.0780
19399TIP3    H279613   4.038   3.700   0.885 -1.2447 -0.6018 -0.9520
19400TIP3   OH279614   1.807   0.988  15.958  0.2712 -0.3400  0.2273
19400TIP3    H179615   1.716   0.974  15.935 -0.2278 -2.0194  2.8350
19400TIP3    H279616   1.853   0.910  15.925  0.5069 -0.1919  0.2013
19401TIP3   OH279617   5.718   4.504  15.599  0.1347 -0.1834 -0.1196
19401TIP3    H179618   5.755   4.431  15.648  3.0715 -0.6279 -2.6137
19401TIP3    H279619   5.649   4.465  15.545  1.2239 -1.0790 -0.9300
19402TIP3   OH279620   6.476   6.098   1.243 -0.2330 -0.3343 -0.0593
19402TIP3    H179621   6.487   6.193   1.234  2.9482 -0.4362  1.3879
19402TIP3    H279622   6.512   6.062   1.162 -0.4314 -0.3498 -0.1415
19403TIP3   OH279623   6.706   4.316  16.757  0.3246 -0.4848 -0.0494
19403TIP3    H179624   6.733   4.402  16.726  1.8214 -0.9180 -0.0173
19403TIP3    H279625   6.702   4.325  16.852 -1.8618  0.1655 -0.1433
19404TIP3   OH279626   5.343   1.531   3.794 -0.1022  0.0328  0.4935
19404TIP3    H179627   5.282   1.561   3.728  0.0280 -1.2667 -0.2569
19404TIP3    H279628   5.292   1.531   3.876  0.4717  4.2895  1.0869
19405TIP3   OH279629   0.075   3.961   2.064  0.1630 -0.5490 -0.2194
19405TIP3    H179630   0.022   3.892   2.025  0.1669  0.9779 -3.2555
19405TIP3    H279631   0.160   3.953   2.022  0.8209 -0.0035  0.9684
19406TIP3   OH279632   5.299   4.941   3.138 -0.3072  0.6741  0.4241
19406TIP3    H179633   5.346   5.023   3.156  0.0559  0.8678 -1.2754
19406TIP3    H279634   5.367   4.876   3.125 -0.4842  0.7807 -1.2472
19407TIP3   OH279635   4.601   3.465   6.281 -0.2195 -0.3830 -0.0564
19407TIP3    H179636   4.668   3.528   6.305 -0.3431  0.2792 -1.3557
19407TIP3    H279637   4.520   3.516   6.275  0.1222  0.0448 -3.8061
19408TIP3   OH279638   1.446   2.107  14.364 -0.1344  0.0439  0.1884
19408TIP3    H179639   1.359   2.067  14.361  0.7538 -2.0580  0.3164
19408TIP3    H279640   1.451   2.159  14.284  0.0213 -3.4058 -2.2912
19409TIP3   OH279641   4.476   6.554  16.842 -0.3776  0.3555 -0.1193
19409TIP3    H179642   4.456   6.611  16.916  1.1188 -0.6013  1.0701
19409TIP3    H279643   4.554   6.505  16.869 -0.1714 -0.4956 -2.0708
19410TIP3   OH279644   3.866   0.944   5.044 -0.3862  0.1802  0.1063
19410TIP3    H179645   3.882   1.011   4.976 -3.5878 -0.4599 -1.4542
19410TIP3    H279646   3.813   0.989   5.109  0.0939 -0.0471  0.6639
19411TIP3   OH279647   6.617   4.704   1.429 -0.2350  0.4288 -0.3970
19411TIP3    H179648   6.623   4.789   1.385 -2.0092  1.2609  0.8375
19411TIP3    H279649   6.635   4.723   1.521  1.2330 -0.8979 -0.3645
19412TIP3   OH279650   1.131   3.302   6.252 -0.0117 -0.1040 -0.3064
19412TIP3    H179651   1.090   3.343   6.328 -0.6924 -0.0016 -0.7229
19412TIP3    H279652   1.106   3.357   6.178  0.5889 -0.2401 -0.6198
19413TIP3   OH279653   4.155   1.643   0.988  0.4490  0.7222 -0.2175
19413TIP3    H179654   4.147   1.703   0.914 -0.7933  1.1828  0.2644
19413TIP3    H279655   4.142   1.697   1.065 -1.9027 -0.2842  0.1982
19414TIP3   OH279656   2.393   2.463   3.478  0.5300 -0.0507  0.2421
19414TIP3    H179657   2.356   2.379   3.505  0.0732  0.2334  0.5045
19414TIP3    H279658   2.441   2.494   3.555 -0.1927  0.4300  0.5058
19415TIP3   OH279659   1.580   2.581  13.955  0.1177 -0.3369  0.2783
19415TIP3    H179660   1.493   2.555  13.925 -0.1884  0.3630  0.5511
19415TIP3    H279661   1.628   2.499  13.963 -0.3408 -0.6815 -0.4194
19416TIP3   OH279662   4.784   5.179   0.679 -0.0008  0.3927  0.1747
19416TIP3    H179663   4.861   5.131   0.650  1.1897  2.0360  0.4636
19416TIP3    H279664   4.730   5.114   0.723  0.8511 -0.9481 -0.6834
19417TIP3   OH279665   4.271   6.043  11.214  0.1197 -0.1887  0.3823
19417TIP3    H179666   4.342   5.984  11.239 -0.8470 -1.2752  0.6577
19417TIP3    H279667   4.198   6.018  11.271 -1.0593 -0.3623 -1.1301
19418TIP3   OH279668   0.159   1.014   2.976 -0.4733  0.1369  0.5799
19418TIP3    H179669   0.132   1.045   3.062  1.0430  0.3184  1.0253
19418TIP3    H279670   0.170   0.920   2.987 -1.5753 -0.0465  0.2061
19419TIP3   OH279671   0.991   4.774  15.645  0.5632  0.1159  0.4837
19419TIP3    H179672   0.984   4.794  15.738  1.9510 -0.0376  0.6520
19419TIP3    H279673   0.942   4.693  15.634  0.6021 -0.0016  1.1358
19420TIP3   OH279674   5.230   4.218  14.660  0.4127  0.0210  0.0117
19420TIP3    H179675   5.139   4.221  14.632 -0.4638 -0.5457  2.5131
19420TIP3    H279676   5.240   4.295  14.716  1.0923 -0.6105  0.7807
19421TIP3   OH279677   4.235   2.137  12.968  0.0120  0.3157  0.0571
19421TIP3    H179678   4.157   2.125  13.023  0.4171  0.0994  0.5969
19421TIP3    H279679   4.262   2.228  12.985  0.8240 -0.1086  1.1494
19422TIP3   OH279680   0.627   5.823   1.346 -0.0411  0.1093 -0.4933
19422TIP3    H179681   0.589   5.736   1.331  0.3923 -0.3017  0.6774
19422TIP3    H279682   0.558   5.872   1.391  0.5749 -0.4555  1.1204
19423TIP3   OH279683   2.752   3.993   0.526  0.6219  0.9249 -0.1218
19423TIP3    H179684   2.747   4.066   0.588  1.3922  2.0515 -1.3425
19423TIP3    H279685   2.832   4.009   0.476  0.3349 -0.2818 -1.0132
19424TIP3   OH279686   0.154   2.082  16.637 -0.3866 -0.0442 -0.4734
19424TIP3    H179687   0.098   2.015  16.676 -3.0343  1.1138 -2.0105
19424TIP3    H279688   0.127   2.163  16.680  0.4619  0.5051 -0.9531
19425TIP3   OH279689   3.545   1.584  12.213  0.2406 -0.4464 -0.0384
19425TIP3    H179690   3.562   1.505  12.264  2.5411 -1.3348 -2.0269
19425TIP3    H279691   3.498   1.553  12.135  0.0529  0.3460 -0.2539
19426TIP3   OH279692   0.901   4.388   3.367 -0.2710  0.2960  0.4884
19426TIP3    H179693   0.848   4.414   3.442  0.0091  0.4557  0.6320
19426TIP3    H279694   0.979   4.443   3.372 -0.3097  0.4056  0.0030
19427TIP3   OH279695   5.453   6.541   3.783 -0.2961 -0.5173 -0.6090
19427TIP3    H179696   5.427   6.515   3.872  0.5268  0.1217 -0.1700
19427TIP3    H279697   5.532   6.593   3.795 -0.7622  0.4838 -1.6330
19428TIP3   OH279698   6.305   4.100   0.019  0.0395 -0.7683  0.3728
19428TIP3    H179699   6.332   4.021   0.067  0.8558  0.7697  2.5801
19428TIP3    H279700   6.211   4.106   0.036 -0.1548 -1.5674 -0.3297
19429TIP3   OH279701   6.539   4.378   0.917 -0.3450 -0.3448  0.3670
19429TIP3    H179702   6.612   4.342   0.968  0.6379 -1.7407 -1.8816
19429TIP3    H279703   6.493   4.301   0.884 -0.8534  0.5015 -0.9647
19430TIP3   OH279704   4.429   0.774   1.212 -0.4118  0.0772 -0.7175
19430TIP3    H179705   4.520   0.742   1.215 -0.5036 -0.1124  0.7135
19430TIP3    H279706   4.434   0.858   1.166  0.8270  1.0806  1.1485
19431TIP3   OH279707   1.865   1.274   4.965  0.3058  0.6259  0.0975
19431TIP3    H179708   1.887   1.367   4.963 -1.4954  1.0765  0.0836
19431TIP3    H279709   1.847   1.255   5.057  0.2867  0.3800  0.0449
19432TIP3   OH279710   6.394   3.773   5.345 -0.4079  0.5523 -0.5151
19432TIP3    H179711   6.344   3.851   5.369 -2.4398 -1.1657  1.3561
19432TIP3    H279712   6.448   3.754   5.422 -0.0717  0.0269 -0.8742
19433TIP3   OH279713   4.196   5.657   0.993 -0.6499 -0.2314  0.4787
19433TIP3    H179714   4.111   5.699   1.001 -1.4251 -0.9967 -2.4638
19433TIP3    H279715   4.208   5.645   0.899  3.2595  0.8507  0.6656
19434TIP3   OH279716   4.227   5.481  11.673 -0.6456  0.4839 -0.1703
19434TIP3    H179717   4.168   5.522  11.736 -0.0359  0.4287  0.4490
19434TIP3    H279718   4.170   5.429  11.617 -1.1159 -0.3556  1.0345
19435TIP3   OH279719   2.535   2.807  11.516  0.2916  0.2745 -0.2312
19435TIP3    H179720   2.623   2.770  11.521  0.5853  1.1216  1.3894
19435TIP3    H279721   2.544   2.884  11.460  0.4443 -0.0070 -0.5925
19436TIP3   OH279722   0.494   3.779  15.113 -0.1943 -0.1498  0.4021
19436TIP3    H179723   0.535   3.742  15.192  0.9556 -0.3846 -0.2710
19436TIP3    H279724   0.431   3.713  15.086  1.2306 -1.2972 -0.2991
19437TIP3   OH279725   4.819   4.195   5.013  0.1751  0.1847  0.7143
19437TIP3    H179726   4.899   4.143   5.016 -0.7868 -1.3246  1.4289
19437TIP3    H279727   4.748   4.131   5.016 -1.0740  1.5021  0.7495
19438TIP3   OH279728   0.676   5.734   0.269 -0.1652  0.1516  0.6110
19438TIP3    H179729   0.764   5.715   0.302  0.2380 -0.7771 -0.8918
19438TIP3    H279730   0.683   5.821   0.230 -0.0204  0.2637  0.8867
19439TIP3   OH279731   0.923   4.251   4.149  0.3185 -0.1217  0.0791
19439TIP3    H179732   0.880   4.293   4.223  1.5112  1.5516 -0.1032
19439TIP3    H279733   0.879   4.287   4.072  0.0462 -0.7217 -0.0440
19440TIP3   OH279734   0.189   0.129   3.649  0.1294  0.1633 -0.5631
19440TIP3    H179735   0.171   0.055   3.592 -0.0827 -1.1956  1.1894
19440TIP3    H279736   0.285   0.133   3.654  0.1705 -1.6294  1.2764
19441TIP3   OH279737   0.582   0.006   2.762 -0.1780  0.1322 -0.2556
19441TIP3    H179738   0.657   0.033   2.814 -0.4623  1.3396 -0.4394
19441TIP3    H279739   0.617  -0.060   2.701  0.4776 -0.1420  0.4081
19442TIP3   OH279740   0.110   4.890   5.417 -0.4294 -0.0568 -0.2039
19442TIP3    H179741   0.201   4.907   5.441  0.1648 -0.9805 -1.6587
19442TIP3    H279742   0.069   4.977   5.415  0.6304  0.4509 -0.3064
19443TIP3   OH279743   6.118   3.527   4.748  0.4136 -0.4129  0.3955
19443TIP3    H179744   6.064   3.605   4.738 -0.7710 -1.3754 -1.2719
19443TIP3    H279745   6.082   3.482   4.825 -0.3705 -0.4261  0.0276
19444TIP3   OH279746   3.931   3.873  12.703  0.1288  0.1884  0.0703
19444TIP3    H179747   3.935   3.778  12.689  0.8940  0.2754 -0.3408
19444TIP3    H279748   3.864   3.904  12.642  0.1487 -0.0386 -0.0658
19445TIP3   OH279749   5.876   3.200  12.284 -0.7700 -0.2183  0.3674
19445TIP3    H179750   5.935   3.125  12.280  0.0210  0.4228 -0.4798
19445TIP3    H279751   5.935   3.276  12.286 -1.5299  0.3847  1.9407
19446TIP3   OH279752   0.186   0.730   4.065  0.0604  0.1716  0.1694
19446TIP3    H179753   0.263   0.733   4.121 -0.1376  2.0256  0.4203
19446TIP3    H279754   0.173   0.821   4.037 -2.3095  0.0261  0.5607
19447TIP3   OH279755   5.669   2.868  14.212  0.0557 -0.3966 -0.5009
19447TIP3    H179756   5.718   2.852  14.131  0.5065  1.0610 -0.5530
19447TIP3    H279757   5.578   2.851  14.189  0.0081  1.2750 -1.7309
19448TIP3   OH279758   0.708   4.910  11.698 -0.2076  0.2772  0.5135
19448TIP3    H179759   0.717   4.991  11.647 -2.4657  0.1744 -0.1722
19448TIP3    H279760   0.667   4.937  11.780  0.2663 -0.0159  0.8542
19449TIP3   OH279761   3.865   2.005   0.856  0.0586  0.0860 -0.0473
19449TIP3    H179762   3.853   2.052   0.938 -0.5584 -0.0214 -0.0712
19449TIP3    H279763   3.801   1.934   0.859 -1.4738  1.3136 -1.5223
19450TIP3   OH279764   4.619   1.995  13.898 -0.3172 -0.1841 -0.4354
19450TIP3    H179765   4.528   2.003  13.926  0.2656  1.1829  1.3404
19450TIP3    H279766   4.623   1.914  13.848 -2.0028 -1.6871  1.6753
19451TIP3   OH279767   5.667   4.867   3.498 -0.4525  0.7944 -0.0594
19451TIP3    H179768   5.578   4.834   3.510 -1.1207  1.5464 -2.5602
19451TIP3    H279769   5.723   4.791   3.512 -1.5629 -0.0123  0.0796
19452TIP3   OH279770   4.977   4.704   5.818  0.1320  0.8871 -0.5040
19452TIP3    H179771   4.957   4.794   5.792 -0.4057  0.3444 -2.0621
19452TIP3    H279772   4.938   4.695   5.905  0.5473  2.2645 -0.1413
19453TIP3   OH279773   0.021   4.547  11.103  0.6498 -0.0531 -0.7601
19453TIP3    H179774   0.040   4.620  11.045  0.6670  1.3830  0.9748
19453TIP3    H279775   0.034   4.469  11.049  0.5835  1.2037 -2.6755
19454TIP3   OH279776   0.940   4.214  16.120  0.9605 -0.0407  0.8916
19454TIP3    H179777   0.908   4.295  16.080  1.4887  0.1561  0.8692
19454TIP3    H279778   1.022   4.195  16.074  0.1981 -1.2937 -0.0236
19455TIP3   OH279779   5.188   3.930  10.765 -0.2416  0.4872 -0.2133
19455TIP3    H179780   5.269   3.939  10.715 -1.2470  0.0897 -1.9975
19455TIP3    H279781   5.150   3.847  10.736 -1.6805  1.0518 -0.0417
19456TIP3   OH279782   2.573   2.470  14.530  0.2711 -0.3618 -0.0713
19456TIP3    H179783   2.618   2.523  14.596 -0.9958  0.2590  0.3221
19456TIP3    H279784   2.628   2.478  14.452  1.2954 -0.3379  0.6417
19457TIP3   OH279785   3.192   4.658  13.662 -0.1238  0.6278  0.1495
19457TIP3    H179786   3.269   4.715  13.670  1.6383 -1.0851 -2.8002
19457TIP3    H279787   3.219   4.577  13.705 -0.1923 -0.0405 -1.0470
19458TIP3   OH279788   0.964   1.075  16.339 -0.3977  0.3581  0.0257
19458TIP3    H179789   0.931   0.998  16.293 -1.2133  0.3501  0.5975
19458TIP3    H279790   0.886   1.127  16.358  0.0379  0.8682  0.4659
19459TIP3   OH279791   3.180   1.748   2.474 -0.0514 -0.7322 -0.2278
19459TIP3    H179792   3.137   1.736   2.559 -1.0685 -1.3063 -0.8093
19459TIP3    H279793   3.215   1.662   2.452  0.1646 -0.5961 -0.4161
19460TIP3   OH279794   1.168   3.522   3.079 -0.5859  0.3327 -0.6683
19460TIP3    H179795   1.221   3.591   3.039  0.8802 -0.2381  0.1878
19460TIP3    H279796   1.124   3.480   3.006  1.4308 -0.2083 -1.6328
19461TIP3   OH279797   2.840   1.566  11.605  0.2973 -0.2610 -0.3493
19461TIP3    H179798   2.858   1.658  11.591 -1.1526  0.1067 -0.0401
19461TIP3    H279799   2.896   1.520  11.543  0.2963  0.8759 -1.2195
19462TIP3   OH279800   3.716   4.964  12.570 -0.2383 -0.5480 -0.6989
19462TIP3    H179801   3.715   5.008  12.655  0.8020 -0.4329 -0.7328
19462TIP3    H279802   3.808   4.939  12.557 -0.7502 -2.5735 -0.7686
19463TIP3   OH279803   3.026   5.261  14.948  0.9291  0.2592  0.0206
19463TIP3    H179804   3.027   5.356  14.955  1.1066  0.2195  0.5832
19463TIP3    H279805   3.071   5.230  15.027  0.9239 -0.2890 -0.1834
19464TIP3   OH279806   2.560   5.094   1.296  0.2459  0.1414  0.3687
19464TIP3    H179807   2.594   5.126   1.213 -0.2532 -1.8164 -0.6372
19464TIP3    H279808   2.620   5.023   1.320 -1.9471 -2.1627 -0.5265
19465TIP3   OH279809   6.139   5.706  13.953  0.1932 -0.5361 -0.3184
19465TIP3    H179810   6.174   5.699  13.864 -0.2953 -2.5535 -0.3975
19465TIP3    H279811   6.081   5.631  13.962  0.1874 -0.3423  1.7010
19466TIP3   OH279812   6.632   2.289   2.772 -0.4590 -0.1131  0.4386
19466TIP3    H179813   6.692   2.337   2.830 -1.1560  0.5182  0.6494
19466TIP3    H279814   6.619   2.348   2.697  1.0457 -1.2342 -0.7804
19467TIP3   OH279815   6.183   2.606  12.122 -0.6292 -0.2333  0.2812
19467TIP3    H179816   6.244   2.656  12.176 -1.2735 -0.4521  1.2539
19467TIP3    H279817   6.238   2.544  12.074  0.0327  0.4563  0.1234
19468TIP3   OH279818   2.967   3.937   5.639 -0.0302 -0.4724 -0.3751
19468TIP3    H179819   2.915   3.982   5.705 -0.6888 -2.4231  0.5150
19468TIP3    H279820   3.046   3.909   5.686  0.1157 -0.7355 -0.7687
19469TIP3   OH279821   6.510   4.484  11.302 -0.4123  0.4001 -0.1217
19469TIP3    H179822   6.479   4.540  11.374  0.4776 -0.7609  1.2282
19469TIP3    H279823   6.431   4.455  11.258 -1.1457 -0.3559  1.5851
19470TIP3   OH279824   0.686   1.210   5.505 -1.0175  0.4647  0.7437
19470TIP3    H179825   0.604   1.203   5.456 -0.8963 -0.0664  0.6158
19470TIP3    H279826   0.746   1.151   5.460 -1.7337 -2.3993  3.2559
19471TIP3   OH279827   5.717   1.194   1.096  0.0409 -0.0713 -0.0385
19471TIP3    H179828   5.801   1.173   1.057 -0.6340  1.7833 -2.7793
19471TIP3    H279829   5.737   1.214   1.188  2.2193 -1.5332 -0.1275
19472TIP3   OH279830   0.881   4.383   0.501 -0.1533 -0.0016 -0.2138
19472TIP3    H179831   0.824   4.422   0.568 -0.4704  0.2585 -0.6342
19472TIP3    H279832   0.929   4.314   0.548 -0.2434  0.2944  0.3235
19473TIP3   OH279833   1.144   5.448  15.085  0.0791  0.2207 -0.2429
19473TIP3    H179834   1.217   5.507  15.065 -0.3100  1.2498  1.2123
19473TIP3    H279835   1.172   5.400  15.163  0.5707 -1.9307 -1.6451
19474TIP3   OH279836   6.425   3.978  15.662 -0.0468 -0.7313  0.2320
19474TIP3    H179837   6.420   4.050  15.725 -0.2879  0.1971 -0.8152
19474TIP3    H279838   6.422   4.021  15.577 -0.7696 -2.0278 -0.4177
19475TIP3   OH279839   2.818   0.555  13.219 -0.0989  0.2212  0.6674
19475TIP3    H179840   2.756   0.483  13.209  0.3736 -0.0421 -0.5562
19475TIP3    H279841   2.867   0.556  13.137  1.2003  0.7189  1.4118
19476TIP3   OH279842   3.458   4.153  13.955 -0.0951  0.0018 -0.0560
19476TIP3    H179843   3.376   4.103  13.951  0.3000 -0.7050  0.3236
19476TIP3    H279844   3.435   4.240  13.923 -0.9828 -0.2025 -0.0086
19477TIP3   OH279845   3.690   0.091   4.226  0.2066  0.2552 -0.2942
19477TIP3    H179846   3.639   0.037   4.166 -0.1933  0.7441 -0.4002
19477TIP3    H279847   3.752   0.137   4.171 -2.0451  2.9618 -0.8337
19478TIP3   OH279848   0.132   2.720   2.412 -0.3167  0.3258 -0.4529
19478TIP3    H179849   0.074   2.682   2.477 -0.5432 -0.1150 -0.9040
19478TIP3    H279850   0.111   2.813   2.411 -3.1242 -0.1928 -2.6549
19479TIP3   OH279851   6.297   0.195  15.754 -0.2890 -0.0615 -0.1290
19479TIP3    H179852   6.375   0.144  15.734 -0.7312 -0.7099 -0.2270
19479TIP3    H279853   6.323   0.286  15.738  0.5982 -0.2159  0.3399
19480TIP3   OH279854   4.592   0.201   5.951 -0.1049 -0.3748  0.0518
19480TIP3    H179855   4.564   0.112   5.974 -0.5368 -0.5645 -1.1653
19480TIP3    H279856   4.519   0.236   5.900  0.4292  0.3807 -0.1938
19481TIP3   OH279857   2.935   5.273   2.117 -0.1499  0.3669  0.1148
19481TIP3    H179858   2.972   5.219   2.047 -1.4837 -0.2486 -0.1494
19481TIP3    H279859   2.964   5.231   2.198  0.6871  0.5779 -0.0750
19482TIP3   OH279860   0.950   6.445   3.479 -0.4395  0.6251  0.5935
19482TIP3    H179861   0.989   6.478   3.398  1.1108 -1.3791  0.4532
19482TIP3    H279862   1.017   6.460   3.546  0.1656 -1.7254  0.5971
19483TIP3   OH279863   3.834   4.777  15.415  0.3648  0.0584  0.0627
19483TIP3    H179864   3.862   4.744  15.330  0.5186  2.4781 -0.9259
19483TIP3    H279865   3.741   4.753  15.420 -0.1349  1.3620 -1.6542
19484TIP3   OH279866   1.258   0.061  12.543 -0.4825 -0.1003 -0.0379
19484TIP3    H179867   1.348   0.038  12.564 -0.8787 -1.2536  0.5230
19484TIP3    H279868   1.242   0.143  12.591  0.3053  0.1961 -0.2737
19485TIP3   OH279869   5.724   3.846  15.453  0.2033  0.1176  0.2838
19485TIP3    H179870   5.631   3.846  15.475 -0.1768 -1.5378 -1.1047
19485TIP3    H279871   5.762   3.776  15.506  0.8042  1.1635  1.2718
19486TIP3   OH279872   0.189   1.733   4.030  0.2439  0.0235 -0.2002
19486TIP3    H179873   0.237   1.809   3.997  0.2698 -0.0430 -0.3172
19486TIP3    H279874   0.105   1.768   4.058  0.7210  0.3076  0.9126
19487TIP3   OH279875   4.095   3.895  10.576  0.4653 -0.4788  0.2572
19487TIP3    H179876   4.112   3.813  10.624  1.1653 -0.6907 -0.3274
19487TIP3    H279877   4.162   3.955  10.609 -0.7084  0.2109  1.4641
19488TIP3   OH279878   6.790   5.466   3.816  0.3550  0.0307 -0.0495
19488TIP3    H179879   6.812   5.506   3.900 -0.8404  0.3292  0.1458
19488TIP3    H279880   6.796   5.372   3.832  0.9753  0.1002  0.1303
19489TIP3   OH279881   0.717   4.630   3.381  0.1310 -0.1384 -0.2785
19489TIP3    H179882   0.709   4.664   3.470  1.7219  0.4086 -0.3153
19489TIP3    H279883   0.810   4.633   3.362 -0.0754 -1.1638 -1.6266
19490TIP3   OH279884   4.864   5.312  16.967 -0.0471 -0.0074 -0.5457
19490TIP3    H179885   4.838   5.230  17.010  1.5646 -1.4676 -2.1642
19490TIP3    H279886   4.791   5.332  16.908 -0.5856 -0.1031  0.0735
19491TIP3   OH279887   2.551   3.233  15.575  0.1138  0.2260  0.4065
19491TIP3    H179888   2.522   3.288  15.647 -2.5473  0.4180 -0.7174
19491TIP3    H279889   2.510   3.270  15.497  1.7793 -0.7960 -1.0468
19492TIP3   OH279890   5.456   5.513  14.696 -0.6610 -0.3427 -0.0189
19492TIP3    H179891   5.534   5.515  14.641 -1.6055  0.7021 -1.3754
19492TIP3    H279892   5.400   5.582  14.662 -1.7071 -0.2915  1.6676
19493TIP3   OH279893   5.435   0.967  14.818  0.4134 -0.9080  0.1047
19493TIP3    H179894   5.453   0.964  14.724 -0.3909 -1.5388 -0.0426
19493TIP3    H279895   5.517   0.942  14.859  1.2776  0.9818 -0.3537
19494TIP3   OH279896   4.874   4.043  13.550  0.4559  0.4791  0.7485
19494TIP3    H179897   4.791   4.090  13.545  0.1813  0.2416  2.4718
19494TIP3    H279898   4.850   3.951  13.554  0.7840  0.4062  1.2009
19495TIP3   OH279899   5.993   6.517  15.610  0.2369 -0.2866  0.3705
19495TIP3    H179900   6.026   6.526  15.699  0.7068 -0.7065  0.2396
19495TIP3    H279901   6.052   6.454  15.568 -0.2791 -0.4726 -0.0871
19496TIP3   OH279902   3.994   0.006   4.656  0.4189  0.3100 -0.1147
19496TIP3    H179903   3.954  -0.079   4.677  0.9122  0.3169  0.9169
19496TIP3    H279904   4.071  -0.017   4.604  0.3450  0.1411 -0.1498
19497TIP3   OH279905   3.385   0.886  14.884 -0.4826 -0.6131  0.0618
19497TIP3    H179906   3.476   0.895  14.856 -0.4404  0.7510  0.5300
19497TIP3    H279907   3.388   0.893  14.979 -1.3183  2.8772 -0.0116
19498TIP3   OH279908   6.563   0.312  16.449 -0.3038  0.1694  0.4078
19498TIP3    H179909   6.574   0.349  16.537  0.5021  2.5410 -0.6289
19498TIP3    H279910   6.640   0.340  16.401 -0.0806 -2.2087 -0.7528
19499TIP3   OH279911   5.471   6.097   2.664 -0.6306  0.0229 -0.1083
19499TIP3    H179912   5.423   6.025   2.705 -0.6407  0.2049  0.2059
19499TIP3    H279913   5.488   6.158   2.736 -0.0661  0.0330 -0.2466
19500TIP3   OH279914   2.806   0.263   3.327 -0.3790 -0.0816  0.0068
19500TIP3    H179915   2.900   0.251   3.343 -0.2655  2.4863  1.8245
19500TIP3    H279916   2.764   0.236   3.408 -1.2585 -1.0818 -0.7497
19501TIP3   OH279917   4.741   2.823  14.501  0.2255 -0.6582 -0.1930
19501TIP3    H179918   4.792   2.904  14.496  1.5862 -1.5244 -1.0215
19501TIP3    H279919   4.704   2.823  14.589  3.3013 -0.9091  1.2378
19502TIP3   OH279920   0.504   5.766  12.331  0.2159 -0.2059 -0.4274
19502TIP3    H179921   0.456   5.741  12.410  0.4088  0.2144 -0.1695
19502TIP3    H279922   0.509   5.686  12.279  1.2090 -0.8077  0.5716
19503TIP3   OH279923   0.682   5.578   2.963 -0.6238 -0.2314 -0.1436
19503TIP3    H179924   0.649   5.573   2.874 -2.7252  0.0487  0.5712
19503TIP3    H279925   0.636   5.508   3.010 -0.7248  0.6027  1.0582
19504TIP3   OH279926   5.591   0.950   1.187 -0.2242  0.1466  0.1578
19504TIP3    H179927   5.640   1.015   1.136 -0.3621 -0.5871 -0.9301
19504TIP3    H279928   5.595   0.983   1.277  2.2978  0.1074  0.1379
19505TIP3   OH279929   4.455   0.190  14.533 -0.3363  0.0487 -0.1547
19505TIP3    H179930   4.480   0.204  14.625  1.9853 -1.5723 -0.4567
19505TIP3    H279931   4.365   0.157  14.538 -0.9653  1.7808  1.3581
19506TIP3   OH279932   3.559   6.228   0.774 -0.1049  0.2309  0.1846
19506TIP3    H179933   3.464   6.226   0.762 -0.0930  2.4990 -0.7265
19506TIP3    H279934   3.572   6.283   0.852  0.4512 -1.1083  1.0747
19507TIP3   OH279935   1.084   1.809   5.431  0.0696  0.0603  0.0975
19507TIP3    H179936   1.174   1.788   5.455  1.2936  1.5930 -2.5980
19507TIP3    H279937   1.057   1.737   5.374  0.2115  0.3678 -0.3676
19508TIP3   OH279938   6.719   2.916   6.031 -0.0037  1.1486 -0.1605
19508TIP3    H179939   6.814   2.921   6.020  0.2156  1.5868  1.5587
19508TIP3    H279940   6.702   2.963   6.113 -1.4967 -0.4866  0.5270
19509TIP3   OH279941   0.340   5.804  17.056 -0.0592 -0.2406  0.0934
19509TIP3    H179942   0.404   5.736  17.078 -0.2620 -0.7589 -0.8498
19509TIP3    H279943   0.255   5.764  17.072 -0.1716  0.4975  1.4806
19510TIP3   OH279944   3.762   0.923  14.886  0.1430  0.0482  0.8638
19510TIP3    H179945   3.744   0.930  14.792  0.1086 -1.9191  0.6886
19510TIP3    H279946   3.813   1.002  14.906 -1.2416  1.3322 -0.4399
19511TIP3   OH279947   3.008   2.453  16.832  0.0309  0.1516 -0.2947
19511TIP3    H179948   2.936   2.476  16.773 -2.2737 -0.2554  2.1603
19511TIP3    H279949   3.034   2.365  16.804 -2.3692 -0.8713  0.3869
19512TIP3   OH279950   3.977   5.939  15.301 -0.6309  0.7903 -0.2807
19512TIP3    H179951   3.898   5.958  15.351 -0.3112 -0.1263  0.6043
19512TIP3    H279952   4.042   5.912  15.366 -0.4503 -1.2433 -1.2092
19513TIP3   OH279953   6.003   4.989  14.339 -0.1029 -0.2551  0.1751
19513TIP3    H179954   6.035   4.939  14.414  0.7846  0.7134  0.4653
19513TIP3    H279955   6.063   5.064  14.333 -0.6721  0.1237 -0.9849
19514TIP3   OH279956   2.329   3.812  13.557 -0.9401 -0.8064  0.0389
19514TIP3    H179957   2.361   3.804  13.647  0.9687 -1.4965 -0.6371
19514TIP3    H279958   2.373   3.742  13.510 -1.2295  0.0682 -1.6208
19515TIP3   OH279959   6.121   2.798   3.139  0.1683  0.2344  0.1839
19515TIP3    H179960   6.096   2.879   3.094 -0.1484 -0.5258 -1.0619
19515TIP3    H279961   6.069   2.798   3.219 -0.1503  1.0498 -0.0101
19516TIP3   OH279962   4.791   0.365   6.157  0.2858 -0.2497 -0.8750
19516TIP3    H179963   4.863   0.318   6.200  0.5792  0.3884 -0.6507
19516TIP3    H279964   4.721   0.367   6.222  0.2732 -0.3801 -0.8852
19517TIP3   OH279965   4.464   5.010  12.438  0.4405  0.4863  0.0879
19517TIP3    H179966   4.373   4.985  12.421  0.8255 -0.2959 -0.8686
19517TIP3    H279967   4.461   5.106  12.448 -0.6754  0.3463  1.3736
19518TIP3   OH279968   5.578   2.146  13.845  0.7332 -0.7237  0.4948
19518TIP3    H179969   5.492   2.123  13.810  1.5007 -3.1212 -0.0159
19518TIP3    H279970   5.582   2.101  13.929  1.9220 -1.7700 -0.0743
19519TIP3   OH279971   4.979   2.909  11.272 -0.3876  0.1523  0.2682
19519TIP3    H179972   5.069   2.884  11.293  0.2629  2.2053  0.0950
19519TIP3    H279973   4.978   3.004  11.276 -2.0452  0.2983 -1.7787
19520TIP3   OH279974   1.002   1.858  14.501 -0.8902  0.3258 -0.2206
19520TIP3    H179975   0.924   1.914  14.491 -1.0914  0.3240  1.1919
19520TIP3    H279976   0.988   1.812  14.584  0.6129  0.3016  0.0378
19521TIP3   OH279977   3.841   1.246  12.979 -0.4167  0.0343  0.2113
19521TIP3    H179978   3.818   1.155  13.002  1.0200  0.2770  3.0035
19521TIP3    H279979   3.758   1.293  12.986 -0.7429 -0.6487  1.3114
19522TIP3   OH279980   1.489   3.121   4.043 -0.1455  0.1373 -0.6910
19522TIP3    H179981   1.564   3.158   3.997  0.6501 -0.6159 -0.0303
19522TIP3    H279982   1.433   3.196   4.062  0.4669  0.7191 -1.1345
19523TIP3   OH279983   1.592   1.461  14.214 -0.1872 -0.0502  0.6018
19523TIP3    H179984   1.574   1.445  14.306 -2.8938  0.0158  0.1678
19523TIP3    H279985   1.585   1.556  14.204  3.8834  0.4726  0.9172
19524TIP3   OH279986   4.418   6.356  14.955  0.5013 -0.1146  0.1619
19524TIP3    H179987   4.460   6.351  15.041  0.4373  2.0858  0.3814
19524TIP3    H279988   4.377   6.442  14.954 -0.2494 -0.4509 -1.7609
19525TIP3   OH279989   1.645   1.663  16.768  0.0498 -1.0577  0.6521
19525TIP3    H179990   1.644   1.663  16.864 -0.4255 -0.1694  0.6603
19525TIP3    H279991   1.725   1.711  16.745 -0.1254 -0.7721  0.6220
19526TIP3   OH279992   0.243   2.930   1.886  0.9745 -0.0910 -0.5120
19526TIP3    H179993   0.187   3.008   1.893 -1.3534 -1.6955 -0.1829
19526TIP3    H279994   0.228   2.898   1.797  1.1699 -0.6996 -0.3301
19527TIP3   OH279995   6.435   0.234   1.582 -0.2761  0.1270 -0.3588
19527TIP3    H179996   6.473   0.148   1.597  0.4643  0.5821  0.5160
19527TIP3    H279997   6.350   0.217   1.543  0.0040 -0.9874 -0.5082
19528TIP3   OH279998   3.557   4.838   2.878 -0.9157  0.2013  0.5057
19528TIP3    H179999   3.616   4.896   2.830 -2.0203  0.4711 -0.5984
19528TIP3    H280000   3.562   4.868   2.969  0.2595  0.5228  0.3491
19529TIP3   OH280001   1.660   4.990   4.884 -0.2505 -0.5966 -0.5782
19529TIP3    H180002   1.733   5.051   4.894 -1.0885  0.1490  1.3884
19529TIP3    H280003   1.693   4.907   4.918  0.1241 -0.6503 -1.0543
19530TIP3   OH280004   5.923   3.667   2.890 -0.0526  0.9531  0.5451
19530TIP3    H180005   5.838   3.651   2.932  0.9716 -4.1764  1.3643
19530TIP3    H280006   5.973   3.717   2.954 -0.9621 -0.1669  2.1870
19531TIP3   OH280007   1.553   1.265  13.567  0.2135  0.0790 -0.2604
19531TIP3    H180008   1.488   1.253  13.636  0.7801 -0.9515  0.1018
19531TIP3    H280009   1.514   1.331  13.509 -0.4669  0.6204  0.7860
19532TIP3   OH280010   3.939   6.003  16.205  0.4245  0.1867  0.2213
19532TIP3    H180011   3.889   5.933  16.162  2.8147 -1.6430  0.1663
19532TIP3    H280012   3.899   6.012  16.291  1.5108 -3.1570  1.2312
19533TIP3   OH280013   0.686   4.205   0.767 -0.1489  0.8865  0.3860
19533TIP3    H180014   0.776   4.199   0.734 -0.6293  1.6243 -1.0993
19533TIP3    H280015   0.661   4.296   0.755 -1.9311  0.2264 -1.5338
19534TIP3   OH280016   6.645   5.036   6.322  0.3114 -0.1350  0.3350
19534TIP3    H180017   6.693   4.954   6.312 -0.2756 -0.2611 -2.0411
19534TIP3    H280018   6.573   5.030   6.258 -0.6108  1.6244  1.1341
19535TIP3   OH280019   0.813   2.098   5.591  0.0945 -0.1273 -0.0912
19535TIP3    H180020   0.781   2.142   5.512 -0.4218 -0.8245 -0.2709
19535TIP3    H280021   0.765   2.139   5.663  1.4093  1.3477  0.0102
19536TIP3   OH280022   4.461   3.692  16.058  0.1232  0.2932 -0.5282
19536TIP3    H180023   4.480   3.693  16.152  0.8335  0.7419 -0.6718
19536TIP3    H280024   4.459   3.600  16.034  0.6399  0.2007 -0.2106
19537TIP3   OH280025   0.510   2.589   1.109 -0.3864  0.2641 -0.0236
19537TIP3    H180026   0.512   2.573   1.014 -1.3192  1.1953 -0.2202
19537TIP3    H280027   0.566   2.521   1.146  0.0927 -0.0420 -1.2570
19538TIP3   OH280028   6.606   3.540   1.602 -0.2707 -0.5072 -0.0089
19538TIP3    H180029   6.633   3.471   1.542 -0.0002  0.6090 -1.2068
19538TIP3    H280030   6.514   3.521   1.621 -0.0426 -1.5108  0.1409
19539TIP3   OH280031   6.420   6.778  10.728 -0.3628 -0.2071 -0.7593
19539TIP3    H180032   6.468   6.743  10.803  0.0266  1.1988 -0.3307
19539TIP3    H280033   6.476   6.759  10.653  1.6278  2.5547 -0.1352
19540TIP3   OH280034   2.230   2.495   6.218 -0.2910  0.8136  0.6167
19540TIP3    H180035   2.315   2.529   6.192  0.3014  0.1144  1.5648
19540TIP3    H280036   2.216   2.529   6.306 -1.0936  1.0906  0.3904
19541TIP3   OH280037   4.479   6.582   6.288 -0.2532  0.7054  0.0064
19541TIP3    H180038   4.536   6.567   6.363 -1.0569  2.3556  1.0065
19541TIP3    H280039   4.393   6.551   6.316 -0.3340  0.2893 -0.6715
19542TIP3   OH280040   2.682   5.849   3.514  0.1990  0.6406  0.5895
19542TIP3    H180041   2.705   5.942   3.519  0.3153  0.6235  0.3663
19542TIP3    H280042   2.598   5.848   3.468  1.0510  0.5111 -1.0089
19543TIP3   OH280043   1.703   4.500  16.452  0.0141 -0.5100 -0.5072
19543TIP3    H180044   1.637   4.431  16.464 -1.3128  0.8501  0.4304
19543TIP3    H280045   1.660   4.579  16.485  1.8012  0.6062 -0.7642
19544TIP3   OH280046   0.136   1.287  11.217  0.5597 -0.4207 -0.1496
19544TIP3    H180047   0.083   1.324  11.146  0.1594  1.5484  1.0905
19544TIP3    H280048   0.076   1.229  11.263  0.3474 -0.4645 -0.4725
19545TIP3   OH280049   1.867   6.497  12.890 -0.0061  0.1998 -0.3937
19545TIP3    H180050   1.885   6.583  12.929  0.8353 -0.0791 -0.1362
19545TIP3    H280051   1.772   6.490  12.889 -0.0699  0.1286  1.8163
19546TIP3   OH280052   2.795   1.554   5.464  0.4278 -0.1551  0.5654
19546TIP3    H180053   2.796   1.560   5.560 -0.0555 -0.3973  0.5901
19546TIP3    H280054   2.704   1.573   5.441  0.6203  0.2434  0.1282
19547TIP3   OH280055   3.474   3.174  12.427 -0.1746 -0.3130  0.1907
19547TIP3    H180056   3.429   3.091  12.410 -0.8543 -0.1705  1.1705
19547TIP3    H280057   3.519   3.161  12.510  0.8763 -0.1445 -0.3344
19548TIP3   OH280058   6.014   2.939  12.218  0.1891  0.0119 -0.1832
19548TIP3    H180059   6.099   2.962  12.257  0.4377  0.8336 -1.1632
19548TIP3    H280060   5.975   2.878  12.281  1.7828 -0.9147 -0.0253
19549TIP3   OH280061   3.542   0.191  16.812 -0.2566 -0.2865 -0.3940
19549TIP3    H180062   3.612   0.185  16.747  0.4972  0.8276  0.2786
19549TIP3    H280063   3.481   0.255  16.776  1.1411  1.8283  0.8086
19550TIP3   OH280064   4.302   5.223   5.397 -0.1656  0.7703  0.1042
19550TIP3    H180065   4.326   5.314   5.411 -0.4890  0.7600  0.8133
19550TIP3    H280066   4.365   5.190   5.333  0.4616  1.2707  0.4496
19551TIP3   OH280067   5.134   5.229  15.194 -0.1392 -0.5616  0.0853
19551TIP3    H180068   5.221   5.216  15.156  0.6020  3.8347 -0.3028
19551TIP3    H280069   5.151   5.270  15.279 -1.7417  0.9096 -0.2473
19552TIP3   OH280070   0.342   5.477   1.856  0.0399 -0.3609 -0.1551
19552TIP3    H180071   0.330   5.383   1.840 -0.4754 -0.5774  1.3023
19552TIP3    H280072   0.268   5.501   1.912 -0.6958  1.2769 -1.7349
19553TIP3   OH280073   3.197   2.415  15.283 -0.0572 -0.1922 -0.5696
19553TIP3    H180074   3.274   2.448  15.330 -0.1178 -2.6972  1.5387
19553TIP3    H280075   3.124   2.435  15.341 -0.8528  0.7798 -1.8487
19554TIP3   OH280076   4.387   6.520   1.300 -0.5164 -0.0639 -0.5483
19554TIP3    H180077   4.341   6.604   1.299 -0.4390 -0.0161 -0.3373
19554TIP3    H280078   4.479   6.544   1.311 -0.4944 -0.1749 -0.4848
19555TIP3   OH280079   6.125   2.811   3.917 -0.3812 -0.4122  0.7034
19555TIP3    H180080   6.133   2.902   3.946 -1.3733 -0.0568 -0.0367
19555TIP3    H280081   6.123   2.818   3.821  1.4639 -1.4069  0.5553
19556TIP3   OH280082   4.720   3.588  15.455 -0.2105 -0.3254  0.3635
19556TIP3    H180083   4.702   3.527  15.384  2.2722 -1.1613  0.3650
19556TIP3    H280084   4.657   3.565  15.523 -1.5214 -0.6165 -0.9062
19557TIP3   OH280085   2.599   5.092  15.366  0.6421 -0.7035 -0.1997
19557TIP3    H180086   2.599   5.121  15.458 -1.1761 -0.6143 -0.1885
19557TIP3    H280087   2.688   5.107  15.336  0.7229  1.3594  0.9164
19558TIP3   OH280088   5.478   6.771   2.298 -0.3072  0.2590  0.0907
19558TIP3    H180089   5.420   6.847   2.305  0.0387  0.5450 -0.1314
19558TIP3    H280090   5.436   6.715   2.233 -0.5400  0.2768  0.2225
19559TIP3   OH280091   4.106   2.196  14.863  0.0490 -0.3797  0.2621
19559TIP3    H180092   4.116   2.270  14.924 -0.2827 -0.7583  0.7854
19559TIP3    H280093   4.128   2.119  14.915  1.2919 -0.5986 -0.5234
19560TIP3   OH280094   3.251   5.933   5.776  0.0002  0.2525 -0.3888
19560TIP3    H180095   3.244   5.930   5.681  0.8645 -0.2266 -0.4499
19560TIP3    H280096   3.338   5.897   5.795 -0.6508 -0.8435  0.6518
19561TIP3   OH280097   4.967   0.813   3.711  0.6701  0.1734  0.3313
19561TIP3    H180098   5.003   0.853   3.791  0.1845 -0.2214  0.7541
19561TIP3    H280099   4.924   0.885   3.666 -0.3536  0.1143  1.1751
19562TIP3   OH280100   5.482   6.325  15.598 -0.0180 -0.7690  0.4446
19562TIP3    H180101   5.423   6.295  15.667 -0.0137  0.0816  0.8238
19562TIP3    H280102   5.553   6.260  15.597 -0.7043 -1.5283  0.3147
19563TIP3   OH280103   0.054   2.730  15.403 -0.1197  0.1585  0.2138
19563TIP3    H180104  -0.018   2.793  15.404 -0.0851  0.2090 -0.5713
19563TIP3    H280105   0.099   2.744  15.320 -0.9770 -1.8556 -0.6702
19564TIP3   OH280106   3.668   2.782   0.114  0.4466  0.7666 -0.0042
19564TIP3    H180107   3.650   2.865   0.157  1.8364  0.7946  0.6003
19564TIP3    H280108   3.643   2.715   0.178 -2.4367  0.5827 -1.1706
19565TIP3   OH280109   1.423   2.906  14.391 -0.5412  0.5015 -0.0979
19565TIP3    H180110   1.408   2.895  14.485 -1.8334  0.8817 -0.2376
19565TIP3    H280111   1.468   2.990  14.383  0.4630  0.0156  0.2347
19566TIP3   OH280112   4.634   0.583   0.329  0.2473 -0.4570  0.3489
19566TIP3    H180113   4.564   0.599   0.266  0.7766 -0.7568 -0.3377
19566TIP3    H280114   4.592   0.536   0.401 -0.4185  0.1132  0.3403
19567TIP3   OH280115   0.490   1.424   1.409 -0.1580  0.7983  0.2785
19567TIP3    H180116   0.477   1.397   1.500  3.0411  0.3933  0.7107
19567TIP3    H280117   0.527   1.347   1.366  2.1357  2.1454 -0.3058
19568TIP3   OH280118   6.630   5.352  10.507 -0.3453  0.2645 -0.2141
19568TIP3    H180119   6.632   5.256  10.513 -1.7017  0.1286 -1.3218
19568TIP3    H280120   6.710   5.381  10.550 -0.2048 -1.3394  0.6830
19569TIP3   OH280121   6.118   4.491  15.265 -0.3541 -0.0018 -0.4323
19569TIP3    H180122   6.202   4.526  15.296  0.6035 -3.1191  0.8026
19569TIP3    H280123   6.058   4.504  15.339 -0.3886  0.2411 -0.4999
19570TIP3   OH280124   5.473   6.653  15.816  0.0564 -0.4786 -0.1137
19570TIP3    H180125   5.529   6.718  15.859  1.2196 -1.5957  0.1202
19570TIP3    H280126   5.497   6.570  15.858 -0.5400 -1.2362 -1.2380
19571TIP3   OH280127   5.275   6.275   6.662  0.0119 -0.2924  0.2148
19571TIP3    H180128   5.225   6.327   6.724  0.2902 -0.0590  0.2467
19571TIP3    H280129   5.218   6.265   6.587  0.1141  0.4154  0.0363
19572TIP3   OH280130   3.116   0.939  11.184 -0.5862 -0.1040  0.2003
19572TIP3    H180131   3.044   0.961  11.243  0.6696  0.5954  1.5493
19572TIP3    H280132   3.152   1.023  11.156 -0.4867 -0.4406 -0.7156
19573TIP3   OH280133   1.376   3.070   0.194 -0.6560 -0.2908 -0.4419
19573TIP3    H180134   1.335   3.156   0.186 -2.0443 -0.9675 -0.8890
19573TIP3    H280135   1.366   3.047   0.286 -0.2137  0.0363 -0.3043
19574TIP3   OH280136   5.618   0.809  14.998  0.0915 -0.6868 -0.1540
19574TIP3    H180137   5.550   0.792  15.062 -1.5340  1.0967 -1.3001
19574TIP3    H280138   5.630   0.725  14.952 -2.3027 -0.7444 -0.7814
19575TIP3   OH280139   3.597   2.735  13.993 -0.8291 -0.2419 -0.0926
19575TIP3    H180140   3.651   2.788  14.052  0.2775 -2.4712  0.9984
19575TIP3    H280141   3.617   2.768  13.905 -0.4805  1.3640  0.5584
19576TIP3   OH280142   6.737   2.754  10.326  0.0194 -0.0826  0.6156
19576TIP3    H180143   6.662   2.768  10.383  0.6833 -0.5873  1.6382
19576TIP3    H280144   6.701   2.710  10.249 -0.7711 -0.0611  0.9647
19577TIP3   OH280145   2.768   2.654  15.173 -0.2438  0.6367 -1.2153
19577TIP3    H180146   2.680   2.623  15.194 -0.0976  0.0324 -1.4541
19577TIP3    H280147   2.786   2.722  15.238  0.0342 -0.8683  0.3693
19578TIP3   OH280148   1.304   3.016   5.993 -0.3152  0.2454 -0.2041
19578TIP3    H180149   1.335   2.964   5.919 -0.8137 -1.9497  1.0191
19578TIP3    H280150   1.214   3.037   5.972 -0.5881 -0.7392 -0.0771
19579TIP3   OH280151   1.925   3.756   3.205  0.3759  0.1995 -0.2605
19579TIP3    H180152   1.838   3.792   3.225  0.1950 -0.2708 -0.1818
19579TIP3    H280153   1.908   3.665   3.182  0.8324  0.1536 -0.4201
19580TIP3   OH280154   4.182   0.228  15.726  0.1476  0.4985 -0.0565
19580TIP3    H180155   4.268   0.267  15.745  0.6112 -0.2798 -0.4883
19580TIP3    H280156   4.155   0.189  15.809 -0.1596  1.4143  0.2871
19581TIP3   OH280157   5.983   1.110   1.071  0.5819  0.3790 -0.4987
19581TIP3    H180158   5.985   1.157   0.988 -0.0087 -2.1175 -2.0241
19581TIP3    H280159   6.055   1.148   1.121  0.9021  2.0156 -2.0921
19582TIP3   OH280160   1.973   2.737   1.338 -0.3056  0.4985 -0.2418
19582TIP3    H180161   2.009   2.772   1.419 -0.1685 -1.1418  0.4366
19582TIP3    H280162   1.878   2.749   1.347 -0.2413  0.9535 -0.1569
19583TIP3   OH280163   1.744   6.748  16.777  0.3657 -0.3487 -0.4387
19583TIP3    H180164   1.732   6.842  16.782  1.0480 -0.1323 -2.2080
19583TIP3    H280165   1.831   6.732  16.814  0.5690 -0.1859 -0.8446
19584TIP3   OH280166   1.570   1.061  14.598  0.3044  0.8987 -0.2103
19584TIP3    H180167   1.578   1.150  14.564  1.1957  0.6663 -0.6383
19584TIP3    H280168   1.495   1.024  14.552 -0.8930  1.8282  0.9126
19585TIP3   OH280169   4.963   3.444  14.675 -0.2837 -0.4898  0.1148
19585TIP3    H180170   5.054   3.474  14.678 -0.9027  1.5221  0.1284
19585TIP3    H280171   4.941   3.444  14.582  0.0446 -2.0986  0.0125
19586TIP3   OH280172   6.275   4.464  11.115  0.5581 -0.2426 -0.0948
19586TIP3    H180173   6.179   4.460  11.105  0.5356  0.5041 -0.2135
19586TIP3    H280174   6.300   4.545  11.071  1.4405 -1.2381 -1.5117
19587TIP3   OH280175   5.522   3.570   4.875 -0.3438  0.6186 -0.4210
19587TIP3    H180176   5.506   3.536   4.787 -1.1848  0.4333 -0.2096
19587TIP3    H280177   5.616   3.588   4.878 -0.0807 -0.5577 -0.9499
19588TIP3   OH280178   2.202   2.277   0.419 -0.6505 -0.5866  0.0147
19588TIP3    H180179   2.275   2.261   0.480 -1.5082  1.1182  1.5910
19588TIP3    H280180   2.124   2.272   0.474 -1.7494 -2.0953 -1.5935
19589TIP3   OH280181   4.355   6.037  15.102 -0.5577 -0.1257  0.1958
19589TIP3    H180182   4.302   5.999  15.172 -0.9123 -1.3460 -0.6896
19589TIP3    H280183   4.295   6.097  15.057 -1.4854 -1.9483 -1.1796
19590TIP3   OH280184   0.639   3.930  13.699  0.5191  0.1448  0.6647
19590TIP3    H180185   0.669   3.862  13.639  0.3750 -1.2358  2.0925
19590TIP3    H280186   0.718   3.980  13.721  0.4850  1.0142 -1.0299
19591TIP3   OH280187   4.447   4.622   2.311 -0.5358 -0.4425  0.5299
19591TIP3    H180188   4.449   4.578   2.226 -2.1902  0.3390  0.0551
19591TIP3    H280189   4.382   4.691   2.302  0.8016  1.0612  1.7857
19592TIP3   OH280190   5.802   5.736  12.071 -0.0765  0.2293 -0.1635
19592TIP3    H180191   5.780   5.717  12.162  0.8529  0.0070  0.0187
19592TIP3    H280192   5.833   5.653  12.035 -1.0043  0.1672 -0.8658
19593TIP3   OH280193   5.332   5.922   2.168  0.6469 -0.0836  0.3622
19593TIP3    H180194   5.421   5.958   2.177  0.4382  0.2070  1.3087
19593TIP3    H280195   5.296   5.924   2.256 -0.3683 -0.0366 -0.0420
19594TIP3   OH280196   4.255   1.522   2.639  0.5866  0.0799 -0.5194
19594TIP3    H180197   4.283   1.486   2.555 -0.2441 -0.8791 -0.4064
19594TIP3    H280198   4.321   1.491   2.702  0.1630 -0.8510 -0.5117
19595TIP3   OH280199   4.088   2.298  16.050 -0.0719  0.1576 -0.3020
19595TIP3    H180200   4.006   2.289  16.001 -0.4660 -0.3998  0.4433
19595TIP3    H280201   4.101   2.213  16.091  2.4152 -0.7886 -2.7197
19596TIP3   OH280202   6.634   4.325  11.511  0.2652  0.1430 -0.3761
19596TIP3    H180203   6.562   4.381  11.482 -0.3883 -0.4343  0.0920
19596TIP3    H280204   6.702   4.336  11.444  0.4399  2.0004  0.0341
19597TIP3   OH280205   2.880   4.734  11.976 -0.3359 -0.0418  0.2261
19597TIP3    H180206   2.889   4.817  12.023  1.5444 -0.0625 -0.0115
19597TIP3    H280207   2.801   4.694  12.011 -2.7208  2.9002 -1.3048
19598TIP3   OH280208   3.079   0.245   3.196  0.1293  0.4877 -0.0479
19598TIP3    H180209   3.032   0.301   3.135  0.0206  0.5723  0.1118
19598TIP3    H280210   3.068   0.287   3.281 -0.6105 -0.1784  0.2014
19599TIP3   OH280211   3.738   3.568  12.224 -0.5687 -0.0306 -0.1927
19599TIP3    H180212   3.825   3.552  12.260 -0.6134 -0.6242 -0.3490
19599TIP3    H280213   3.733   3.663  12.215  1.0114 -0.0906 -2.5441
19600TIP3   OH280214   3.317   4.142   4.242 -0.7740 -0.2557  0.1902
19600TIP3    H180215   3.274   4.157   4.158  0.3952  0.8345 -0.2459
19600TIP3    H280216   3.249   4.159   4.307 -1.2269  0.6288 -0.4977
19601TIP3   OH280217   4.168   3.213   2.167  0.2182  0.0849  0.1280
19601TIP3    H180218   4.128   3.264   2.237 -0.3303 -3.5189  2.6985
19601TIP3    H280219   4.253   3.188   2.202  0.5388 -0.6174 -1.1123
19602TIP3   OH280220   0.756   6.038  15.771 -0.4393  0.2735 -0.7115
19602TIP3    H180221   0.740   6.083  15.854 -0.5822 -0.7262 -0.1872
19602TIP3    H280222   0.762   6.109  15.706 -0.0711  1.0735  0.1837
19603TIP3   OH280223   4.733   0.343  11.148  0.5599  0.2455  0.7150
19603TIP3    H180224   4.705   0.382  11.231  0.0803 -0.8124  1.0801
19603TIP3    H280225   4.768   0.257  11.173  1.4080  0.3504 -0.0713
19604TIP3   OH280226   3.468   1.868   6.593 -0.2173 -0.4959 -0.0777
19604TIP3    H180227   3.517   1.886   6.513 -0.1174  2.4297  0.5368
19604TIP3    H280228   3.451   1.774   6.590  0.8804 -0.6970 -2.8815
19605TIP3   OH280229   3.818   2.864  13.835 -0.6006 -0.6837  0.2568
19605TIP3    H180230   3.901   2.818  13.828 -0.3150 -0.3321  1.2337
19605TIP3    H280231   3.807   2.908  13.750  1.0304  0.6315  0.6789
19606TIP3   OH280232   1.420   2.222   4.283 -0.1228  0.3718  0.2867
19606TIP3    H180233   1.348   2.211   4.345 -2.7689  2.6526 -2.0975
19606TIP3    H280234   1.485   2.274   4.331 -1.3812  0.7728  1.6512
19607TIP3   OH280235   1.510   5.920  12.188 -0.7148  0.2825  0.5989
19607TIP3    H180236   1.496   5.859  12.115  0.2899  2.1048 -1.1928
19607TIP3    H280237   1.551   5.866  12.256  0.8534 -0.9274 -1.1982
19608TIP3   OH280238   0.509   5.252  16.729 -0.2204 -0.4478 -0.2922
19608TIP3    H180239   0.528   5.166  16.692  2.2879 -0.7020  1.3695
19608TIP3    H280240   0.456   5.233  16.807 -3.3551 -0.0760 -2.1488
19609TIP3   OH280241   0.954   3.583   5.731  0.2785 -0.8929  0.0465
19609TIP3    H180242   0.949   3.586   5.827 -1.3571  0.2661 -0.0441
19609TIP3    H280243   1.047   3.570   5.713  0.8076  0.1343  1.7711
19610TIP3   OH280244   6.555   0.781   2.099 -0.1905 -0.2442  0.2690
19610TIP3    H180245   6.516   0.694   2.083 -1.1354  0.0240  1.0060
19610TIP3    H280246   6.517   0.837   2.031  1.4127 -0.6463 -1.0315
19611TIP3   OH280247   4.662   3.119  11.486  0.1575  0.2338 -0.1204
19611TIP3    H180248   4.684   3.039  11.534 -0.2825 -0.0596 -0.4014
19611TIP3    H280249   4.738   3.135  11.430  0.2489  0.0130 -0.0604
19612TIP3   OH280250   5.101   0.753   3.300  0.2632  0.4850  0.1035
19612TIP3    H180251   5.145   0.719   3.222  0.6418 -1.9729  1.2740
19612TIP3    H280252   5.163   0.735   3.371 -0.2972  2.1792  1.0835
19613TIP3   OH280253   5.812   2.305  11.755 -0.0008 -0.0983  0.1700
19613TIP3    H180254   5.781   2.217  11.773  0.9565 -0.1733  1.6216
19613TIP3    H280255   5.799   2.353  11.837  1.8221  0.3852  0.2364
19614TIP3   OH280256   6.159   3.601   0.810 -0.4155  0.1211  0.0910
19614TIP3    H180257   6.222   3.556   0.755  0.2362  0.9580  0.1407
19614TIP3    H280258   6.212   3.649   0.874 -1.1416 -0.4482  1.1592
19615TIP3   OH280259   3.089   5.574  14.183  0.3627 -0.0093  0.0287
19615TIP3    H180260   3.176   5.601  14.152 -0.3591  0.9822 -1.2346
19615TIP3    H280261   3.033   5.650  14.167 -0.6466 -0.4344  1.3308
19616TIP3   OH280262   1.795   2.670   4.659 -0.1853 -0.3175  0.4782
19616TIP3    H180263   1.721   2.666   4.720  0.4745  0.6276  1.3730
19616TIP3    H280264   1.836   2.584   4.665 -0.7989 -0.6144  0.4996
19617TIP3   OH280265   3.002   3.113   2.995 -0.4315  0.6981 -0.4185
19617TIP3    H180266   3.042   3.199   3.012  1.3539 -0.4386  1.5995
19617TIP3    H280267   3.068   3.066   2.944 -0.5758 -0.1073  0.1208
19618TIP3   OH280268   4.100   6.590   6.898 -0.5121  0.5106  0.3727
19618TIP3    H180269   4.039   6.517   6.898  0.7148 -0.5661  0.7183
19618TIP3    H280270   4.144   6.585   6.983 -1.3675  2.5362  0.9991
19619TIP3   OH280271   6.662   0.842  15.761  0.3213 -0.2234  0.4159
19619TIP3    H180272   6.655   0.846  15.666  0.0603 -1.0966  0.3957
19619TIP3    H280273   6.647   0.751  15.783 -0.4700  0.1210  1.3734
19620TIP3   OH280274   0.000   2.862   0.359 -0.1980 -0.2904  0.3489
19620TIP3    H180275   0.093   2.853   0.379 -0.4495 -0.2698  1.5691
19620TIP3    H280276  -0.006   2.943   0.307  0.3779  0.0734  0.8418
19621TIP3   OH280277   3.634   5.370   2.899  0.0630  0.0301  0.6575
19621TIP3    H180278   3.706   5.426   2.869  0.6409  0.3790  2.5220
19621TIP3    H280279   3.665   5.281   2.885  0.7193  0.1817  1.0621
19622TIP3   OH280280   4.969   6.717   0.683 -0.0001  0.0850  0.2440
19622TIP3    H180281   5.052   6.760   0.705 -0.4424  1.1664 -0.1256
19622TIP3    H280282   4.920   6.784   0.635 -1.7013  0.0115  1.7516
19623TIP3   OH280283   6.678   5.205   2.573 -0.5649  0.3069 -0.1255
19623TIP3    H180284   6.724   5.148   2.635  1.6585 -0.2395 -2.1499
19623TIP3    H280285   6.633   5.268   2.629 -1.8844 -2.4162  2.1828
19624TIP3   OH280286   5.161   4.087   0.226  0.0857 -0.0700  0.4075
19624TIP3    H180287   5.239   4.122   0.269  0.8491  0.3869 -1.2529
19624TIP3    H280288   5.166   4.120   0.136 -1.4498 -0.9405 -0.0452
19625TIP3   OH280289   4.657   6.513  15.347 -0.4875 -0.3897  0.0759
19625TIP3    H180290   4.601   6.478  15.277  0.1982  2.5154 -2.1555
19625TIP3    H280291   4.746   6.505  15.312  0.1258 -1.0263  1.7076
19626TIP3   OH280292   5.654   3.398  12.969  0.6172 -0.1451 -0.2971
19626TIP3    H180293   5.632   3.325  13.027 -0.3495 -1.1237 -1.8299
19626TIP3    H280294   5.580   3.405  12.909 -0.4466  3.6157  1.1351
19627TIP3   OH280295   0.757   4.334  16.905  0.4505 -0.1802 -0.0001
19627TIP3    H180296   0.780   4.286  16.825  1.5058  2.2331 -1.2630
19627TIP3    H280297   0.841   4.349  16.948 -0.1288 -1.6250  1.7353
19628TIP3   OH280298   3.566   5.867   4.741  0.7394 -0.6263  0.2620
19628TIP3    H180299   3.520   5.840   4.821  0.0471 -0.2601 -0.0001
19628TIP3    H280300   3.496   5.876   4.676  1.3993 -1.8628 -0.6550
19629TIP3   OH280301   4.696   0.689  14.145 -0.0346  0.1417  0.1807
19629TIP3    H180302   4.622   0.686  14.205  0.8065  0.5208  1.2734
19629TIP3    H280303   4.698   0.603  14.103  0.3090 -0.7047  1.8753
19630TIP3   OH280304   3.023   3.598   3.241 -0.0370 -0.4236  0.4546
19630TIP3    H180305   3.064   3.614   3.156 -0.3103  0.3246  0.4552
19630TIP3    H280306   3.041   3.678   3.291  0.9401 -1.2250  1.4376
19631TIP3   OH280307   0.228   1.020  11.318  0.3511  0.3380 -0.2099
19631TIP3    H180308   0.218   1.019  11.413 -1.9224 -1.6727 -0.3660
19631TIP3    H280309   0.289   0.950  11.299 -0.5673 -0.4652 -0.2837
19632TIP3   OH280310   6.602   2.594   2.006  0.0981 -0.1425 -0.2683
19632TIP3    H180311   6.685   2.612   2.052  0.3908 -0.4300 -0.6774
19632TIP3    H280312   6.568   2.681   1.984  1.4638 -0.0301 -2.1618
19633TIP3   OH280313   6.345   5.491  16.491 -0.1155  0.1640 -0.0543
19633TIP3    H180314   6.339   5.445  16.407  1.0499  1.1848 -0.7089
19633TIP3    H280315   6.419   5.550  16.482  2.1665 -1.9694  2.8153
19634TIP3   OH280316   5.627   1.319   6.104 -0.6500 -0.1801  0.5534
19634TIP3    H180317   5.557   1.294   6.164 -0.1360  2.0953  2.2260
19634TIP3    H280318   5.620   1.414   6.097 -0.4320 -0.3074 -2.7699
19635TIP3   OH280319   0.958   1.202  14.493 -0.2362  0.0390 -0.1434
19635TIP3    H180320   0.967   1.137  14.424  0.9656  0.6344 -0.5650
19635TIP3    H280321   0.984   1.156  14.573 -0.4683 -0.3051 -0.2626
19636TIP3   OH280322   1.809   5.657  11.981  0.7341 -0.7912  0.2441
19636TIP3    H180323   1.847   5.744  11.996 -0.6877  0.0656 -0.8020
19636TIP3    H280324   1.782   5.627  12.068 -1.0819  0.9823  0.3666
19637TIP3   OH280325   4.242   0.343  16.847  0.6080 -0.1863 -0.1035
19637TIP3    H180326   4.209   0.254  16.857 -0.3006  0.3008  1.5723
19637TIP3    H280327   4.205   0.374  16.765 -1.3143 -0.4447  0.6243
19638TIP3   OH280328   2.204   3.390  13.700 -0.4867 -0.0957 -0.6601
19638TIP3    H180329   2.151   3.452  13.651  0.2658  0.2861 -1.0001
19638TIP3    H280330   2.268   3.357  13.637 -0.2801 -0.5078 -0.2449
19639TIP3   OH280331   6.729   5.159   2.065 -0.1643 -0.5297 -0.1254
19639TIP3    H180332   6.705   5.221   2.134 -0.6952  0.5395 -1.2340
19639TIP3    H280333   6.790   5.099   2.107  1.0302  1.2348  0.7888
19640TIP3   OH280334   3.005   2.294   2.195 -0.0767  0.2134 -0.1183
19640TIP3    H180335   2.978   2.234   2.264  0.9492 -1.1512 -0.8591
19640TIP3    H280336   2.934   2.290   2.130  0.0401 -0.3113 -0.2200
19641TIP3   OH280337   3.855   3.426  16.405 -0.0174 -0.3513  0.0043
19641TIP3    H180338   3.878   3.515  16.433  0.6450  0.0452 -1.6762
19641TIP3    H280339   3.930   3.373  16.431  1.4075  0.3278 -2.4199
19642TIP3   OH280340   3.943   1.087   4.583  0.2407  0.3691  0.2014
19642TIP3    H180341   4.003   1.016   4.605  1.7011  1.6158  0.4539
19642TIP3    H280342   3.878   1.048   4.525 -1.2602 -2.0578  3.2365
19643TIP3   OH280343   3.877   2.435  16.231 -0.1349  0.1802  0.4155
19643TIP3    H180344   3.876   2.348  16.272 -0.3909  0.4656  1.0253
19643TIP3    H280345   3.918   2.492  16.296 -1.0942  0.7570  0.5435
19644TIP3   OH280346   0.673   2.186   5.121 -0.0549 -0.5621 -0.0539
19644TIP3    H180347   0.718   2.202   5.038  0.7843  4.3089  0.9937
19644TIP3    H280348   0.587   2.225   5.110 -0.5781 -1.4256  0.8372
19645TIP3   OH280349   0.541   4.667   0.942  0.0802  0.1060  0.2753
19645TIP3    H180350   0.547   4.632   1.031 -2.6118 -1.2155  0.0308
19645TIP3    H280351   0.464   4.723   0.943  1.3973  2.0562 -0.6864
19646TIP3   OH280352   1.551   2.708  13.386  0.1616  0.2489  0.0126
19646TIP3    H180353   1.558   2.654  13.464  0.0687  0.0316 -0.1282
19646TIP3    H280354   1.474   2.674  13.340 -0.5991  1.2613  0.5080
19647TIP3   OH280355   4.333   4.509   4.445  0.0656  0.2695  0.5775
19647TIP3    H180356   4.238   4.517   4.442 -0.0642  0.5650  3.0952
19647TIP3    H280357   4.349   4.422   4.480  0.7845 -0.1239 -0.6615
19648TIP3   OH280358   2.978   1.442  16.045  0.6087 -0.1742  0.0007
19648TIP3    H180359   2.951   1.534  16.044 -1.4837 -0.5902  3.1085
19648TIP3    H280360   3.049   1.438  16.109 -0.0251 -0.8548  0.6757
19649TIP3   OH280361   2.825   1.272   1.537 -0.2189 -0.0564  0.1613
19649TIP3    H180362   2.790   1.293   1.624 -1.8411 -1.3433 -0.1432
19649TIP3    H280363   2.868   1.353   1.508 -2.3795  1.4147  0.8610
19650TIP3   OH280364   0.650   5.410   1.023  0.1115  0.0552  0.1220
19650TIP3    H180365   0.715   5.481   1.025  1.0422 -0.7020 -1.2584
19650TIP3    H280366   0.671   5.357   1.099  0.5259  0.3196  0.1994
19651TIP3   OH280367   3.063   3.879   0.702 -0.5311  0.9572 -0.2788
19651TIP3    H180368   2.979   3.909   0.667 -0.9768  3.3072  2.4562
19651TIP3    H280369   3.040   3.802   0.754 -0.4348 -0.1893 -1.8261
19652TIP3   OH280370   4.328   3.186   0.581 -0.2596 -0.7294  1.3200
19652TIP3    H180371   4.366   3.216   0.663  0.4821 -3.4490  2.0933
19652TIP3    H280372   4.403   3.152   0.531 -0.3956  2.3982 -1.3396
19653TIP3   OH280373   5.886   5.130  16.085  0.1099  0.2297  0.0231
19653TIP3    H180374   5.900   5.099  16.174  0.8272  0.7778  0.1146
19653TIP3    H280375   5.915   5.222  16.087 -0.6671  0.4996 -0.5666
19654TIP3   OH280376   0.281   3.564   0.874 -0.0251  0.6009  0.2332
19654TIP3    H180377   0.348   3.577   0.807  0.6466 -0.2648  0.7217
19654TIP3    H280378   0.218   3.503   0.834 -0.1650  0.8701  0.0340
19655TIP3   OH280379   1.269   5.766  13.102  0.0224  0.2783  0.3040
19655TIP3    H180380   1.285   5.677  13.131 -0.3329  0.2347  0.3704
19655TIP3    H280381   1.346   5.789  13.050  0.1988  0.0018  0.4442
19656TIP3   OH280382   0.654   3.166  16.113 -0.4845  0.0846 -0.5647
19656TIP3    H180383   0.638   3.100  16.045  0.6331 -0.0352 -0.7300
19656TIP3    H280384   0.612   3.245  16.080 -0.4153 -0.1144 -1.1419
19657TIP3   OH280385   0.184   2.602   0.599  0.3717 -0.3053 -0.0064
19657TIP3    H180386   0.174   2.567   0.688 -1.4009  0.1195  0.0019
19657TIP3    H280387   0.203   2.525   0.545 -0.4632 -0.8587  0.4635
19658TIP3   OH280388   6.174   3.447   5.168 -0.4647 -0.1459 -0.0846
19658TIP3    H180389   6.145   3.366   5.125 -0.8662 -0.2394  0.3563
19658TIP3    H280390   6.247   3.478   5.114 -0.2261 -0.8678 -0.1864
19659TIP3   OH280391   6.136   2.318   4.025 -0.1071 -0.5692 -0.1486
19659TIP3    H180392   6.056   2.368   4.042 -0.0527 -0.6856  0.5064
19659TIP3    H280393   6.160   2.283   4.111  1.5183  0.7638 -0.0119
19660TIP3   OH280394   2.318   6.115  13.432  0.2505 -0.1531 -0.0664
19660TIP3    H180395   2.238   6.074  13.400 -0.3573 -0.6749  1.9708
19660TIP3    H280396   2.289   6.187  13.487  1.2093  0.1788  0.0297
19661TIP3   OH280397   0.693   6.765  12.341 -0.3600 -0.0229  0.0829
19661TIP3    H180398   0.607   6.794  12.370  0.8965  1.2907  2.8565
19661TIP3    H280399   0.694   6.784  12.247 -2.7923  0.6088  0.1132
19662TIP3   OH280400   2.276   4.456  17.008  0.4450  0.4945  0.0145
19662TIP3    H180401   2.250   4.384  17.066  0.8041 -1.0801 -1.6918
19662TIP3    H280402   2.368   4.438  16.988  0.2664  0.8623 -1.1991
19663TIP3   OH280403   3.862   5.814  13.839  0.0237 -0.2216 -0.2089
19663TIP3    H180404   3.846   5.819  13.933  0.6234  0.1867 -0.1269
19663TIP3    H280405   3.889   5.902  13.814 -0.5802 -0.2091 -0.8511
19664TIP3   OH280406   2.433   2.400  16.357 -0.3465 -0.2132  0.0410
19664TIP3    H180407   2.485   2.348  16.418 -1.5442 -2.6495 -0.8694
19664TIP3    H280408   2.355   2.346  16.341 -1.3832  1.6311 -1.4666
19665TIP3   OH280409   5.522   0.382   1.867 -0.6182 -0.3191 -0.0014
19665TIP3    H180410   5.511   0.477   1.866  0.3393 -0.0084  3.5553
19665TIP3    H280411   5.582   0.363   1.795 -0.7852  1.7432 -0.7538
19666TIP3   OH280412   2.466   2.145  13.097  0.2203 -0.2329 -0.2810
19666TIP3    H180413   2.478   2.199  13.019 -1.5730  0.8955  0.1482
19666TIP3    H280414   2.373   2.122  13.096  0.2252 -0.4579  1.3511
19667TIP3   OH280415   1.078   5.757   0.641  0.2861  0.1411 -0.0555
19667TIP3    H180416   1.040   5.673   0.669  1.2025 -0.9633 -1.9055
19667TIP3    H280417   1.014   5.823   0.668 -0.0470 -1.0389  2.2615
19668TIP3   OH280418   2.075   4.602   3.690 -0.1618 -0.4487  0.4934
19668TIP3    H180419   2.169   4.591   3.672 -0.4819 -0.9476 -1.0413
19668TIP3    H280420   2.054   4.531   3.750  0.1855 -1.1780 -0.2284
19669TIP3   OH280421   4.493   3.556   1.150 -0.3101  0.8439  0.0681
19669TIP3    H180422   4.524   3.612   1.220  0.2846 -0.6611  1.0465
19669TIP3    H280423   4.567   3.549   1.089  0.4490 -0.6724  1.1055
19670TIP3   OH280424   6.471   5.026   6.124 -0.4815  0.1039 -0.6739
19670TIP3    H180425   6.446   5.038   6.032  1.3818 -0.4102 -1.3018
19670TIP3    H280426   6.411   5.081   6.173 -0.0620  2.2142 -2.3975
19671TIP3   OH280427   6.267   1.109  13.567 -0.2687 -0.3818  0.0762
19671TIP3    H180428   6.346   1.098  13.513 -0.7622  0.6292 -0.8950
19671TIP3    H280429   6.292   1.074  13.653  1.1708 -0.2627 -0.2598
19672TIP3   OH280430   0.576   5.533  16.458 -0.5310 -0.2904  0.0475
19672TIP3    H180431   0.480   5.536  16.455 -0.6516  3.3082  1.6556
19672TIP3    H280432   0.597   5.509  16.548 -0.1008  1.5686  0.5039
19673TIP3   OH280433   0.754   1.858   1.716  0.1077 -0.1280  0.0826
19673TIP3    H180434   0.826   1.888   1.660 -0.0913 -0.8337 -0.5640
19673TIP3    H280435   0.704   1.799   1.661 -1.6477  1.2105  0.1456
19674TIP3   OH280436   3.482   4.228  16.078 -0.1330  0.1580  0.1209
19674TIP3    H180437   3.563   4.200  16.035 -0.2199 -0.8746  0.5990
19674TIP3    H280438   3.496   4.322  16.096  0.6187  0.1808 -0.5337
19675TIP3   OH280439   1.137   4.284   5.539 -0.0541  0.0724  0.0363
19675TIP3    H180440   1.117   4.377   5.551 -2.5460 -0.2966 -0.7204
19675TIP3    H280441   1.210   4.284   5.476  0.8024  1.4955  0.9518
19676TIP3   OH280442   3.369   0.375   4.576 -0.0354 -0.2181 -0.2989
19676TIP3    H180443   3.440   0.351   4.516  1.4787  1.1679  0.8261
19676TIP3    H280444   3.368   0.305   4.641  2.1890  0.9536  1.1607
19677TIP3   OH280445   0.525   5.780   4.468  0.2004  0.0818 -0.2583
19677TIP3    H180446   0.555   5.818   4.551  0.6902 -0.0026 -0.3920
19677TIP3    H280447   0.577   5.700   4.459  0.8728  0.6033 -1.1320
19678TIP3   OH280448   3.138   2.716  14.425 -0.2682  0.0221 -0.2605
19678TIP3    H180449   3.053   2.750  14.398 -0.1595  0.1209 -0.4853
19678TIP3    H280450   3.200   2.786  14.405  0.0332 -0.4953 -1.2182
19679TIP3   OH280451   0.737   1.233  16.385  0.6565 -0.1197 -0.0653
19679TIP3    H180452   0.667   1.255  16.324 -0.0848 -1.3818  0.2816
19679TIP3    H280453   0.790   1.313  16.392 -1.4512  1.2992  0.6223
19680TIP3   OH280454   4.983   2.494  15.434  0.4303 -0.3961 -0.1046
19680TIP3    H180455   4.980   2.535  15.521 -0.9127  1.1104 -0.8059
19680TIP3    H280456   4.925   2.419  15.440 -0.2405  0.1268  0.1344
19681TIP3   OH280457   2.824   3.962   4.231  0.2723  0.1991  0.1317
19681TIP3    H180458   2.799   3.962   4.323  1.5887  2.4375  0.5627
19681TIP3    H280459   2.812   3.871   4.203 -1.0865 -0.3456  2.2110
19682TIP3   OH280460   5.657   3.527   1.770  0.3069  0.0434  0.1699
19682TIP3    H180461   5.677   3.436   1.790 -0.4195 -0.2466 -0.4112
19682TIP3    H280462   5.695   3.542   1.684 -0.6894 -0.0978 -0.3095
19683TIP3   OH280463   3.611   4.688   3.658 -0.1466 -0.9671 -0.2886
19683TIP3    H180464   3.565   4.606   3.670  3.3682 -3.2620 -1.0098
19683TIP3    H280465   3.663   4.675   3.579  1.7028  1.3832  0.4149
19684TIP3   OH280466   0.699   0.101  16.854  0.2054 -0.7575  0.3497
19684TIP3    H180467   0.774   0.044  16.872  1.9226  0.2853 -2.7929
19684TIP3    H280468   0.624   0.042  16.854  1.7375 -2.8962 -1.5839
19685TIP3   OH280469   3.339   0.430   3.344 -0.2177 -0.4780  0.4508
19685TIP3    H180470   3.395   0.369   3.391  0.1023 -1.2889 -0.9315
19685TIP3    H280471   3.251   0.412   3.378 -0.3990 -2.9141 -1.0335
19686TIP3   OH280472   4.662   1.979  12.349  0.0737  0.4831 -0.4669
19686TIP3    H180473   4.729   1.919  12.315 -0.7580 -0.5628 -0.3139
19686TIP3    H280474   4.596   1.984  12.280 -0.5583  0.0806  0.0925
19687TIP3   OH280475   5.249   2.415  11.000 -0.0392 -0.1248  0.0899
19687TIP3    H180476   5.226   2.508  11.003 -0.0595 -0.0838 -1.1463
19687TIP3    H280477   5.165   2.370  11.000 -0.2027 -0.0106 -3.0259
19688TIP3   OH280478   5.662   1.555   2.612 -0.4369  0.2840 -0.2612
19688TIP3    H180479   5.596   1.527   2.550 -0.7607  0.7850 -0.1497
19688TIP3    H280480   5.626   1.532   2.698  0.6991 -1.8630 -0.2968
19689TIP3   OH280481   1.760   6.495  15.392 -0.2088 -0.2667 -0.1941
19689TIP3    H180482   1.775   6.557  15.321 -0.6419  1.2595  0.9719
19689TIP3    H280483   1.844   6.490  15.437 -0.0833 -0.7855 -0.4932
19690TIP3   OH280484   3.678   3.314   6.098  0.1341 -0.2177  0.4129
19690TIP3    H180485   3.623   3.331   6.174 -0.3637  1.4692 -0.2825
19690TIP3    H280486   3.653   3.226   6.069 -1.6423  0.1910  0.5992
19691TIP3   OH280487   1.780   5.124  13.590 -0.3086 -0.0342 -0.0371
19691TIP3    H180488   1.852   5.184  13.609  0.3025 -0.9614  0.7198
19691TIP3    H280489   1.768   5.075  13.672 -0.3787 -1.3255 -0.7840
19692TIP3   OH280490   6.359   1.750   3.659 -0.0676  0.1857 -0.4153
19692TIP3    H180491   6.349   1.724   3.568  0.2006 -0.8773 -0.1528
19692TIP3    H280492   6.280   1.801   3.679  0.3297  1.2836 -1.5085
19693TIP3   OH280493   3.107   6.006   4.002  0.1089  0.5275 -0.1397
19693TIP3    H180494   3.186   6.030   4.050 -0.8073  2.0483  0.7051
19693TIP3    H280495   3.093   5.914   4.024  1.3258  0.3979  0.1418
19694TIP3   OH280496   4.724   2.056  13.214  0.2582  0.6180 -0.2537
19694TIP3    H180497   4.654   2.083  13.154  0.0272  0.6278  0.0190
19694TIP3    H280498   4.686   1.984  13.264 -0.2272  1.8381  1.2100
19695TIP3   OH280499   2.930   1.015  16.017 -0.5481  0.6534  0.6360
19695TIP3    H180500   2.929   1.073  15.941  0.7915  1.4114  1.1597
19695TIP3    H280501   2.852   1.040  16.068 -0.6594  1.1349  0.2347
19696TIP3   OH280502   6.528   2.252   1.577  0.1905  0.8771  0.0132
19696TIP3    H180503   6.542   2.313   1.649  1.3223  2.0204 -1.1341
19696TIP3    H280504   6.434   2.255   1.561  0.3505  3.3049 -0.8287
19697TIP3   OH280505   4.937   4.677  11.494 -0.8804 -0.1668 -0.0451
19697TIP3    H180506   5.020   4.701  11.535 -0.8167 -0.5635  0.0624
19697TIP3    H280507   4.953   4.684  11.400 -1.1841  1.2817 -0.0077
19698TIP3   OH280508   2.427   2.557  11.566  0.1418  0.3429 -0.6118
19698TIP3    H180509   2.493   2.627  11.564 -0.2056  0.6919 -0.0875
19698TIP3    H280510   2.444   2.506  11.487  0.4634  0.9675 -0.9561
19699TIP3   OH280511   6.530   0.778  16.700 -0.1998  0.3109  0.0773
19699TIP3    H180512   6.499   0.866  16.721  0.4233  0.5220  0.1317
19699TIP3    H280513   6.451   0.732  16.672 -0.9177  0.2879  1.9367
19700TIP3   OH280514   5.206   5.443   6.900  0.0531  0.3369  0.2688
19700TIP3    H180515   5.221   5.537   6.902  2.6830  0.0021  1.7860
19700TIP3    H280516   5.217   5.418   6.808  0.1968  1.4070 -0.0116
19701TIP3   OH280517   3.659   2.949  13.122 -0.0588 -0.5221 -0.2026
19701TIP3    H180518   3.595   2.887  13.087  0.5634 -0.8397 -0.8077
19701TIP3    H280519   3.742   2.902  13.118  0.1355 -0.3147  1.0924
19702TIP3   OH280520   3.397   3.160   2.565 -0.0529 -0.1464  0.0124
19702TIP3    H180521   3.401   3.090   2.500  1.0752  1.3157 -1.5882
19702TIP3    H280522   3.440   3.235   2.523  1.7572  0.5641  2.8335
19703TIP3   OH280523   2.918   3.104  16.389 -0.1161 -0.6688 -0.2262
19703TIP3    H180524   2.898   3.018  16.351 -1.8776 -0.1004 -0.6709
19703TIP3    H280525   2.941   3.159  16.314 -2.5529  0.1687 -0.4454
19704TIP3   OH280526   3.965   3.684  16.371  0.0956 -0.1236 -0.3949
19704TIP3    H180527   3.879   3.714  16.402 -0.5254 -0.5325 -1.6385
19704TIP3    H280528   4.022   3.760  16.382 -0.9375  0.8606 -1.4775
19705TIP3   OH280529   2.394   4.077  11.097 -0.1804  0.3045  0.7208
19705TIP3    H180530   2.302   4.077  11.124 -0.9921 -1.2766 -1.6943
19705TIP3    H280531   2.397   4.135  11.021  0.8113  0.2249  0.6798
19706TIP3   OH280532   3.708   0.508  13.933  0.2911 -0.2782  0.0938
19706TIP3    H180533   3.742   0.445  13.997  1.4651 -0.6198 -0.8442
19706TIP3    H280534   3.662   0.573  13.987  2.8521  0.4942  1.4941
19707TIP3   OH280535   0.514   4.537  14.277 -0.4129  0.2153 -0.2159
19707TIP3    H180536   0.480   4.626  14.284  1.2203  0.8065  0.9480
19707TIP3    H280537   0.450   4.483  14.324 -1.2083  0.8299 -0.5680
19708TIP3   OH280538   3.761   4.431   4.948 -0.1120  0.4560 -0.0754
19708TIP3    H180539   3.703   4.455   4.876  1.5542  0.5194 -1.4537
19708TIP3    H280540   3.747   4.337   4.961 -2.4673  0.9289  1.4927
19709TIP3   OH280541   1.921   3.334  14.753  0.4958 -0.0533  0.0938
19709TIP3    H180542   1.847   3.382  14.716 -0.0319 -0.6431  0.3479
19709TIP3    H280543   1.881   3.278  14.820  1.1724 -0.3856  0.2247
19710TIP3   OH280544   3.532   5.183   0.149  0.2074  0.1298  0.2607
19710TIP3    H180545   3.534   5.274   0.117  1.1285  0.4825  1.2447
19710TIP3    H280546   3.578   5.133   0.081 -1.6390  0.1086 -1.0419
19711TIP3   OH280547   5.815   1.259  16.441 -0.0211 -0.1757 -0.2760
19711TIP3    H180548   5.889   1.319  16.431 -1.8125  2.1361 -0.5877
19711TIP3    H280549   5.802   1.222  16.353 -0.2616  0.7462 -0.6417
19712TIP3   OH280550   3.091   5.406   2.491  0.1902 -0.3183  0.2848
19712TIP3    H180551   3.169   5.431   2.541  1.3879 -0.6136 -1.3491
19712TIP3    H280552   3.018   5.443   2.540  1.2217 -1.2063  2.6226
19713TIP3   OH280553   0.653   4.724   4.101  0.3219  0.3488  0.2512
19713TIP3    H180554   0.689   4.812   4.112  0.2429  0.4240 -0.0580
19713TIP3    H280555   0.584   4.718   4.167 -2.9520  2.3043 -2.6457
19714TIP3   OH280556   3.591   6.296  11.821 -0.4986 -0.6450  0.2563
19714TIP3    H180557   3.679   6.326  11.797 -0.1468 -1.7356  0.1029
19714TIP3    H280558   3.589   6.204  11.793 -1.3781 -0.8895  1.0724
19715TIP3   OH280559   2.142   4.174  10.413  0.5489 -0.4987  0.0142
19715TIP3    H180560   2.048   4.158  10.422 -0.1393  2.2646 -0.9687
19715TIP3    H280561   2.169   4.208  10.499  0.3646 -0.2441 -0.0247
19716TIP3   OH280562   5.498   5.294   5.552 -0.1629 -0.1635  0.2404
19716TIP3    H180563   5.440   5.303   5.627 -0.4220 -0.4192  0.0759
19716TIP3    H280564   5.448   5.240   5.490  0.1147 -0.0976 -0.0427
19717TIP3   OH280565   5.532   4.869  11.187  0.5354  0.1477 -0.2233
19717TIP3    H180566   5.505   4.855  11.096 -1.0546  1.0734  0.0656
19717TIP3    H280567   5.463   4.830  11.240 -0.6462  2.9834  0.5459
19718TIP3   OH280568   1.399   0.156  13.364  0.3339  0.3362 -0.3599
19718TIP3    H180569   1.382   0.249  13.352 -0.8709  0.2553  0.5500
19718TIP3    H280570   1.478   0.139  13.312  0.1423  1.6950 -1.1424
19719TIP3   OH280571   3.672   4.008   4.686 -0.5710  0.4735  0.3291
19719TIP3    H180572   3.714   3.927   4.658  2.0705  1.4058  1.2485
19719TIP3    H280573   3.578   3.989   4.685 -0.0257 -2.8979  1.4910
19720TIP3   OH280574   2.559   6.024  17.040  0.4338  0.5171 -0.1466
19720TIP3    H180575   2.498   5.977  16.983  1.4040 -1.3179  0.2562
19720TIP3    H280576   2.601   5.955  17.092  0.4937  2.0066  1.9107
19721TIP3   OH280577   3.509   4.057  12.014  0.6275  0.1382 -0.4817
19721TIP3    H180578   3.523   4.078  11.921  0.4278  0.8825 -0.3428
19721TIP3    H280579   3.445   3.986  12.013  0.7976 -0.0131 -0.9215
19722TIP3   OH280580   2.099   2.623   0.521 -0.2876  0.3361  0.1768
19722TIP3    H180581   2.186   2.656   0.499 -0.5260  0.1566 -1.1471
19722TIP3    H280582   2.094   2.630   0.616  0.7720  1.3436  0.1866
19723TIP3   OH280583   6.503   0.714   4.931  0.2021  0.9032  0.0421
19723TIP3    H180584   6.552   0.786   4.893  0.2881  1.6124  1.4338
19723TIP3    H280585   6.536   0.636   4.886  2.1509  1.4293  0.4571
19724TIP3   OH280586   0.924   3.947   0.520 -0.3175  0.2831  0.3829
19724TIP3    H180587   0.899   3.964   0.429  3.0349  1.5113 -0.4652
19724TIP3    H280588   0.982   3.871   0.515 -0.5223  0.0288  1.5788
19725TIP3   OH280589   5.151   4.381  12.203  0.1096  0.4756  0.3128
19725TIP3    H180590   5.064   4.417  12.184  0.8060  2.8002  1.2277
19725TIP3    H280591   5.199   4.388  12.120 -0.8547 -1.9683 -0.5525
19726TIP3   OH280592   1.953   0.353   4.979 -0.0018 -0.1436 -0.0188
19726TIP3    H180593   2.040   0.381   4.950  0.4235  1.1241  2.2626
19726TIP3    H280594   1.950   0.375   5.072 -1.2187 -4.0166  1.0485
19727TIP3   OH280595   4.132   0.372  13.859 -0.5522  0.5612  0.3796
19727TIP3    H180596   4.097   0.339  13.942  1.6415  1.8986  1.9373
19727TIP3    H280597   4.183   0.299  13.824  0.0723  0.5915  1.2001
19728TIP3   OH280598   5.775   4.747  16.704  0.0362 -0.2845 -0.1768
19728TIP3    H180599   5.719   4.757  16.627 -1.4937  1.1703  1.0478
19728TIP3    H280600   5.815   4.833  16.715 -1.1735  0.0895  1.6428
19729TIP3   OH280601   1.077   2.081   4.023  0.0873 -0.1279 -0.2382
19729TIP3    H180602   1.028   2.072   3.942 -0.6750  1.4233  0.0088
19729TIP3    H280603   1.074   1.994   4.063 -0.1531 -0.7220 -1.5110
19730TIP3   OH280604   3.390   0.234  14.002 -0.1084  0.4797 -0.5377
19730TIP3    H180605   3.396   0.139  13.995  1.5021  0.4768  0.2540
19730TIP3    H280606   3.297   0.253  14.005 -0.4491 -1.0891 -0.5433
19731TIP3   OH280607   4.144   3.313  16.023 -0.3715  0.2120 -0.8253
19731TIP3    H180608   4.078   3.263  15.974  0.2488 -1.5253  0.0083
19731TIP3    H280609   4.100   3.395  16.046 -1.2712  0.3223 -2.7052
19732TIP3   OH280610   6.633   0.948   3.449 -0.0680 -0.1558  0.8093
19732TIP3    H180611   6.710   1.004   3.453 -0.1156  0.0119 -0.1770
19732TIP3    H280612   6.668   0.859   3.459 -0.1025  0.0601  3.3316
19733TIP3   OH280613   0.891   3.843  15.028  0.1411  0.0710 -0.4614
19733TIP3    H180614   0.969   3.898  15.032  1.0420 -0.9566 -2.3073
19733TIP3    H280615   0.920   3.756  15.057 -0.1937 -0.4049 -1.4720
19734TIP3   OH280616   2.501   1.838  16.034  0.1352 -0.1830 -0.3715
19734TIP3    H180617   2.539   1.827  15.947 -0.7728  0.1025 -0.8112
19734TIP3    H280618   2.555   1.783  16.091  1.0760  0.0552 -1.0155
19735TIP3   OH280619   0.854   2.100  11.908  0.2934  0.8363  0.0457
19735TIP3    H180620   0.779   2.061  11.953 -0.2544  2.6991  0.8708
19735TIP3    H280621   0.891   2.029  11.856 -1.6232 -0.3146  0.1638
19736TIP3   OH280622   3.219   6.336  12.657 -0.6838 -0.2571  0.0522
19736TIP3    H180623   3.184   6.337  12.568 -3.3348  0.6777  1.0070
19736TIP3    H280624   3.268   6.254  12.663 -2.3569 -1.4466 -1.5865
19737TIP3   OH280625   2.105   0.319  14.755 -0.5738  0.1597 -0.1863
19737TIP3    H180626   2.086   0.226  14.767  1.4117  0.0762  3.8507
19737TIP3    H280627   2.025   0.364  14.784 -1.8763 -0.1250 -2.9858
19738TIP3   OH280628   3.342   2.673  15.717  0.1098  0.2615  0.0367
19738TIP3    H180629   3.396   2.596  15.702  1.5204  1.4174 -1.2488
19738TIP3    H280630   3.393   2.727  15.778  0.0799  1.0013 -0.5633
19739TIP3   OH280631   3.060   0.865   1.280 -0.3918  0.3027  0.0724
19739TIP3    H180632   3.144   0.910   1.290 -0.4786  0.0922  1.9887
19739TIP3    H280633   3.001   0.932   1.245  0.3161  0.7243 -0.3502
19740TIP3   OH280634   0.997   5.806   4.753 -0.5014 -0.5935  0.4101
19740TIP3    H180635   1.028   5.722   4.787  1.4778 -1.0279 -2.1547
19740TIP3    H280636   1.016   5.869   4.823 -1.3994 -2.1051  2.0992
19741TIP3   OH280637   1.351   2.175   5.302  0.4206 -0.2454 -0.5890
19741TIP3    H180638   1.430   2.136   5.264  0.8452  0.1451 -0.1177
19741TIP3    H280639   1.349   2.264   5.266  0.2487 -0.2199 -0.5168
19742TIP3   OH280640   0.531   4.885   3.103  0.0670 -0.8027 -0.0298
19742TIP3    H180641   0.492   4.969   3.125 -0.9127 -0.7404 -1.8654
19742TIP3    H280642   0.608   4.907   3.050  1.0652 -1.0367  1.2434
19743TIP3   OH280643   6.765   0.908   4.362 -0.3822 -0.2188 -0.2793
19743TIP3    H180644   6.701   0.969   4.324 -1.0009 -1.4847 -1.3874
19743TIP3    H280645   6.848   0.954   4.358 -0.2910 -0.4130 -3.8242
19744TIP3   OH280646   0.735   6.338   4.826 -0.1848  0.1367  0.1381
19744TIP3    H180647   0.812   6.392   4.805 -1.2504  1.8473  0.3885
19744TIP3    H280648   0.733   6.335   4.921 -2.7697  3.9662  0.4541
19745TIP3   OH280649   5.658   0.771  13.025  0.4867 -0.0328  0.3134
19745TIP3    H180650   5.660   0.867  13.035  0.4755 -0.2167  2.8373
19745TIP3    H280651   5.565   0.749  13.030  0.4808 -0.1882 -0.3832
19746TIP3   OH280652   2.358   6.686  16.239 -0.5960  0.3139 -0.5375
19746TIP3    H180653   2.371   6.754  16.305  1.3037  0.4853 -1.0295
19746TIP3    H280654   2.435   6.692  16.183 -0.3355 -2.2382 -0.5959
19747TIP3   OH280655   3.503   0.717   4.318 -0.1831  0.0439  0.0566
19747TIP3    H180656   3.491   0.623   4.303  0.6379 -0.2115  0.9237
19747TIP3    H280657   3.458   0.733   4.402  0.6812  0.1872  0.4968
19748TIP3   OH280658   5.906   3.880  11.107 -0.2935  0.5760 -0.1986
19748TIP3    H180659   5.840   3.851  11.044  0.0145  0.4177 -0.4472
19748TIP3    H280660   5.989   3.872  11.061 -0.0295  0.0834  0.3487
19749TIP3   OH280661   0.756   5.204  13.612  0.2440 -0.3156  0.2034
19749TIP3    H180662   0.738   5.175  13.702 -1.5073 -1.0770 -0.3506
19749TIP3    H280663   0.810   5.135  13.575 -0.3819 -0.8129  0.1969
19750TIP3   OH280664   5.534   2.730   0.667  0.2574 -0.6594 -0.0151
19750TIP3    H180665   5.502   2.738   0.577 -0.1705  3.0082  0.2880
19750TIP3    H280666   5.626   2.754   0.661  0.2429 -0.4761  0.5037
19751TIP3   OH280667   2.880   3.737  15.669  1.1307 -0.5998 -0.6300
19751TIP3    H180668   2.882   3.644  15.646 -0.9114 -0.7130 -0.4653
19751TIP3    H280669   2.940   3.743  15.744 -1.1992 -2.4751  1.5640
19752TIP3   OH280670   4.251   2.203  16.912 -0.7409  0.4666  0.1446
19752TIP3    H180671   4.278   2.276  16.968 -0.3519  1.5788 -1.4362
19752TIP3    H280672   4.333   2.159  16.889 -0.8296  0.4521 -0.1412
19753TIP3   OH280673   3.673   6.571   4.243  0.7263  0.1848 -0.4117
19753TIP3    H180674   3.646   6.480   4.256 -0.9999  0.2741 -2.7068
19753TIP3    H280675   3.751   6.582   4.298  0.8707 -2.6101  0.0535
19754TIP3   OH280676   1.266   2.506   5.549 -0.5685 -0.4719  0.0984
19754TIP3    H180677   1.261   2.592   5.590  4.1355  0.6405 -1.0713
19754TIP3    H280678   1.264   2.523   5.455 -0.0769 -1.6959 -0.1640
19755TIP3   OH280679   5.116   5.242   4.960 -0.2657  0.2426 -0.2474
19755TIP3    H180680   5.187   5.192   4.919  0.4318  1.1588 -0.1957
19755TIP3    H280681   5.076   5.180   5.022  0.3055 -0.3740 -0.4776
19756TIP3   OH280682   5.614   1.490   3.793  0.1050  0.0086  0.3197
19756TIP3    H180683   5.679   1.553   3.824  0.1868 -0.1437  0.4585
19756TIP3    H280684   5.531   1.522   3.828  0.2609 -0.4405  1.1341
19757TIP3   OH280685   3.162   1.388   3.952 -0.4879 -0.0351 -0.2354
19757TIP3    H180686   3.195   1.412   3.866 -0.8819  0.7686 -0.1687
19757TIP3    H280687   3.073   1.355   3.936 -0.9581  1.1020 -0.0299
19758TIP3   OH280688   0.716   3.823  15.598  1.1781  0.1527  1.0255
19758TIP3    H180689   0.734   3.911  15.565  2.6026 -0.7519 -0.8261
19758TIP3    H280690   0.795   3.800  15.647  1.2533 -0.4515  0.6337
19759TIP3   OH280691   5.908   2.525  16.780 -0.3991  0.1071 -0.1407
19759TIP3    H180692   5.934   2.608  16.819  0.2129  0.3826 -1.0897
19759TIP3    H280693   5.891   2.546  16.688  0.1609 -0.8778 -0.4885
19760TIP3   OH280694   2.599   3.536   6.570  0.0798 -0.3182  0.4981
19760TIP3    H180695   2.522   3.578   6.608  0.1585  0.6364 -0.3744
19760TIP3    H280696   2.569   3.500   6.487  0.4771 -0.3032  0.3461
19761TIP3   OH280697   0.524   4.960   5.363 -0.4124  0.4803  0.2083
19761TIP3    H180698   0.552   4.869   5.356 -0.7429  0.4258 -0.5754
19761TIP3    H280699   0.482   4.966   5.449  0.9892  0.2985  0.9313
19762TIP3   OH280700   6.639   1.868   2.976  0.7418  0.0841  0.1856
19762TIP3    H180701   6.650   1.857   2.882  2.2149 -0.3019  0.3852
19762TIP3    H280702   6.714   1.822   3.015 -0.1569 -0.2843  1.5720
19763TIP3   OH280703   1.930   6.386   0.862 -0.3638  0.5811  0.3175
19763TIP3    H180704   1.958   6.414   0.949 -1.8615  1.9805  0.3868
19763TIP3    H280705   1.835   6.377   0.869 -0.2892 -1.5383 -0.5935
19764TIP3   OH280706   2.973   5.318  12.754  0.0785  0.0411  0.0905
19764TIP3    H180707   2.979   5.223  12.745  1.3476 -0.1377  2.2029
19764TIP3    H280708   2.967   5.350  12.664  2.0755 -1.9142 -0.8517
19765TIP3   OH280709   6.515   1.984   3.229  0.7235  0.1732  0.2707
19765TIP3    H180710   6.456   2.059   3.228  1.4565  0.7809  1.0892
19765TIP3    H280711   6.584   2.007   3.167 -0.6155 -1.1744 -1.8211
19766TIP3   OH280712   5.279   3.193  13.619 -0.1381  0.3275 -0.2726
19766TIP3    H180713   5.253   3.103  13.634  1.2608  0.0592  0.8576
19766TIP3    H280714   5.310   3.196  13.529 -1.6241  0.0807 -0.8170
19767TIP3   OH280715   2.004   2.650   2.032  0.0147 -0.1256 -0.4145
19767TIP3    H180716   2.096   2.647   2.006 -0.3320  0.5909 -1.8344
19767TIP3    H280717   1.990   2.741   2.058  0.1013 -0.6055  1.4855
19768TIP3   OH280718   1.202   4.219   1.443  0.3900 -0.2222  0.1404
19768TIP3    H180719   1.216   4.134   1.486 -0.4220  0.8830  2.8163
19768TIP3    H280720   1.238   4.283   1.505  0.3212  1.4669 -1.4701
19769TIP3   OH280721   4.483   3.494   1.652 -0.0109  0.5774 -0.5683
19769TIP3    H180722   4.499   3.465   1.562 -0.1675  0.6472 -0.6182
19769TIP3    H280723   4.426   3.427   1.689  1.6483 -0.5227  0.1078
19770TIP3   OH280724   4.763   5.683   0.728 -0.0232 -0.3862  0.1735
19770TIP3    H180725   4.766   5.587   0.736 -1.1447 -0.3967  0.6777
19770TIP3    H280726   4.696   5.709   0.790 -1.1825  0.5616 -1.4269
19771TIP3   OH280727   6.424   0.093   1.198  0.0777 -0.0468  0.4642
19771TIP3    H180728   6.450   0.036   1.126  0.4119  1.6045 -0.7886
19771TIP3    H280729   6.488   0.076   1.267  1.2107  0.0289 -0.5400
19772TIP3   OH280730   2.539   3.017  13.618  0.1329 -0.2509 -0.1966
19772TIP3    H180731   2.553   2.940  13.673  1.4066  0.7285  0.9295
19772TIP3    H280732   2.576   2.994  13.533  0.6307 -0.8286  0.1742
19773TIP3   OH280733   2.256   3.141   0.137 -0.7883  0.0496  0.3036
19773TIP3    H180734   2.210   3.157   0.054  2.0178  1.3165 -1.1282
19773TIP3    H280735   2.260   3.227   0.179  0.6908  0.0681  0.1465
19774TIP3   OH280736   3.585   5.518  12.309 -0.7295 -0.2051  0.2753
19774TIP3    H180737   3.605   5.605  12.276 -0.9435  0.5125  1.9119
19774TIP3    H280738   3.669   5.473  12.312 -0.6191 -0.0537 -0.5758
19775TIP3   OH280739   6.704   6.776  15.739 -0.5756 -0.6851  0.5301
19775TIP3    H180740   6.788   6.754  15.698 -0.6047 -0.7577  0.5090
19775TIP3    H280741   6.641   6.774  15.667 -0.4793  0.0645  0.4194
19776TIP3   OH280742   1.338   1.411  11.463  0.5032 -0.1490 -0.9715
19776TIP3    H180743   1.382   1.496  11.452  0.0897  0.4968  1.6891
19776TIP3    H280744   1.247   1.428  11.437 -0.3300  1.1839  2.2588
19777TIP3   OH280745   4.709   2.272  11.079 -0.5104 -0.4151  0.1723
19777TIP3    H180746   4.737   2.211  11.011  1.7625  1.1816 -0.4752
19777TIP3    H280747   4.756   2.354  11.058 -1.0155  0.6184  2.7145
19778TIP3   OH280748   3.622   3.921   0.505 -0.1880  0.4742 -0.7114
19778TIP3    H180749   3.623   3.887   0.595  3.2099  0.5345 -0.6120
19778TIP3    H280750   3.568   4.000   0.510  2.1178  2.0612  2.0145
19779TIP3   OH280751   4.306   4.319   0.364  0.5415 -0.2341 -0.1181
19779TIP3    H180752   4.211   4.327   0.359  0.4327 -0.2164  1.4050
19779TIP3    H280753   4.323   4.298   0.456  1.9227 -1.6367 -0.6577
19780TIP3   OH280754   4.897   5.244   0.946 -0.0705 -0.6635 -0.3448
19780TIP3    H180755   4.833   5.243   1.017  0.0827  0.8550 -0.1576
19780TIP3    H280756   4.852   5.288   0.874  0.6020  0.0140 -0.3573
19781TIP3   OH280757   6.564   4.501   2.484  0.2211 -0.4488  0.2479
19781TIP3    H180758   6.633   4.560   2.514 -1.0219 -0.1083  2.6279
19781TIP3    H280759   6.597   4.413   2.504  1.7028 -0.6153 -2.5152
19782TIP3   OH280760   1.809   1.842   1.922 -0.0540 -0.3049 -0.0844
19782TIP3    H180761   1.745   1.773   1.906 -0.4180  0.0005  0.0512
19782TIP3    H280762   1.780   1.883   2.004 -0.6537  0.9278 -0.9002
19783TIP3   OH280763   0.720   6.535   1.656 -0.3852 -0.3863  0.2414
19783TIP3    H180764   0.804   6.569   1.624 -1.3750  1.5921 -0.4336
19783TIP3    H280765   0.743   6.489   1.737  1.1071  2.1974  1.4362
19784TIP3   OH280766   4.378   3.912  16.236  0.2634  0.3779 -0.7733
19784TIP3    H180767   4.308   3.963  16.196  0.4773 -0.0700 -1.7516
19784TIP3    H280768   4.446   3.976  16.255 -0.4314  0.8384  0.2961
19785TIP3   OH280769   0.396   1.876  11.970 -0.5376 -0.5004 -0.3640
19785TIP3    H180770   0.354   1.791  11.957  0.4401 -1.3741  1.7993
19785TIP3    H280771   0.333   1.939  11.935 -1.5964 -2.0367 -1.3648
19786TIP3   OH280772   6.101   1.169   1.336 -0.1392 -0.3415  0.1066
19786TIP3    H180773   6.135   1.098   1.390 -0.6573  0.6326  1.7904
19786TIP3    H280774   6.168   1.237   1.341 -0.6434  0.1440  0.3501
19787TIP3   OH280775   1.617   5.665  15.090  0.3590 -0.0520  0.0688
19787TIP3    H180776   1.699   5.701  15.124  0.8822 -0.9309 -0.2147
19787TIP3    H280777   1.620   5.684  14.996  0.0545  0.2449  0.1174
19788TIP3   OH280778   6.109   4.093   4.763  0.5368 -0.2055 -0.5214
19788TIP3    H180779   6.085   4.008   4.800  0.1539  0.2227  0.2273
19788TIP3    H280780   6.204   4.097   4.771  0.4207  0.1013  0.9292
19789TIP3   OH280781   2.319   1.643  14.795 -0.1657 -0.2626 -0.5753
19789TIP3    H180782   2.333   1.721  14.849 -0.1744  0.0906 -1.0766
19789TIP3    H280783   2.371   1.575  14.838  0.6322  0.2697 -0.6828
19790TIP3   OH280784   6.678   5.245  11.998  0.0376 -0.2185  0.2047
19790TIP3    H180785   6.766   5.281  12.006  0.5294 -0.9752 -1.3977
19790TIP3    H280786   6.653   5.223  12.087  1.3581  0.2671  0.7177
19791TIP3   OH280787   5.524   0.754   2.361  0.5316  0.1183 -0.4989
19791TIP3    H180788   5.599   0.813   2.361  0.3740  0.3370  0.2508
19791TIP3    H280789   5.562   0.667   2.367  0.7637  0.1423 -1.5195
19792TIP3   OH280790   2.928   1.005  13.809 -0.7497 -0.0210 -0.6321
19792TIP3    H180791   2.885   0.930  13.849 -1.4713 -0.6391 -2.4743
19792TIP3    H280792   2.946   0.978  13.719  2.6499  0.5639 -0.2757
19793TIP3   OH280793   0.190   4.056  11.982 -0.2375 -0.2544  0.3142
19793TIP3    H180794   0.141   4.136  12.003 -1.1599 -0.9667  0.9934
19793TIP3    H280795   0.166   3.995  12.052 -0.0144 -1.3208 -0.5173
19794TIP3   OH280796   5.199   1.772  11.652  0.2116  0.2956 -0.5340
19794TIP3    H180797   5.198   1.814  11.567  3.2271 -1.2630 -1.5140
19794TIP3    H280798   5.291   1.777  11.680  0.2526 -3.1693  0.4483
19795TIP3   OH280799   3.922   3.407  14.898 -0.6427 -0.4447 -0.3262
19795TIP3    H180800   3.838   3.413  14.854 -0.1503  1.5735 -1.0936
19795TIP3    H280801   3.915   3.466  14.973 -0.1971 -0.9407  0.1201
19796TIP3   OH280802   4.875   0.153  14.029 -0.1458 -0.3109 -0.3375
19796TIP3    H180803   4.781   0.137  14.022 -0.7994  2.0756  1.6422
19796TIP3    H280804   4.894   0.211  13.956 -0.4159 -0.0011 -0.1633
19797TIP3   OH280805   5.823   4.515  12.094  0.5837 -0.3483  0.2095
19797TIP3    H180806   5.760   4.449  12.126 -0.2871  0.0194 -0.6791
19797TIP3    H280807   5.852   4.561  12.172 -0.6081 -0.2385  0.6098
19798TIP3   OH280808   6.498   3.430  17.206 -0.3474 -0.6438  0.7071
19798TIP3    H180809   6.556   3.434  17.129 -1.1834  1.4415  0.1181
19798TIP3    H280810   6.542   3.369  17.265  1.3087 -0.8517 -0.6388
19799TIP3   OH280811   1.655   1.994   4.675  0.2406 -0.5114  0.1130
19799TIP3    H180812   1.578   1.937   4.667 -0.6463  0.5696  0.6087
19799TIP3    H280813   1.619   2.078   4.703  1.5478  0.2166 -0.3357
19800TIP3   OH280814   0.862   1.628  16.614  0.3469 -0.3819  0.2906
19800TIP3    H180815   0.818   1.685  16.552 -0.1736 -1.5250 -0.4238
19800TIP3    H280816   0.942   1.675  16.638 -0.5763  1.1110  0.5699
19801TIP3   OH280817   3.856   1.465   1.867  0.3784  0.4345  0.0463
19801TIP3    H180818   3.878   1.382   1.824 -0.7502  1.0295 -1.7704
19801TIP3    H280819   3.940   1.510   1.876  0.7681 -0.1487 -0.5949
19802TIP3   OH280820   3.021   0.825   5.732 -0.0770 -1.0904  0.1991
19802TIP3    H180821   3.040   0.869   5.815 -0.2470 -1.1148  0.2512
19802TIP3    H280822   2.951   0.878   5.692 -0.6126 -1.5759  0.4796
19803TIP3   OH280823   6.352   2.905  12.883  0.1552 -0.6382  0.2039
19803TIP3    H180824   6.282   2.865  12.935 -0.8764  0.7186 -0.0851
19803TIP3    H280825   6.385   2.976  12.938 -0.3540  0.2549 -0.6237
19804TIP3   OH280826   5.453   3.193   4.136  0.2225  0.5153 -0.4000
19804TIP3    H180827   5.369   3.178   4.178  0.8642 -3.0653 -0.0824
19804TIP3    H280828   5.438   3.173   4.044  0.8614 -1.0569 -0.1902
19805TIP3   OH280829   5.617   0.552  12.374 -0.4751  0.5441  0.5115
19805TIP3    H180830   5.698   0.502  12.360 -0.7741  0.1488  0.1652
19805TIP3    H280831   5.640   0.615  12.443  0.4602  1.2326 -0.4015
19806TIP3   OH280832   3.039   4.060  16.650  0.4877 -0.0679  0.0389
19806TIP3    H180833   3.087   3.980  16.670  1.1727  0.0864 -0.9244
19806TIP3    H280834   3.064   4.120  16.720 -0.5060 -0.8593  1.1145
19807TIP3   OH280835   3.149   3.805  11.836  0.0289  0.0866  0.4289
19807TIP3    H180836   3.119   3.715  11.820  0.5600  0.1881 -1.3378
19807TIP3    H280837   3.072   3.859  11.817  0.3646  0.1365 -0.8675
19808TIP3   OH280838   3.794   2.062  11.880 -0.2451 -0.1504 -0.2006
19808TIP3    H180839   3.834   2.147  11.859  1.9451 -1.0113  0.2360
19808TIP3    H280840   3.739   2.079  11.957  0.1144  0.8696 -0.1596
19809TIP3   OH280841   6.596   4.595  11.781  0.9056 -0.1346  0.0157
19809TIP3    H180842   6.667   4.656  11.804  1.0165 -0.3796  0.3398
19809TIP3    H280843   6.542   4.592  11.860  0.2851  0.3885 -0.3827
19810TIP3   OH280844   4.005   3.852   3.649 -0.3856  0.1855  0.4786
19810TIP3    H180845   3.939   3.831   3.583 -1.7025  2.4981  0.9436
19810TIP3    H280846   3.979   3.803   3.726 -1.0149  0.3173  0.3560
19811TIP3   OH280847   6.128   5.413  12.834  0.2999  0.2281 -0.2783
19811TIP3    H180848   6.070   5.489  12.824  0.4385  0.6211  1.5116
19811TIP3    H280849   6.118   5.389  12.926  2.7528  0.1125  0.0018
19812TIP3   OH280850   4.194   2.267   5.055 -0.2313  0.1603  0.7137
19812TIP3    H180851   4.177   2.200   5.121  0.5355 -1.5352 -0.7095
19812TIP3    H280852   4.108   2.293   5.023 -0.5861  0.6798  2.0287
19813TIP3   OH280853   0.681   3.371  13.313  0.2392 -0.7226 -0.3735
19813TIP3    H180854   0.587   3.356  13.306 -0.3925  2.5711 -0.6051
19813TIP3    H280855   0.707   3.323  13.392 -1.8184 -1.0476  0.1728
19814TIP3   OH280856   0.178   2.554  12.211 -0.3928  0.4320 -0.5732
19814TIP3    H180857   0.169   2.480  12.270  1.0987 -0.2265 -1.1080
19814TIP3    H280858   0.252   2.530  12.154 -0.7691  1.7238 -1.6585
19815TIP3   OH280859   3.931   6.306  13.631 -0.3288  0.9560  0.0271
19815TIP3    H180860   3.879   6.362  13.689 -0.8957 -0.9568  1.4794
19815TIP3    H280861   3.884   6.223  13.630  0.9033  0.2242 -1.4052
19816TIP3   OH280862   1.825   5.396   2.715 -0.3027 -0.2316  0.5872
19816TIP3    H180863   1.914   5.432   2.706 -0.1198 -1.0569 -1.3548
19816TIP3    H280864   1.839   5.304   2.737 -0.6861 -0.3807  0.1979
19817TIP3   OH280865   2.666   0.069   0.000 -0.1284  0.2476 -0.0103
19817TIP3    H180866   2.649   0.115   0.083  1.7593  1.3323 -0.1530
19817TIP3    H280867   2.683  -0.021   0.026  0.7592  0.6387  0.8562
19818TIP3   OH280868   1.483   6.057  13.332  0.3616 -0.2488  0.5279
19818TIP3    H180869   1.397   6.017  13.329 -0.2519  0.7375  2.8895
19818TIP3    H280870   1.482   6.122  13.261 -0.3851 -1.0478 -0.2038
19819TIP3   OH280871   3.170   2.449  14.434  0.1168  0.2917 -0.4118
19819TIP3    H180872   3.239   2.429  14.497 -0.1688 -0.7305 -0.3978
19819TIP3    H280873   3.160   2.544  14.438 -0.0987  0.2315  1.3182
19820TIP3   OH280874   5.668   2.399   2.323  0.4713 -0.1385 -0.2900
19820TIP3    H180875   5.662   2.384   2.418  3.5627  0.2433  0.0768
19820TIP3    H280876   5.577   2.399   2.293 -0.6791  0.5648  2.7923
19821TIP3   OH280877   2.289   5.657   5.419  0.2083 -0.3075  0.1363
19821TIP3    H180878   2.269   5.563   5.419  1.7071 -0.6557  0.6930
19821TIP3    H280879   2.262   5.687   5.506  0.3046 -0.3605  0.1852
19822TIP3   OH280880   5.138   0.788  13.755  0.2246 -0.1548  0.0690
19822TIP3    H180881   5.210   0.850  13.745 -0.5194  0.3942 -3.5605
19822TIP3    H280882   5.078   0.830  13.816  1.1514  1.2604  0.0550
19823TIP3   OH280883   3.072   2.902   6.195  0.6164 -0.5534  0.3107
19823TIP3    H180884   3.095   2.813   6.169 -0.6707 -0.7364 -0.2485
19823TIP3    H280885   3.101   2.956   6.122 -2.1200 -0.9654 -1.2156
19824TIP3   OH280886   0.181   0.146  10.550  0.2356 -0.6277  0.2470
19824TIP3    H180887   0.092   0.131  10.582 -0.1832 -0.5644 -0.8090
19824TIP3    H280888   0.186   0.241  10.539  1.2616 -0.3735  2.5086
19825TIP3   OH280889   0.719   0.181   0.410 -0.1535  0.2043 -1.0177
19825TIP3    H180890   0.630   0.215   0.400 -0.6450 -0.8451 -0.4332
19825TIP3    H280891   0.771   0.229   0.346 -1.0036  1.3256 -0.8886
19826TIP3   OH280892   4.673   4.107  11.531  0.2052 -0.0444 -0.0993
19826TIP3    H180893   4.699   4.085  11.441 -0.6043 -2.1036  0.0950
19826TIP3    H280894   4.730   4.054  11.586 -0.5137 -0.2083  0.5064
19827TIP3   OH280895   2.352   1.489  14.043 -0.0865  0.6289 -0.1408
19827TIP3    H180896   2.304   1.548  14.101 -2.0660 -1.0135  0.0438
19827TIP3    H280897   2.395   1.546  13.981  0.4922  2.3655  1.7442
19828TIP3   OH280898   1.260   0.785   1.394 -0.5379 -0.2237 -0.2263
19828TIP3    H180899   1.177   0.830   1.408  0.1045  1.3652 -1.3112
19828TIP3    H280900   1.239   0.692   1.406 -1.9541  0.2776  1.8725
19829TIP3   OH280901   0.732   3.337   0.272 -0.0941  0.0609 -0.0165
19829TIP3    H180902   0.739   3.415   0.218  2.7309  0.2770  0.5036
19829TIP3    H280903   0.764   3.266   0.216  0.0602 -0.2241  0.4246
19830TIP3   OH280904   4.334   4.654  16.421 -0.3310 -0.0691 -0.0045
19830TIP3    H180905   4.263   4.631  16.361 -0.5650 -1.1509  0.6653
19830TIP3    H280906   4.294   4.713  16.485  0.0751  1.6572 -1.2415
19831TIP3   OH280907   0.615   1.942  16.736 -0.3859  0.0901  0.2331
19831TIP3    H180908   0.665   2.022  16.718  0.4695 -0.3890  0.4030
19831TIP3    H280909   0.556   1.967  16.808  0.2290  0.4420  0.6305
19832TIP3   OH280910   5.491   1.705  12.987  0.0538  0.6760 -0.0584
19832TIP3    H180911   5.497   1.738  13.077 -1.9256  0.5472  0.1645
19832TIP3    H280912   5.527   1.616  12.991 -0.1618  0.6145  0.6533
19833TIP3   OH280913   2.674   5.879   4.176 -0.3501 -0.0345 -0.1688
19833TIP3    H180914   2.632   5.950   4.225  1.8236  1.5789 -0.5160
19833TIP3    H280915   2.709   5.921   4.097 -0.5983 -1.8816 -1.3281
19834TIP3   OH280916   2.192   0.129   3.544  0.7870  0.1453  0.3411
19834TIP3    H180917   2.181   0.141   3.638  0.1320 -1.0080  0.4235
19834TIP3    H280918   2.165   0.212   3.506  0.9372  0.5788  1.1537
19835TIP3   OH280919   0.190   2.951  17.192  0.7416 -0.1192  0.1007
19835TIP3    H180920   0.234   2.890  17.132  0.5349 -0.7836  0.6067
19835TIP3    H280921   0.248   3.026  17.198  0.9148 -0.1811 -0.6854
19836TIP3   OH280922   0.700   4.962   6.008  0.1153  0.1032 -0.1954
19836TIP3    H180923   0.729   4.945   6.098 -2.5034 -0.3077  0.6588
19836TIP3    H280924   0.689   4.876   5.969  0.9775  0.2769 -0.8726
19837TIP3   OH280925   1.006   1.839   0.234 -0.8049 -0.0402  0.2777
19837TIP3    H180926   1.081   1.802   0.188 -1.4355 -0.9406 -0.0363
19837TIP3    H280927   1.025   1.824   0.327 -0.1847  0.5411  0.2524
19838TIP3   OH280928   2.327   5.857   1.558 -0.1331  0.0801 -0.0999
19838TIP3    H180929   2.258   5.823   1.501 -0.1837  1.4605 -0.9122
19838TIP3    H280930   2.299   5.947   1.578  0.7697  0.2040  0.6612
19839TIP3   OH280931   6.742   3.160  15.520  0.2346  0.0187 -0.1683
19839TIP3    H180932   6.796   3.132  15.594  0.9383 -0.3095 -0.7901
19839TIP3    H280933   6.658   3.116  15.534  1.2177 -2.2830 -0.9766
19840TIP3   OH280934   4.178   0.218   4.641 -0.1775  0.0255  0.1318
19840TIP3    H180935   4.103   0.160   4.659  0.7362 -1.0926  0.4987
19840TIP3    H280936   4.182   0.224   4.546 -2.1899  2.1096  0.1065
19841TIP3   OH280937   0.521   6.463  17.160  0.3757  0.5055  0.2525
19841TIP3    H180938   0.472   6.412  17.095  0.4246 -1.0625  1.3905
19841TIP3    H280939   0.602   6.486  17.115 -1.0700  2.6920 -1.4812
19842TIP3   OH280940   3.953   4.411   4.031 -0.2747 -0.2680  0.2388
19842TIP3    H180941   3.903   4.405   3.949 -1.3200  2.5377  0.5556
19842TIP3    H280942   3.975   4.504   4.039  3.9484 -1.1062  0.8273
19843TIP3   OH280943   4.759   2.939   4.779  0.0321  0.2522 -0.1044
19843TIP3    H180944   4.772   3.029   4.748  2.0425  0.4483  1.0859
19843TIP3    H280945   4.842   2.917   4.821 -1.0681 -1.5156  1.2619
19844TIP3   OH280946   3.626   2.604  11.902 -0.2532 -0.1866  0.4943
19844TIP3    H180947   3.577   2.668  11.953 -1.7552  0.0940 -1.1769
19844TIP3    H280948   3.700   2.653  11.867 -0.3072  0.1234  0.8155
19845TIP3   OH280949   5.183   3.002   5.415 -0.0368  0.6722 -0.0066
19845TIP3    H180950   5.118   2.992   5.345 -0.3568  0.7395  0.2832
19845TIP3    H280951   5.258   2.950   5.384 -0.5142 -0.0396  0.0149
19846TIP3   OH280952   3.274   1.665  11.506  0.3204  0.0827  0.3252
19846TIP3    H180953   3.264   1.696  11.417 -0.8936 -1.6390 -0.1930
19846TIP3    H280954   3.331   1.587  11.499  0.0597 -0.1864  1.0153
19847TIP3   OH280955   3.748   0.615   1.275  0.2202 -0.4645 -0.2475
19847TIP3    H180956   3.776   0.705   1.293 -1.0707 -0.3349  1.3837
19847TIP3    H280957   3.812   0.560   1.320  0.1985 -0.3140 -0.0321
19848TIP3   OH280958   2.841   4.646   1.207 -0.4456 -0.1147  0.1018
19848TIP3    H180959   2.820   4.554   1.224 -1.0676 -0.0693 -0.4002
19848TIP3    H280960   2.806   4.663   1.120 -1.0202  0.8116  0.4987
19849TIP3   OH280961   4.106   4.242  13.405 -0.0106 -0.1803 -0.1375
19849TIP3    H180962   4.098   4.241  13.309 -2.2603  0.3225 -0.0049
19849TIP3    H280963   4.192   4.282  13.421  0.7059 -0.8842 -1.9345
19850TIP3   OH280964   0.270   2.249  17.135 -0.4411 -0.7552 -0.6229
19850TIP3    H180965   0.182   2.280  17.112 -0.6512 -1.9757 -1.5976
19850TIP3    H280966   0.316   2.327  17.165 -1.1600  0.3367 -2.2333
19851TIP3   OH280967   3.490   2.004  14.676 -0.1387 -0.4290  0.5252
19851TIP3    H180968   3.576   1.975  14.705 -0.2893 -0.1102  1.2988
19851TIP3    H280969   3.461   2.065  14.744 -1.7240 -1.8529  1.1681
19852TIP3   OH280970   6.207   3.576  14.093  0.1424  0.1296  0.0068
19852TIP3    H180971   6.204   3.511  14.163  0.1649 -1.4167 -1.3846
19852TIP3    H280972   6.292   3.619  14.104 -0.4564  0.9456  1.7885
19853TIP3   OH280973   1.450   4.214  16.788  0.4651 -0.2397  0.2171
19853TIP3    H180974   1.527   4.252  16.831  1.4960 -2.6282  0.6174
19853TIP3    H280975   1.478   4.127  16.760 -1.4163 -0.3069 -1.7467
19854TIP3   OH280976   6.634   3.834  14.205 -0.5539  0.1462 -0.2243
19854TIP3    H180977   6.613   3.850  14.297  1.3172 -0.6843  0.3974
19854TIP3    H280978   6.589   3.753  14.183 -0.2696 -0.1435  0.2517
19855TIP3   OH280979   3.706   3.046  11.926 -0.3343  0.1829  0.5003
19855TIP3    H180980   3.646   3.068  11.855  1.1248 -0.0049 -0.8365
19855TIP3    H280981   3.724   2.952  11.914  0.9661  0.4479  0.2936
19856TIP3   OH280982   0.531   0.793  15.918  0.3172 -0.0516 -0.4113
19856TIP3    H180983   0.487   0.868  15.959 -0.1591 -0.7857  0.4322
19856TIP3    H280984   0.501   0.796  15.827 -2.1175 -0.9388  0.2751
19857TIP3   OH280985   4.708   3.772  12.482 -1.0166 -0.2915  0.2495
19857TIP3    H180986   4.642   3.832  12.447  0.1398  2.3333  2.2417
19857TIP3    H280987   4.788   3.824  12.486  0.9047 -2.9127 -0.6555
19858TIP3   OH280988   4.523   1.934  14.230 -0.2224  0.2659  0.3715
19858TIP3    H180989   4.572   1.989  14.168  0.6589 -1.6437 -0.7074
19858TIP3    H280990   4.473   1.875  14.174 -1.1535 -0.0442  1.5061
19859TIP3   OH280991   0.666   2.141  12.865 -0.0767 -0.6741 -0.0604
19859TIP3    H180992   0.594   2.097  12.820  0.1582 -0.6237 -0.4882
19859TIP3    H280993   0.737   2.143  12.801 -0.1707  0.5743 -0.1570
19860TIP3   OH280994   0.544   6.228   0.798 -0.1075 -0.2855 -0.2831
19860TIP3    H180995   0.474   6.285   0.764  1.1214  2.4420  1.3861
19860TIP3    H280996   0.625   6.269   0.767  0.8288 -1.5351  0.4354
19861TIP3   OH280997   2.842   0.657   0.651 -0.0158 -0.4363 -0.3103
19861TIP3    H180998   2.789   0.736   0.660 -0.3104 -0.7864  1.3402
19861TIP3    H280999   2.900   0.676   0.578 -0.4341  1.1078 -0.2808
19862TIP3   OH281000   2.544   2.031   5.917  0.3880  0.6041  0.0771
19862TIP3    H181001   2.516   1.947   5.952 -1.4574  0.7415 -0.9299
19862TIP3    H281002   2.614   2.059   5.975  0.0965 -0.9791  1.2623
19863TIP3   OH281003   2.084   5.015   4.127 -0.4500 -0.5285  0.0367
19863TIP3    H181004   2.170   5.043   4.097  0.7686 -0.4740  3.1935
19863TIP3    H281005   2.022   5.057   4.067  1.6261  1.1828 -1.0224
19864TIP3   OH281006   4.559   5.803   0.880  0.1072 -0.2153  0.1896
19864TIP3    H181007   4.563   5.886   0.832  2.3517 -0.5300 -0.2528
19864TIP3    H281008   4.470   5.801   0.916 -0.1050  2.2499 -0.0182
19865TIP3   OH281009   6.353   4.508   0.714 -0.0587 -0.9034  0.4805
19865TIP3    H181010   6.259   4.527   0.723  0.2088  0.8664 -0.1480
19865TIP3    H281011   6.395   4.571   0.773  0.7688 -1.1823  0.1897
19866TIP3   OH281012   3.733   6.161  12.319 -0.3429 -0.3933 -0.4294
19866TIP3    H181013   3.727   6.256  12.335  1.3161 -0.3898  0.4376
19866TIP3    H281014   3.765   6.154  12.229 -1.8060 -0.1988 -0.9977
19867TIP3   OH281015   4.592   0.339  15.675  0.4690 -0.1640 -0.9922
19867TIP3    H181016   4.580   0.297  15.590 -0.1875 -0.7242 -0.6302
19867TIP3    H281017   4.514   0.315  15.725  1.1854 -0.4371  0.0196
19868TIP3   OH281018   0.426   2.789  14.222  0.3685  0.3857 -0.4922
19868TIP3    H181019   0.498   2.756  14.169  0.7300 -0.0152  0.2213
19868TIP3    H281020   0.368   2.713  14.234 -1.3016  1.2050 -2.8094
19869TIP3   OH281021   0.773   3.238   3.577  0.3500 -0.2486  0.3392
19869TIP3    H181022   0.767   3.318   3.525 -0.5470  0.0164  0.8266
19869TIP3    H281023   0.852   3.194   3.545  2.2679  1.9951  1.7313
19870TIP3   OH281024   3.244   3.836  12.852 -0.4951 -0.2461 -0.0807
19870TIP3    H181025   3.278   3.811  12.937  0.2339  1.0354  0.0223
19870TIP3    H281026   3.183   3.907  12.871 -1.6767 -1.1129 -0.4769
19871TIP3   OH281027   6.462   3.960   4.171 -0.4402  0.2953  0.3150
19871TIP3    H181028   6.420   4.002   4.246 -1.3721  1.2311 -0.6817
19871TIP3    H281029   6.388   3.931   4.116  0.2173 -0.7897 -0.0227
19872TIP3   OH281030   2.523   5.222   0.065 -0.2832  0.2147  0.1584
19872TIP3    H181031   2.565   5.181   0.140 -0.2536  1.1458  0.6744
19872TIP3    H281032   2.595   5.251   0.009 -0.3074 -0.5817 -0.2981
19873TIP3   OH281033   5.024   2.757   5.553 -0.1641 -0.0436  0.5133
19873TIP3    H181034   5.003   2.760   5.646 -1.6069  1.8456  0.1814
19873TIP3    H281035   5.097   2.817   5.542 -0.6919  0.5606  0.2755
19874TIP3   OH281036   5.357   5.444   3.367 -0.2427 -0.0526 -0.3009
19874TIP3    H181037   5.404   5.426   3.448  0.4782  1.1264 -0.4294
19874TIP3    H281038   5.425   5.472   3.305 -0.9915  0.8338 -0.7605
19875TIP3   OH281039   6.119   4.288   3.821  0.0639  0.0408  0.4856
19875TIP3    H181040   6.107   4.284   3.916  0.4967 -0.5402  0.5213
19875TIP3    H281041   6.129   4.197   3.794 -1.0817  0.1245 -0.2641
19876TIP3   OH281042   4.867   1.854   4.441 -0.1645 -0.7131 -0.2204
19876TIP3    H181043   4.833   1.817   4.522  0.3965  1.0038  0.8444
19876TIP3    H281044   4.794   1.905   4.405 -0.4202 -1.4898 -0.8321
19877TIP3   OH281045   2.328   0.819  14.793 -0.2595 -0.0500  0.6246
19877TIP3    H181046   2.292   0.817  14.704 -0.6581  1.5445  0.7105
19877TIP3    H281047   2.318   0.729  14.825  2.7034 -1.4778 -1.9734
19878TIP3   OH281048   4.302   1.527   0.687 -0.2134  0.3611  0.3848
19878TIP3    H181049   4.384   1.575   0.696 -0.4575  0.8705 -0.0832
19878TIP3    H281050   4.303   1.463   0.759  1.0706 -0.3396 -0.2287
19879TIP3   OH281051   0.728   1.112   4.650  0.0579 -0.2662 -0.3846
19879TIP3    H181052   0.808   1.163   4.662  0.2081 -0.2263 -1.4391
19879TIP3    H281053   0.658   1.172   4.676  0.2624  0.3492 -1.1841
19880TIP3   OH281054   5.562   4.349  13.709 -0.3377  0.0307  0.6127
19880TIP3    H181055   5.608   4.342  13.626 -1.2205 -0.7256  0.1632
19880TIP3    H281056   5.469   4.342  13.685 -0.7054  1.5230  1.4803
19881TIP3   OH281057   0.671   1.759   9.312 -0.1347 -0.2319  0.0133
19881TIP3    H181058   0.666   1.844   9.356 -1.4790  0.7543 -1.8803
19881TIP3    H281059   0.763   1.733   9.321  0.3580  1.4996  0.5132
19882TIP3   OH281060   4.880   4.500  12.908 -0.6096  0.1164 -0.1952
19882TIP3    H181061   4.974   4.483  12.903 -0.7303 -0.4814 -0.4230
19882TIP3    H281062   4.875   4.589  12.943  0.0262 -0.3296  1.1207
19883TIP3   OH281063   0.103   0.212  12.568 -0.3542  0.5174 -0.0678
19883TIP3    H181064   0.010   0.211  12.594 -0.6179 -0.0598 -1.0066
19883TIP3    H281065   0.118   0.302  12.539 -0.6409  0.5974  0.0236
19884TIP3   OH281066   4.290   5.929   1.574 -0.2893  0.0078  0.2395
19884TIP3    H181067   4.243   6.012   1.571 -1.6102 -0.7370 -0.5327
19884TIP3    H281068   4.306   5.913   1.667 -1.7220  0.2026  0.5378
19885TIP3   OH281069   5.198   3.500   0.047  0.0124  0.2216  0.2332
19885TIP3    H181070   5.199   3.566  -0.021  0.3686 -1.7062 -1.7583
19885TIP3    H281071   5.274   3.444   0.028  1.2823  0.6306  3.3511
19886TIP3   OH281072   3.472   3.305  11.235 -0.0869  0.6614 -0.2392
19886TIP3    H181073   3.384   3.306  11.273  0.5326 -0.4340  1.3408
19886TIP3    H281074   3.461   3.266  11.148 -1.3718  2.0632 -0.7474
19887TIP3   OH281075   6.575   2.830  13.697 -0.4664 -0.0633 -0.2165
19887TIP3    H181076   6.616   2.772  13.761 -0.4472 -0.8883 -0.9683
19887TIP3    H281077   6.645   2.850  13.635  0.0222  2.1771  0.9476
19888TIP3   OH281078   2.073   2.947   5.207  0.2085 -0.1812 -0.7427
19888TIP3    H181079   2.134   2.938   5.133  1.7215  0.7619  0.3512
19888TIP3    H281080   2.077   2.862   5.251 -0.1743 -0.5139 -1.3304
19889TIP3   OH281081   1.857   5.160   4.901 -0.4191  0.1052 -0.4765
19889TIP3    H181082   1.929   5.146   4.840  0.5839  3.1591 -0.1772
19889TIP3    H281083   1.900   5.193   4.980 -2.0996  1.9634 -0.2757
19890TIP3   OH281084   4.908   2.691   5.804  0.5051 -0.6273  0.4012
19890TIP3    H181085   4.844   2.620   5.807 -0.2733  0.0866  1.8138
19890TIP3    H281086   4.988   2.653   5.839  0.4188 -1.1117  0.0818
19891TIP3   OH281087   5.031   2.318   1.022 -0.1882 -0.2409 -0.4002
19891TIP3    H181088   5.099   2.263   1.060 -0.2158  1.7118  2.8164
19891TIP3    H281089   5.068   2.350   0.940  0.7740 -2.9562 -1.1174
19892TIP3   OH281090   3.328   2.320  11.219 -0.4215 -0.0080 -0.1242
19892TIP3    H181091   3.374   2.356  11.142 -0.5076  1.7281  0.5845
19892TIP3    H281092   3.344   2.226  11.215  1.6950  0.3373 -0.8881
19893TIP3   OH281093   3.127   1.356  15.357 -0.3402 -0.2886 -0.0217
19893TIP3    H181094   3.181   1.287  15.318 -1.6611 -1.2741 -0.2002
19893TIP3    H281095   3.050   1.309  15.390 -0.7936  0.9819  0.7708
19894TIP3   OH281096   3.667   1.160  16.780 -0.1623 -0.1161 -0.6848
19894TIP3    H181097   3.690   1.208  16.700 -0.6455 -0.2286 -0.9013
19894TIP3    H281098   3.722   1.082  16.778 -0.1070 -0.0730 -0.8629
19895TIP3   OH281099   2.138   6.074  14.869 -0.2498  0.1929  0.3474
19895TIP3    H181100   2.163   6.013  14.938  1.5050  0.8305  0.3004
19895TIP3    H281101   2.043   6.082  14.878 -0.1306 -0.1444  2.3460
19896TIP3   OH281102   4.035   4.846  14.935  0.1021 -0.1387 -0.1454
19896TIP3    H181103   4.059   4.811  14.850  0.1561  0.0318 -0.2013
19896TIP3    H281104   4.038   4.941  14.924  0.9182 -0.1005  0.2637
19897TIP3   OH281105   1.937   2.495  15.778 -0.6853 -0.3202  0.3057
19897TIP3    H181106   1.990   2.547  15.838 -0.7170  0.7603 -0.5676
19897TIP3    H281107   1.991   2.488  15.699 -0.9732 -1.0370  0.1641
19898TIP3   OH281108   6.267   2.741   2.079  0.1334 -0.0835 -0.0198
19898TIP3    H181109   6.270   2.655   2.037  0.0685 -0.0213 -0.1503
19898TIP3    H281110   6.352   2.780   2.061  0.2559 -0.2186  0.2484
19899TIP3   OH281111   3.706   3.127  17.094 -0.8221  0.4394  0.0204
19899TIP3    H181112   3.627   3.075  17.080 -1.0905  1.0348 -0.7243
19899TIP3    H281113   3.692   3.207  17.043 -0.3181  1.1461  0.9559
19900TIP3   OH281114   3.235   2.292   2.033 -0.2072  0.7972  0.1585
19900TIP3    H181115   3.190   2.337   1.961 -2.3325  0.7167  1.3273
19900TIP3    H281116   3.168   2.286   2.102  1.9217  1.5509  2.4535
19901TIP3   OH281117   1.537   6.094   0.579  0.1582 -0.2603 -0.3362
19901TIP3    H181118   1.458   6.105   0.526 -0.0523 -1.3310 -0.2767
19901TIP3    H281119   1.545   5.999   0.590  0.4349 -0.0864  1.1954
19902TIP3   OH281120   6.260   5.524   5.803  0.3434 -0.2174 -0.0062
19902TIP3    H181121   6.343   5.475   5.798 -0.8853 -2.4341 -0.0486
19902TIP3    H281122   6.234   5.535   5.712  0.2097 -0.2374  0.0294
19903TIP3   OH281123   6.115   3.136   0.799  0.1542 -0.1320  0.3614
19903TIP3    H181124   6.078   3.128   0.887 -0.7931 -2.0136 -0.1488
19903TIP3    H281125   6.041   3.157   0.744  0.2895 -1.3588 -0.3141
19904TIP3   OH281126   3.382   0.622  11.917  0.0757  0.2702 -1.1396
19904TIP3    H181127   3.390   0.549  11.978 -1.6690  1.8858  1.2078
19904TIP3    H281128   3.293   0.613  11.882 -0.0411  1.0858 -1.0547
19905TIP3   OH281129   5.939   1.026  12.532  0.3061 -0.4224 -0.3671
19905TIP3    H181130   5.978   1.097  12.584 -4.0699  2.1914 -0.2012
19905TIP3    H281131   5.951   1.054  12.442  0.5681 -0.6786 -0.4130
19906TIP3   OH281132   3.622   0.431   3.093 -0.5933  0.2863  0.1686
19906TIP3    H181133   3.660   0.441   3.180 -0.2666  1.2672 -0.0850
19906TIP3    H281134   3.617   0.336   3.080  1.7649  0.1043  0.2132
19907TIP3   OH281135   0.108   5.014   4.367  0.7358  0.1206  0.2558
19907TIP3    H181136   0.017   5.034   4.348  0.0534 -1.2144  1.8884
19907TIP3    H281137   0.135   4.953   4.298 -0.8206 -2.4446  1.7572
19908TIP3   OH281138   0.684   5.868  11.360  0.7932  0.4476  0.4412
19908TIP3    H181139   0.699   5.820  11.278  1.9570  0.8502  0.4003
19908TIP3    H281140   0.698   5.803  11.429 -0.7456 -0.0358  0.3302
19909TIP3   OH281141   4.972   6.445  12.159 -0.4996  0.1261  0.1398
19909TIP3    H181142   4.985   6.359  12.118  1.1505 -0.0186  0.9061
19909TIP3    H281143   5.013   6.507  12.098  1.6414 -0.0532  1.3081
19910TIP3   OH281144   2.207   6.636   0.911 -0.2130  0.4906  0.3739
19910TIP3    H181145   2.214   6.730   0.927 -0.1235  0.2432  1.8442
19910TIP3    H281146   2.170   6.600   0.991 -0.5737 -0.7011 -0.2963
19911TIP3   OH281147   1.264   2.940  12.265  0.2120 -0.1748  0.4600
19911TIP3    H181148   1.191   2.997  12.241  1.9610  1.7742 -0.5479
19911TIP3    H281149   1.299   2.977  12.346 -0.2597 -1.4747  1.2914
19912TIP3   OH281150   1.690   4.607  12.733  0.3611  0.2819 -0.0759
19912TIP3    H181151   1.705   4.543  12.664  1.2198 -0.7368  1.0311
19912TIP3    H281152   1.765   4.667  12.727  0.3465  0.2955 -0.1307
19913TIP3   OH281153   1.188   4.667  13.909  0.1202  0.2985 -0.7110
19913TIP3    H181154   1.178   4.585  13.958 -3.3941  2.0157  1.8012
19913TIP3    H281155   1.099   4.695  13.890  1.1819  3.6112 -1.4048
19914TIP3   OH281156   6.750   5.097  13.323  0.4086  0.1513 -0.2378
19914TIP3    H181157   6.818   5.089  13.390 -0.2842  0.0544  0.4700
19914TIP3    H281158   6.702   5.014  13.328 -1.9903  1.5134  1.7858
19915TIP3   OH281159   4.947   5.624  17.049  0.1457 -0.0091  0.2714
19915TIP3    H181160   4.909   5.569  17.118 -0.1833  0.8800  0.8068
19915TIP3    H281161   4.955   5.711  17.088  1.5360  0.1331 -0.2644
19916TIP3   OH281162   3.797   5.963  16.742  0.1964  0.2322 -0.2378
19916TIP3    H181163   3.720   5.966  16.799  0.1404 -0.3611 -0.2765
19916TIP3    H281164   3.868   5.935  16.799 -0.1232 -1.6763 -0.7113
19917TIP3   OH281165   6.533   0.165  15.170 -0.2497 -0.2994  0.2244
19917TIP3    H181166   6.627   0.150  15.163 -0.1261  0.5181 -0.0443
19917TIP3    H281167   6.509   0.134  15.258  0.3987  0.0935  0.5458
19918TIP3   OH281168   2.872   3.885  15.030 -0.5684  0.1493 -0.2618
19918TIP3    H181169   2.781   3.913  15.037 -0.3138  0.6972  1.2707
19918TIP3    H281170   2.890   3.842  15.113  0.4664 -0.2876 -0.6988
19919TIP3   OH281171   4.301   0.152   2.098  0.2389  0.5513  0.0377
19919TIP3    H181172   4.208   0.136   2.080  0.3986  1.4070 -1.7591
19919TIP3    H281173   4.332   0.200   2.021  1.8560  1.4817  1.2251
19920TIP3   OH281174   6.514   3.934   1.823  0.0618  0.3202  0.6871
19920TIP3    H181175   6.475   3.869   1.882  0.1267 -2.2580 -1.8859
19920TIP3    H281176   6.607   3.908   1.819  0.3474  1.3384  0.5063
19921TIP3   OH281177   5.907   5.742   4.684  0.5448 -0.2459  0.3193
19921TIP3    H181178   5.839   5.701   4.738  1.1566  0.7647  1.9033
19921TIP3    H281179   5.862   5.811   4.637  0.2980 -0.1688  0.6672
19922TIP3   OH281180   1.261   4.999  14.280  0.1099  0.3543 -0.6136
19922TIP3    H181181   1.320   4.941  14.231  2.1829  1.7730  0.0639
19922TIP3    H281182   1.294   4.996  14.369 -2.7596 -1.0887  0.5279
19923TIP3   OH281183   0.934   4.163   6.767  0.0836 -0.1469 -0.1804
19923TIP3    H181184   0.874   4.109   6.818  0.5581  0.1061  0.6560
19923TIP3    H281185   0.910   4.145   6.676 -4.0307  2.9568 -0.0088
19924TIP3   OH281186   5.554   2.131   4.733  0.2759 -0.1946  0.4028
19924TIP3    H181187   5.520   2.042   4.747  1.9767 -0.6790  1.9096
19924TIP3    H281188   5.581   2.133   4.641 -1.4537 -0.6027 -0.1405
19925TIP3   OH281189   0.723   2.499  14.367 -0.2228  0.8707 -0.1651
19925TIP3    H181190   0.757   2.418  14.329  1.6767  1.6543 -0.2727
19925TIP3    H281191   0.680   2.544  14.294  0.8998  1.0657 -0.7275
19926TIP3   OH281192   4.674   6.559  14.926 -0.0783  0.5170 -0.1687
19926TIP3    H181193   4.744   6.554  14.990  0.1263 -0.0226 -0.4367
19926TIP3    H281194   4.687   6.485  14.868 -0.7034  0.5688 -0.3928
19927TIP3   OH281195   6.286   6.140   5.171 -0.4805  0.5151  0.6581
19927TIP3    H181196   6.282   6.157   5.265  1.7769  1.6141  0.6185
19927TIP3    H281197   6.326   6.218   5.134  0.3161 -0.6203 -0.9971
19928TIP3   OH281198   1.011   0.925  12.272  0.5169  0.3781  0.5089
19928TIP3    H181199   1.068   0.996  12.243 -0.0557  1.1230  1.1564
19928TIP3    H281200   0.924   0.966  12.279 -0.2576 -0.8834 -1.0785
19929TIP3   OH281201   0.090   1.526  13.758 -0.4712  0.0878 -0.5445
19929TIP3    H181202   0.160   1.575  13.715  0.2371  2.1354  2.5929
19929TIP3    H281203   0.027   1.509  13.689  1.8582  0.5355 -2.9529
19930TIP3   OH281204   4.099   6.012  14.044  0.7208  0.0355 -0.1207
19930TIP3    H181205   4.153   6.024  14.123  0.4822 -0.8747  0.1942
19930TIP3    H281206   4.162   5.993  13.975  0.8018 -4.1197  0.8164
19931TIP3   OH281207   5.135   1.539   2.016  0.3606 -0.1733  0.1231
19931TIP3    H181208   5.158   1.452   1.985  0.6805 -0.3346  0.7870
19931TIP3    H281209   5.219   1.581   2.034  0.1935 -0.3463  1.4464
19932TIP3   OH281210   6.662   2.023   2.347 -0.2208  0.2962 -0.0345
19932TIP3    H181211   6.569   2.023   2.371 -0.3667  0.3357 -0.5731
19932TIP3    H281212   6.683   2.116   2.336 -0.3148  0.2520 -0.6244
19933TIP3   OH281213   4.572   0.800  16.346  0.5330 -0.1553  0.1430
19933TIP3    H181214   4.610   0.802  16.258 -1.9291  1.8802 -0.9956
19933TIP3    H281215   4.644   0.823  16.404  1.5926  1.3245 -1.6475
19934TIP3   OH281216   3.358   2.171   3.349 -0.1265 -0.4357  0.4395
19934TIP3    H181217   3.298   2.128   3.288 -0.9132  2.4953 -1.0298
19934TIP3    H281218   3.303   2.231   3.399  1.0013 -0.6357  2.0057
19935TIP3   OH281219   4.650   5.890  11.128  0.0321  0.3989 -0.2867
19935TIP3    H181220   4.744   5.891  11.145  0.1173 -0.0565 -0.7177
19935TIP3    H281221   4.612   5.845  11.204 -0.0598  2.3558  0.8891
19936TIP3   OH281222   6.439   0.477   3.543 -0.0761  0.7730  0.1367
19936TIP3    H181223   6.472   0.388   3.548  0.3123  0.8859 -0.3577
19936TIP3    H281224   6.477   0.522   3.619  0.3290  0.7120 -0.0280
19937TIP3   OH281225   6.005   4.978  11.762  0.4286 -0.6822 -0.2252
19937TIP3    H181226   6.003   4.948  11.672  0.7067  3.7446 -1.9463
19937TIP3    H281227   5.914   5.001  11.783  0.7504  1.0125 -0.5282
19938TIP3   OH281228   4.011   1.614  16.379 -0.3991  0.0481  0.5845
19938TIP3    H181229   3.993   1.525  16.409 -0.8597  0.3106  1.0969
19938TIP3    H281230   3.994   1.669  16.455  0.1934  0.5494  0.3651
19939TIP3   OH281231   0.928   5.443  16.190 -0.1914 -0.1788  0.3044
19939TIP3    H181232   0.972   5.413  16.270 -1.3226 -2.4248  0.1676
19939TIP3    H281233   0.835   5.440  16.212 -0.4957 -0.4877 -0.9844
19940TIP3   OH281234   5.858   6.133   3.229 -0.3241  0.2709 -0.0964
19940TIP3    H181235   5.922   6.192   3.189  1.6562 -2.1967 -0.8144
19940TIP3    H281236   5.891   6.117   3.317  0.1552 -1.1056 -0.5042
19941TIP3   OH281237   3.177   1.281   0.815  0.0933 -0.1534 -0.4799
19941TIP3    H181238   3.260   1.235   0.801  0.9971  1.5735 -1.0897
19941TIP3    H281239   3.146   1.302   0.727  0.3049  1.3785 -0.2165
19942TIP3   OH281240   4.262   1.311  13.043 -0.1607 -0.1078 -0.2830
19942TIP3    H181241   4.345   1.358  13.042  1.5750 -2.9456 -2.1718
19942TIP3    H281242   4.261   1.265  13.127 -0.0161  0.1725 -0.1258
19943TIP3   OH281243   4.029   5.894  12.087 -0.0795 -0.5935  0.2554
19943TIP3    H181244   4.020   5.810  12.042  0.3763 -0.2735 -0.4485
19943TIP3    H281245   4.109   5.886  12.140  1.3577  0.1980 -1.6745
19944TIP3   OH281246   3.231   2.026   2.145  0.0703  0.1315 -0.8778
19944TIP3    H181247   3.292   2.002   2.216 -2.0889 -0.7236  0.7957
19944TIP3    H281248   3.245   2.120   2.133  0.9971  0.1522  0.1566
19945TIP3   OH281249   1.566   4.362   2.860 -0.2368  0.3639 -0.1975
19945TIP3    H181250   1.540   4.291   2.919  0.9234  1.9047  2.2692
19945TIP3    H281251   1.623   4.319   2.796 -0.9049 -1.2139  0.2138
19946TIP3   OH281252   0.525   5.950  14.046 -0.7235 -0.6024  0.5496
19946TIP3    H181253   0.431   5.946  14.063 -1.2037  2.2710 -0.7675
19946TIP3    H281254   0.549   6.041  14.066  1.2711 -0.6312 -1.2786
19947TIP3   OH281255   1.844   0.225  11.754 -0.1857 -0.0343 -0.3276
19947TIP3    H181256   1.794   0.306  11.761 -2.1138 -1.2924  2.4016
19947TIP3    H281257   1.888   0.217  11.838 -0.0488 -1.8017 -0.5260
19948TIP3   OH281258   0.253   3.844   0.101  0.0695  0.1113  0.1922
19948TIP3    H181259   0.167   3.827   0.065  0.1575 -0.5073  0.2688
19948TIP3    H281260   0.265   3.778   0.169  0.4598  0.4088  0.4212
19949TIP3   OH281261   4.324   4.095  14.784  0.0133  0.1411 -0.1140
19949TIP3    H181262   4.236   4.081  14.817  0.1892  1.1113  0.8119
19949TIP3    H281263   4.344   4.015  14.736 -0.9489 -0.5572  0.6023
19950TIP3   OH281264   1.891   3.239   4.459  0.4638  0.1999 -0.9330
19950TIP3    H181265   1.924   3.158   4.498  0.0396  0.1093 -0.7671
19950TIP3    H281266   1.797   3.226   4.450  0.1969  1.1548  0.2575
19951TIP3   OH281267   3.515   1.817  16.458  0.1609  0.4720  0.2067
19951TIP3    H181268   3.487   1.890  16.513 -0.6891 -0.5601  1.1942
19951TIP3    H281269   3.436   1.792  16.410 -0.1587 -1.1921  1.5262
19952TIP3   OH281270   5.080   5.852  15.459 -0.1117 -0.3096 -0.5220
19952TIP3    H181271   5.116   5.940  15.457  0.2452 -0.4057  0.5943
19952TIP3    H281272   5.022   5.852  15.535 -0.1060 -1.0303 -0.5095
19953TIP3   OH281273   4.348   1.786   1.845  0.3810  0.0357  0.1457
19953TIP3    H181274   4.443   1.794   1.835  0.5198 -0.1006  1.2115
19953TIP3    H281275   4.331   1.692   1.840  0.3047  0.0584 -0.0194
19954TIP3   OH281276   0.061   1.660  11.166 -0.2112 -0.4820  0.8653
19954TIP3    H181277   0.014   1.727  11.216  1.9834  0.4296  1.8372
19954TIP3    H281278   0.117   1.616  11.230 -0.5161 -2.2836 -0.0303
19955TIP3   OH281279   3.567   0.498  12.761 -0.1647  0.0365 -0.0903
19955TIP3    H181280   3.522   0.414  12.756  0.4696 -0.3794  0.8323
19955TIP3    H281281   3.657   0.479  12.736  0.1607  0.2767  0.8552
19956TIP3   OH281282   0.547   1.636  15.330 -0.2740  0.1845  0.1770
19956TIP3    H181283   0.630   1.674  15.357  0.0105 -0.6791  0.5499
19956TIP3    H281284   0.491   1.712  15.313  1.5735  0.9466 -3.4977
19957LIG     O181285   3.531   3.041  16.239 -0.0483  0.1707 -0.3102
19957LIG     O281286   3.313   3.322  16.770  0.0595  0.6389 -0.4111
19957LIG     O381287   3.562   3.279  16.650  0.2213  0.1441 -0.1688
19957LIG     O481288   3.131   3.234  16.927 -0.0504 -0.4305  0.1121
19957LIG     O581289   3.759   3.003  16.393 -0.2226  0.3581  0.1023
19957LIG     O681290   2.974   3.094  17.099 -0.0306  0.2460 -0.3151
19957LIG      N81291   3.358   3.340  16.270  0.2473 -0.3725  0.9619
19957LIG     C181292   3.274   3.184  16.444  0.0060 -0.4483  0.1875
19957LIG     C281293   3.347   3.267  16.550  0.7654 -0.7361 -0.1265
19957LIG     C381294   3.251   3.040  16.486 -0.0752  0.3537  0.3106
19957LIG     C481295   3.358   3.193  16.316  0.6020 -0.8311  0.1460
19957LIG     C581296   3.183   3.024  16.622 -0.0754 -0.3403 -0.0936
19957LIG     C681297   3.285   3.240  16.685 -0.2182  0.3345  0.4409
19957LIG     C781298   3.184   3.135  16.709  0.0862  0.6539 -0.0245
19957LIG     C881299   3.494   3.225  16.562  0.1815 -0.3106  0.9504
19957LIG     C981300   3.495   3.121  16.340 -0.7030 -0.9519 -0.6348
19957LIG    C1081301   3.559   3.130  16.458  0.4789 -0.2081  0.2980
19957LIG    C1181302   3.115   2.906  16.659 -0.5678 -0.0773  0.3819
19957LIG    C1281303   3.119   3.129  16.834  0.0577 -0.6166  0.0327
19957LIG    C1381304   3.040   2.901  16.779 -0.7753  0.4302 -0.2890
19957LIG    C1481305   3.053   3.008  16.876 -1.1350 -0.1750 -0.5280
19957LIG    C1581306   3.121   2.793  16.555  0.2805 -0.3256  0.5172
19957LIG    C1681307   3.695   3.055  16.483 -0.2039 -0.1127 -0.5388
19957LIG    C1781308   2.978   2.990  17.002  0.1936 -0.3629  0.2926
19957LIG    C1881309   2.977   2.780  16.819 -0.4002  0.0970  0.0312
19957LIG    C1981310   2.918   2.866  17.033 -0.1158  0.4976  0.9420
19957LIG    C2081311   2.925   2.763  16.944  1.1784  0.9585 -1.0317
19957LIG    C2181312   3.739   3.040  16.620  0.1593  0.0106  0.4671
19957LIG    C2281313   3.553   3.091  16.110  0.4805  0.1928 -0.1205
19957LIG    C2381314   2.853   2.855  17.159 -0.1661  0.4127 -0.3413
19957LIG     H181315   3.174   3.230  16.434 -0.1644 -0.6796  0.7510
19957LIG     H281316   3.337   3.374  16.523 -0.7549 -1.4781 -2.9058
19957LIG     H381317   3.348   2.991  16.511 -0.2554  1.1269  2.7324
19957LIG     H481318   3.196   2.986  16.406  0.0194  0.7519 -0.0215
19957LIG     H581319   3.298   3.135  16.242  0.4632 -1.2424  0.5723
19957LIG     H681320   3.262   3.372  16.276 -0.0263 -1.1729  1.0204
19957LIG     H781321   3.373   3.361  16.172 -0.9262 -0.6301  0.7103
19957LIG     H881322   3.095   2.699  16.607 -2.4098  0.8781  1.5234
19957LIG     H981323   3.222   2.764  16.519  0.6512  2.2807 -0.8041
19957LIG    H1081324   3.063   2.803  16.461 -1.8151 -1.5687  1.6209
19957LIG    H1181325   2.968   2.697  16.751  0.3788  0.9715 -1.1789
19957LIG    H1281326   3.181   3.307  16.890 -0.9848 -0.6400 -1.6753
19957LIG    H1381327   2.868   2.675  16.971  2.1297  0.7781  0.5178
19957LIG    H1481328   3.751   3.139  16.670 -1.7982  1.1220 -1.1057
19957LIG    H1581329   3.836   2.986  16.618 -0.3674 -0.9599 -1.6127
19957LIG    H1681330   3.660   2.984  16.674  1.6656 -2.2817  0.4454
19957LIG    H1781331   3.462   3.104  16.048  2.0094 -1.8818 -3.0070
19957LIG    H1881332   3.610   3.018  16.050 -1.2759 -1.7390  0.4448
19957LIG    H1981333   3.614   3.184  16.109  1.2145 -0.2859 -0.1181
19957LIG    H2081334   2.923   2.896  17.235  2.8209 -1.2334 -1.9853
19957LIG    H2181335   2.842   2.746  17.180  0.5977 -0.2485 -2.9083
19957LIG    H2281336   2.754   2.904  17.162 -0.4709 -0.0584 -1.9085
19957LIG    H2381337   3.022   3.171  17.067 -2.2154  1.1508 -1.6080
   6.79184   6.79184  17.20829
